<event>
 8    1  0.1253703E-006  0.9118800E+02  0.7816164E-02  0.1184000E+00
        -11   -1    0    0    0    0  0.00000000000E+00  0.00000000000E+00  0.45593999997E+02  0.45594000000E+02  0.51100000000E-03 0.  1.
         11   -1    0    0    0    0 -0.00000000000E+00 -0.00000000000E+00 -0.45593999997E+02  0.45594000000E+02  0.51100000000E-03 0. -1.
         23    2    1    2    0    0  0.35527136788E-14  0.35527136788E-14  0.00000000000E+00  0.91188000000E+02  0.91188000000E+02 0.  0.
    9900012    2    3    3    0    0  0.24566088077E+02  0.21415356496E+02  0.17136785505E+02  0.54367087536E+02  0.40000007655E+02 0.  0.
         12    1    3    3    0    0 -0.24566088077E+02 -0.21415356496E+02 -0.17136785505E+02  0.36820912464E+02  0.00000000000E+00 0. -1.
         11    1    4    4    0    0  0.12597287247E+02  0.22046859836E+02 -0.51330541822E+00  0.25397227355E+02  0.51100000000E-03 0. -1.
        -11    1    4    4    0    0  0.16316000739E+01  0.18555914365E+01  0.18158196857E+02  0.18325540967E+02  0.51100000000E-03 0.  1.
         12    1    4    4    0    0  0.10337200756E+02 -0.24870947760E+01 -0.50810593329E+00  0.10644319214E+02  0.00000000000E+00 0. -1.
</event>
<event>
 8    1  0.1253703E-006  0.9118800E+02  0.7816164E-02  0.1184000E+00
        -11   -1    0    0    0    0  0.00000000000E+00  0.00000000000E+00  0.45593999997E+02  0.45594000000E+02  0.51100000000E-03 0. -1.
         11   -1    0    0    0    0 -0.00000000000E+00 -0.00000000000E+00 -0.45593999997E+02  0.45594000000E+02  0.51100000000E-03 0.  1.
         23    2    1    2    0    0  0.00000000000E+00  0.88817841970E-15  0.00000000000E+00  0.91188000000E+02  0.91188000000E+02 0.  0.
    9900012    2    3    3    0    0 -0.21454671847E+02 -0.23863191744E+01 -0.29829207063E+02  0.54367094834E+02  0.40000024292E+02 0.  0.
         12    1    3    3    0    0  0.21454671847E+02  0.23863191744E+01  0.29829207063E+02  0.36820905166E+02  0.00000000000E+00 0. -1.
         11    1    4    4    0    0 -0.11842617787E+01  0.55334217709E+01 -0.20963185615E+02  0.21713506945E+02  0.51100000000E-03 0.  1.
        -11    1    4    4    0    0 -0.27470241841E+01 -0.91545935936E+01  0.45152616699E+01  0.10570729111E+02  0.51100000000E-03 0. -1.
         12    1    4    4    0    0 -0.17523385885E+02  0.12348526483E+01 -0.13381283118E+02  0.22082858778E+02  0.00000000000E+00 0. -1.
</event>
<event>
 8    1  0.1253703E-006  0.9118800E+02  0.7816164E-02  0.1184000E+00
        -11   -1    0    0    0    0  0.00000000000E+00  0.00000000000E+00  0.45593999997E+02  0.45594000000E+02  0.51100000000E-03 0. -1.
         11   -1    0    0    0    0 -0.00000000000E+00 -0.00000000000E+00 -0.45593999997E+02  0.45594000000E+02  0.51100000000E-03 0.  1.
         23    2    1    2    0    0  0.35527136788E-14  0.71054273576E-14  0.22204460493E-15  0.91188000000E+02  0.91188000000E+02 0.  0.
    9900012    2    3    3    0    0  0.16073604913E+02  0.33105961155E+02 -0.11892813332E+01  0.54367084355E+02  0.40000000404E+02 0.  0.
         12    1    3    3    0    0 -0.16073604913E+02 -0.33105961155E+02  0.11892813332E+01  0.36820915645E+02  0.00000000000E+00 0. -1.
         11    1    4    4    0    0  0.69473002513E+01  0.27356493956E+01 -0.82002297817E+00  0.75114044189E+01  0.51100000000E-03 0. -1.
        -11    1    4    4    0    0  0.13291099795E+02  0.32612091139E+02  0.90104404986E+01  0.36350926542E+02  0.51100000000E-03 0.  1.
         12    1    4    4    0    0 -0.41647951329E+01 -0.22417793800E+01 -0.93796988536E+01  0.10504753394E+02  0.00000000000E+00 0. -1.
</event>
<event>
 8    1  0.1253703E-006  0.9118800E+02  0.7816164E-02  0.1184000E+00
        -11   -1    0    0    0    0  0.00000000000E+00  0.00000000000E+00  0.45593999997E+02  0.45594000000E+02  0.51100000000E-03 0.  1.
         11   -1    0    0    0    0 -0.00000000000E+00 -0.00000000000E+00 -0.45593999997E+02  0.45594000000E+02  0.51100000000E-03 0. -1.
         23    2    1    2    0    0  0.00000000000E+00  0.00000000000E+00  0.00000000000E+00  0.91188000000E+02  0.91188000000E+02 0.  0.
    9900012    2    3    3    0    0  0.21339883232E+02 -0.21398091073E+02 -0.21035940182E+02  0.54367086143E+02  0.40000004481E+02 0.  0.
        -12    1    3    3    0    0 -0.21339883232E+02  0.21398091073E+02  0.21035940182E+02  0.36820913857E+02  0.00000000000E+00 0.  1.
         11    1    4    4    0    0  0.90452057769E+01 -0.14299646665E+02 -0.97796627312E+01  0.19543219942E+02  0.51100000000E-03 0. -1.
        -11    1    4    4    0    0 -0.54334348238E+00  0.10339226463E+02 -0.76469631364E+01  0.12871319725E+02  0.51100000000E-03 0.  1.
        -12    1    4    4    0    0  0.12838020937E+02 -0.17437670871E+02 -0.36093143144E+01  0.21952546476E+02  0.00000000000E+00 0.  1.
</event>
<event>
 8    1  0.1253703E-006  0.9118800E+02  0.7816164E-02  0.1184000E+00
        -11   -1    0    0    0    0  0.00000000000E+00  0.00000000000E+00  0.45593999997E+02  0.45594000000E+02  0.51100000000E-03 0. -1.
         11   -1    0    0    0    0 -0.00000000000E+00 -0.00000000000E+00 -0.45593999997E+02  0.45594000000E+02  0.51100000000E-03 0.  1.
         23    2    1    2    0    0  0.88817841970E-15  0.00000000000E+00  0.00000000000E+00  0.91188000000E+02  0.91188000000E+02 0.  0.
    9900012    2    3    3    0    0  0.19070374655E+01  0.29443434158E+02  0.22027884610E+02  0.54367077859E+02  0.39999985595E+02 0.  0.
        -12    1    3    3    0    0 -0.19070374655E+01 -0.29443434158E+02 -0.22027884610E+02  0.36820922141E+02  0.00000000000E+00 0.  1.
         11    1    4    4    0    0 -0.68526026838E+01 -0.24221927103E+01  0.42304564682E+01  0.84096339551E+01  0.51100000000E-03 0. -1.
        -11    1    4    4    0    0  0.15092049767E+02  0.82129747877E+01  0.11498445067E+02  0.20674553448E+02  0.51100000000E-03 0.  1.
        -12    1    4    4    0    0 -0.63324096180E+01  0.23652652081E+02  0.62989830753E+01  0.25282890456E+02  0.00000000000E+00 0.  1.
</event>
<event>
 8    1  0.1253703E-006  0.9118800E+02  0.7816164E-02  0.1184000E+00
        -11   -1    0    0    0    0  0.00000000000E+00  0.00000000000E+00  0.45593999997E+02  0.45594000000E+02  0.51100000000E-03 0.  1.
         11   -1    0    0    0    0 -0.00000000000E+00 -0.00000000000E+00 -0.45593999997E+02  0.45594000000E+02  0.51100000000E-03 0. -1.
         23    2    1    2    0    0  0.00000000000E+00  0.17763568394E-14  0.35527136788E-14  0.91188000000E+02  0.91188000000E+02 0.  0.
    9900012    2    3    3    0    0 -0.19824127428E+02  0.70761051433E+01 -0.30211132872E+02  0.54367084182E+02  0.40000000009E+02 0.  0.
        -12    1    3    3    0    0  0.19824127428E+02 -0.70761051433E+01  0.30211132872E+02  0.36820915818E+02  0.00000000000E+00 0.  1.
         11    1    4    4    0    0 -0.16779539129E+02  0.70998291876E+01 -0.26890150734E+02  0.32481390282E+02  0.51100000000E-03 0. -1.
        -11    1    4    4    0    0 -0.46969598612E+01 -0.56813118863E+01 -0.10353704307E+02  0.12709757268E+02  0.51100000000E-03 0.  1.
        -12    1    4    4    0    0  0.16523715621E+01  0.56575878420E+01  0.70327221687E+01  0.91759366318E+01  0.00000000000E+00 0.  1.
</event>
<event>
 8    1  0.1253703E-006  0.9118800E+02  0.7816164E-02  0.1184000E+00
        -11   -1    0    0    0    0  0.00000000000E+00  0.00000000000E+00  0.45593999997E+02  0.45594000000E+02  0.51100000000E-03 0.  1.
         11   -1    0    0    0    0 -0.00000000000E+00 -0.00000000000E+00 -0.45593999997E+02  0.45594000000E+02  0.51100000000E-03 0. -1.
         23    2    1    2    0    0  0.00000000000E+00  0.00000000000E+00  0.00000000000E+00  0.91188000000E+02  0.91188000000E+02 0.  0.
    9900012    2    3    3    0    0  0.65857889703E+01  0.35142200643E+02 -0.87995405653E+01  0.54367098374E+02  0.40000032363E+02 0.  0.
        -12    1    3    3    0    0 -0.65857889703E+01 -0.35142200643E+02  0.87995405653E+01  0.36820901626E+02  0.00000000000E+00 0.  1.
         11    1    4    4    0    0 -0.17842564507E+01  0.31827179299E+02  0.32678291334E+01  0.32044213529E+02  0.51100000000E-03 0. -1.
        -11    1    4    4    0    0  0.53013114262E+00 -0.20096088877E+01  0.35157955628E+01  0.40841627796E+01  0.51100000000E-03 0.  1.
         12    1    4    4    0    0  0.78399142784E+01  0.53246302319E+01 -0.15583165262E+02  0.18238722065E+02  0.00000000000E+00 0. -1.
</event>
<event>
 8    1  0.1253703E-006  0.9118800E+02  0.7816164E-02  0.1184000E+00
        -11   -1    0    0    0    0  0.00000000000E+00  0.00000000000E+00  0.45593999997E+02  0.45594000000E+02  0.51100000000E-03 0. -1.
         11   -1    0    0    0    0 -0.00000000000E+00 -0.00000000000E+00 -0.45593999997E+02  0.45594000000E+02  0.51100000000E-03 0.  1.
         23    2    1    2    0    0  0.00000000000E+00  0.35527136788E-14  0.00000000000E+00  0.91188000000E+02  0.91188000000E+02 0.  0.
    9900012    2    3    3    0    0  0.11181939458E+02  0.25424738435E+02  0.24172863349E+02  0.54367076369E+02  0.39999982199E+02 0.  0.
        -12    1    3    3    0    0 -0.11181939458E+02 -0.25424738435E+02 -0.24172863349E+02  0.36820923631E+02  0.00000000000E+00 0.  1.
         11    1    4    4    0    0  0.18237435382E+02  0.76801950999E+01  0.22496519625E+02  0.29961355804E+02  0.51100000000E-03 0. -1.
        -11    1    4    4    0    0 -0.27183017526E-01 -0.21889603881E+01 -0.19845209668E+01  0.29547606038E+01  0.51100000000E-03 0.  1.
         12    1    4    4    0    0 -0.70283129063E+01  0.19933503723E+02  0.36608646907E+01  0.21450959962E+02  0.00000000000E+00 0. -1.
</event>
<event>
 8    1  0.1253703E-006  0.9118800E+02  0.7816164E-02  0.1184000E+00
        -11   -1    0    0    0    0  0.00000000000E+00  0.00000000000E+00  0.45593999997E+02  0.45594000000E+02  0.51100000000E-03 0.  1.
         11   -1    0    0    0    0 -0.00000000000E+00 -0.00000000000E+00 -0.45593999997E+02  0.45594000000E+02  0.51100000000E-03 0. -1.
         23    2    1    2    0    0  0.00000000000E+00 -0.71054273576E-14  0.17763568394E-14  0.91188000000E+02  0.91188000000E+02 0.  0.
    9900012    2    3    3    0    0 -0.16115281278E+02 -0.32952778013E+02  0.31921871526E+01  0.54367110165E+02  0.40000059242E+02 0.  0.
        -12    1    3    3    0    0  0.16115281278E+02  0.32952778013E+02 -0.31921871526E+01  0.36820889835E+02  0.00000000000E+00 0.  1.
         11    1    4    4    0    0 -0.10814079848E+02 -0.76007762862E+01 -0.22109945397E+01  0.13401664830E+02  0.51100000000E-03 0. -1.
        -11    1    4    4    0    0 -0.95487923978E+01 -0.30940001506E+02  0.82121857349E+01  0.33405136196E+02  0.51100000000E-03 0.  1.
         12    1    4    4    0    0  0.42475909669E+01  0.55879997796E+01 -0.28090040426E+01  0.75603091385E+01  0.00000000000E+00 0. -1.
</event>
<event>
 8    1  0.1253703E-006  0.9118800E+02  0.7816164E-02  0.1184000E+00
        -11   -1    0    0    0    0  0.00000000000E+00  0.00000000000E+00  0.45593999997E+02  0.45594000000E+02  0.51100000000E-03 0.  1.
         11   -1    0    0    0    0 -0.00000000000E+00 -0.00000000000E+00 -0.45593999997E+02  0.45594000000E+02  0.51100000000E-03 0. -1.
         23    2    1    2    0    0 -0.88817841970E-15  0.00000000000E+00  0.00000000000E+00  0.91188000000E+02  0.91188000000E+02 0.  0.
    9900012    2    3    3    0    0  0.48508877279E+01 -0.83154708843E+01  0.35540268109E+02  0.54366962195E+02  0.39999721915E+02 0.  0.
         12    1    3    3    0    0 -0.48508877279E+01  0.83154708843E+01 -0.35540268109E+02  0.36821037805E+02  0.00000000000E+00 0. -1.
         11    1    4    4    0    0  0.71722522345E+01 -0.12996496231E+02  0.87747488964E+01  0.17243733205E+02  0.51100000000E-03 0. -1.
        -11    1    4    4    0    0 -0.71891377119E+01 -0.86927711968E+01  0.94986924203E+01  0.14746970200E+02  0.51100000000E-03 0.  1.
        -12    1    4    4    0    0  0.48677732054E+01  0.13373796543E+02  0.17266826792E+02  0.22376258790E+02  0.00000000000E+00 0.  1.
</event>
<event>
 8    1  0.1253703E-006  0.9118800E+02  0.7816164E-02  0.1184000E+00
        -11   -1    0    0    0    0  0.00000000000E+00  0.00000000000E+00  0.45593999997E+02  0.45594000000E+02  0.51100000000E-03 0.  1.
         11   -1    0    0    0    0 -0.00000000000E+00 -0.00000000000E+00 -0.45593999997E+02  0.45594000000E+02  0.51100000000E-03 0. -1.
         23    2    1    2    0    0  0.88817841970E-15  0.00000000000E+00 -0.88817841970E-15  0.91188000000E+02  0.91188000000E+02 0.  0.
    9900012    2    3    3    0    0  0.54966054783E+01 -0.36006473256E+02 -0.53944674410E+01  0.54367094700E+02  0.40000023988E+02 0.  0.
         12    1    3    3    0    0 -0.54966054783E+01  0.36006473256E+02  0.53944674410E+01  0.36820905300E+02  0.00000000000E+00 0. -1.
         11    1    4    4    0    0 -0.11441413590E+02 -0.25414669976E+01  0.31729078232E+01  0.12142172118E+02  0.51100000000E-03 0. -1.
        -11    1    4    4    0    0  0.15463096306E+02 -0.28776845807E+02 -0.37378116894E+00  0.32670382835E+02  0.51100000000E-03 0.  1.
         12    1    4    4    0    0  0.14749227622E+01 -0.46881604511E+01 -0.81935940952E+01  0.95545397465E+01  0.00000000000E+00 0. -1.
</event>
<event>
 8    1  0.1253703E-006  0.9118800E+02  0.7816164E-02  0.1184000E+00
        -11   -1    0    0    0    0  0.00000000000E+00  0.00000000000E+00  0.45593999997E+02  0.45594000000E+02  0.51100000000E-03 0. -1.
         11   -1    0    0    0    0 -0.00000000000E+00 -0.00000000000E+00 -0.45593999997E+02  0.45594000000E+02  0.51100000000E-03 0.  1.
         23    2    1    2    0    0  0.00000000000E+00  0.35527136788E-14 -0.35527136788E-14  0.91188000000E+02  0.91188000000E+02 0.  0.
    9900012    2    3    3    0    0  0.84665732146E+01  0.20493736190E+02 -0.29395617207E+02  0.54367103813E+02  0.40000044764E+02 0.  0.
         12    1    3    3    0    0 -0.84665732146E+01 -0.20493736190E+02  0.29395617207E+02  0.36820896187E+02  0.00000000000E+00 0. -1.
         11    1    4    4    0    0  0.75675023841E+01 -0.48289837817E+01 -0.90905463170E+01  0.12775923031E+02  0.51100000000E-03 0. -1.
        -11    1    4    4    0    0  0.86139023411E+01  0.27608719987E+01 -0.14434767884E+02  0.17034795328E+02  0.51100000000E-03 0.  1.
         12    1    4    4    0    0 -0.77148315106E+01  0.22561847973E+02 -0.58703030051E+01  0.24556385454E+02  0.00000000000E+00 0. -1.
</event>
<event>
 8    1  0.1253703E-006  0.9118800E+02  0.7816164E-02  0.1184000E+00
        -11   -1    0    0    0    0  0.00000000000E+00  0.00000000000E+00  0.45593999997E+02  0.45594000000E+02  0.51100000000E-03 0.  1.
         11   -1    0    0    0    0 -0.00000000000E+00 -0.00000000000E+00 -0.45593999997E+02  0.45594000000E+02  0.51100000000E-03 0. -1.
         23    2    1    2    0    0  0.00000000000E+00  0.00000000000E+00  0.35527136788E-14  0.91188000000E+02  0.91188000000E+02 0.  0.
    9900012    2    3    3    0    0  0.23422451975E+02  0.21991459050E+02  0.17987338581E+02  0.54367083704E+02  0.39999998919E+02 0.  0.
        -12    1    3    3    0    0 -0.23422451975E+02 -0.21991459050E+02 -0.17987338581E+02  0.36820916296E+02  0.00000000000E+00 0.  1.
         11    1    4    4    0    0  0.14562453355E+02  0.26745378613E+01 -0.60744122431E+01  0.16003645986E+02  0.51100000000E-03 0. -1.
        -11    1    4    4    0    0 -0.15357766184E+01  0.81964443561E+00 -0.33044684893E+01  0.37349617241E+01  0.51100000000E-03 0.  1.
        -12    1    4    4    0    0  0.10395775238E+02  0.18497276753E+02  0.27366219314E+02  0.34628475993E+02  0.00000000000E+00 0.  1.
</event>
<event>
 8    1  0.1253703E-006  0.9118800E+02  0.7816164E-02  0.1184000E+00
        -11   -1    0    0    0    0  0.00000000000E+00  0.00000000000E+00  0.45593999997E+02  0.45594000000E+02  0.51100000000E-03 0.  1.
         11   -1    0    0    0    0 -0.00000000000E+00 -0.00000000000E+00 -0.45593999997E+02  0.45594000000E+02  0.51100000000E-03 0. -1.
         23    2    1    2    0    0 -0.88817841970E-15  0.71054273576E-14 -0.17763568394E-14  0.91188000000E+02  0.91188000000E+02 0.  0.
    9900012    2    3    3    0    0 -0.48352258816E+01 -0.33706092604E+02  0.14010710462E+02  0.54367080734E+02  0.39999992149E+02 0.  0.
         12    1    3    3    0    0  0.48352258816E+01  0.33706092604E+02 -0.14010710462E+02  0.36820919266E+02  0.00000000000E+00 0. -1.
         11    1    4    4    0    0  0.11127854311E+00 -0.22078646937E+02  0.78413451179E+01  0.23430017648E+02  0.51100000000E-03 0. -1.
        -11    1    4    4    0    0  0.50648722184E+01 -0.17206216389E+02  0.74155584843E+01  0.19408691891E+02  0.51100000000E-03 0.  1.
         12    1    4    4    0    0 -0.10011376643E+02  0.55787707222E+01 -0.12461931403E+01  0.11528371195E+02  0.00000000000E+00 0. -1.
</event>
<event>
 8    1  0.1253703E-006  0.9118800E+02  0.7816164E-02  0.1184000E+00
        -11   -1    0    0    0    0  0.00000000000E+00  0.00000000000E+00  0.45593999997E+02  0.45594000000E+02  0.51100000000E-03 0.  1.
         11   -1    0    0    0    0 -0.00000000000E+00 -0.00000000000E+00 -0.45593999997E+02  0.45594000000E+02  0.51100000000E-03 0. -1.
         23    2    1    2    0    0  0.17763568394E-14  0.44408920985E-15 -0.71054273576E-14  0.91188000000E+02  0.91188000000E+02 0.  0.
    9900012    2    3    3    0    0 -0.12244680586E+02 -0.16697856491E+01  0.34685221684E+02  0.54367014271E+02  0.39999840633E+02 0.  0.
         12    1    3    3    0    0  0.12244680586E+02  0.16697856491E+01 -0.34685221684E+02  0.36820985729E+02  0.00000000000E+00 0. -1.
         11    1    4    4    0    0 -0.60456448189E+01 -0.76061671538E+01  0.14339736258E+02  0.17321421312E+02  0.51100000000E-03 0. -1.
        -11    1    4    4    0    0  0.70039382379E+00 -0.44566300829E+01  0.23701805830E+02  0.24127322750E+02  0.51100000000E-03 0.  1.
         12    1    4    4    0    0 -0.68994295910E+01  0.10393011588E+02 -0.33563204039E+01  0.12918270209E+02  0.00000000000E+00 0. -1.
</event>
<event>
 8    1  0.1253703E-006  0.9118800E+02  0.7816164E-02  0.1184000E+00
        -11   -1    0    0    0    0  0.00000000000E+00  0.00000000000E+00  0.45593999997E+02  0.45594000000E+02  0.51100000000E-03 0.  1.
         11   -1    0    0    0    0 -0.00000000000E+00 -0.00000000000E+00 -0.45593999997E+02  0.45594000000E+02  0.51100000000E-03 0. -1.
         23    2    1    2    0    0 -0.88817841970E-15  0.00000000000E+00  0.00000000000E+00  0.91188000000E+02  0.91188000000E+02 0.  0.
    9900012    2    3    3    0    0  0.60741018554E+01 -0.33718754225E+01  0.36159489717E+02  0.54367177714E+02  0.40000213235E+02 0.  0.
         12    1    3    3    0    0 -0.60741018554E+01  0.33718754225E+01 -0.36159489717E+02  0.36820822286E+02  0.00000000000E+00 0. -1.
         11    1    4    4    0    0 -0.10302953940E+02 -0.45738174188E+01  0.67048731622E+01  0.13115867873E+02  0.51100000000E-03 0. -1.
        -11    1    4    4    0    0 -0.66079528070E+00 -0.62343406640E+00  0.22879871512E+02  0.22897900365E+02  0.51100000000E-03 0.  1.
         12    1    4    4    0    0  0.17037851076E+02  0.18253760627E+01  0.65747450422E+01  0.18353409477E+02  0.00000000000E+00 0. -1.
</event>
<event>
 8    1  0.1253703E-006  0.9118800E+02  0.7816164E-02  0.1184000E+00
        -11   -1    0    0    0    0  0.00000000000E+00  0.00000000000E+00  0.45593999997E+02  0.45594000000E+02  0.51100000000E-03 0.  1.
         11   -1    0    0    0    0 -0.00000000000E+00 -0.00000000000E+00 -0.45593999997E+02  0.45594000000E+02  0.51100000000E-03 0. -1.
         23    2    1    2    0    0  0.00000000000E+00  0.35527136788E-14 -0.35527136788E-14  0.91188000000E+02  0.91188000000E+02 0.  0.
    9900012    2    3    3    0    0 -0.11304001044E+02 -0.14367526774E+02  0.31962066559E+02  0.54367082522E+02  0.39999996225E+02 0.  0.
         12    1    3    3    0    0  0.11304001044E+02  0.14367526774E+02 -0.31962066559E+02  0.36820917478E+02  0.00000000000E+00 0. -1.
         11    1    4    4    0    0 -0.57953758518E+01  0.47990303893E+00  0.22395089536E+02  0.23137776984E+02  0.51100000000E-03 0.  1.
        -11    1    4    4    0    0  0.23376962368E+01  0.41984305175E+01 -0.42586548666E+01  0.64208865463E+01  0.51100000000E-03 0. -1.
        -12    1    4    4    0    0 -0.78463214292E+01 -0.19045860331E+02  0.13825631890E+02  0.24808418991E+02  0.00000000000E+00 0.  1.
</event>
<event>
 8    1  0.1253703E-006  0.9118800E+02  0.7816164E-02  0.1184000E+00
        -11   -1    0    0    0    0  0.00000000000E+00  0.00000000000E+00  0.45593999997E+02  0.45594000000E+02  0.51100000000E-03 0. -1.
         11   -1    0    0    0    0 -0.00000000000E+00 -0.00000000000E+00 -0.45593999997E+02  0.45594000000E+02  0.51100000000E-03 0.  1.
         23    2    1    2    0    0 -0.44408920985E-15  0.00000000000E+00  0.00000000000E+00  0.91188000000E+02  0.91188000000E+02 0.  0.
    9900012    2    3    3    0    0  0.30880834932E+01  0.42656550860E+01 -0.36442390221E+02  0.54367083689E+02  0.39999998885E+02 0.  0.
         12    1    3    3    0    0 -0.30880834932E+01 -0.42656550860E+01  0.36442390221E+02  0.36820916311E+02  0.00000000000E+00 0. -1.
         11    1    4    4    0    0 -0.71551815388E+01 -0.13958429383E+01  0.28223413278E+01  0.78173276248E+01  0.51100000000E-03 0. -1.
        -11    1    4    4    0    0  0.14443354715E+02 -0.35187905612E+01 -0.24694394687E+02  0.28823697050E+02  0.51100000000E-03 0.  1.
         12    1    4    4    0    0 -0.42000896834E+01  0.91802885856E+01 -0.14570336863E+02  0.17726059014E+02  0.00000000000E+00 0. -1.
</event>
<event>
 8    1  0.1253703E-006  0.9118800E+02  0.7816164E-02  0.1184000E+00
        -11   -1    0    0    0    0  0.00000000000E+00  0.00000000000E+00  0.45593999997E+02  0.45594000000E+02  0.51100000000E-03 0.  1.
         11   -1    0    0    0    0 -0.00000000000E+00 -0.00000000000E+00 -0.45593999997E+02  0.45594000000E+02  0.51100000000E-03 0. -1.
         23    2    1    2    0    0 -0.53290705182E-14  0.71054273576E-14 -0.11934897515E-14  0.91188000000E+02  0.91188000000E+02 0.  0.
    9900012    2    3    3    0    0 -0.15547941170E+02  0.33376929736E+02 -0.13665085233E+00  0.54367128382E+02  0.40000100772E+02 0.  0.
         12    1    3    3    0    0  0.15547941170E+02 -0.33376929736E+02  0.13665085233E+00  0.36820871618E+02  0.00000000000E+00 0. -1.
         11    1    4    4    0    0 -0.51125374368E+01  0.10780324884E+02 -0.17565421631E+02  0.21234346729E+02  0.51100000000E-03 0. -1.
        -11    1    4    4    0    0  0.28630133071E+01  0.29329107799E+01  0.87068050259E+00  0.41900949439E+01  0.51100000000E-03 0.  1.
        -12    1    4    4    0    0 -0.13298417040E+02  0.19663694073E+02  0.16558090277E+02  0.28942686709E+02  0.00000000000E+00 0.  1.
</event>
<event>
 8    1  0.1253703E-006  0.9118800E+02  0.7816164E-02  0.1184000E+00
        -11   -1    0    0    0    0  0.00000000000E+00  0.00000000000E+00  0.45593999997E+02  0.45594000000E+02  0.51100000000E-03 0. -1.
         11   -1    0    0    0    0 -0.00000000000E+00 -0.00000000000E+00 -0.45593999997E+02  0.45594000000E+02  0.51100000000E-03 0.  1.
         23    2    1    2    0    0  0.00000000000E+00 -0.17763568394E-14 -0.35527136788E-14  0.91188000000E+02  0.91188000000E+02 0.  0.
    9900012    2    3    3    0    0 -0.29922505082E+02 -0.33372771259E+01  0.21196413301E+02  0.54367059411E+02  0.39999943540E+02 0.  0.
        -12    1    3    3    0    0  0.29922505082E+02  0.33372771259E+01 -0.21196413301E+02  0.36820940589E+02  0.00000000000E+00 0.  1.
         11    1    4    4    0    0 -0.19471049014E+02 -0.60638802587E+01  0.85353775420E+01  0.22107579323E+02  0.51100000000E-03 0. -1.
        -11    1    4    4    0    0 -0.37477277893E+01  0.14910656038E+02  0.40357635552E+01  0.15895298513E+02  0.51100000000E-03 0.  1.
        -12    1    4    4    0    0 -0.67037282792E+01 -0.12184052905E+02  0.86252722038E+01  0.16364181575E+02  0.00000000000E+00 0.  1.
</event>
<event>
 8    1  0.1253703E-006  0.9118800E+02  0.7816164E-02  0.1184000E+00
        -11   -1    0    0    0    0  0.00000000000E+00  0.00000000000E+00  0.45593999997E+02  0.45594000000E+02  0.51100000000E-03 0. -1.
         11   -1    0    0    0    0 -0.00000000000E+00 -0.00000000000E+00 -0.45593999997E+02  0.45594000000E+02  0.51100000000E-03 0.  1.
         23    2    1    2    0    0  0.00000000000E+00  0.00000000000E+00  0.00000000000E+00  0.91188000000E+02  0.91188000000E+02 0.  0.
    9900012    2    3    3    0    0 -0.35258975652E+02 -0.73631833208E+01  0.76398637738E+01  0.54367090844E+02  0.40000015196E+02 0.  0.
         12    1    3    3    0    0  0.35258975652E+02  0.73631833208E+01 -0.76398637738E+01  0.36820909156E+02  0.00000000000E+00 0. -1.
         11    1    4    4    0    0  0.41467638743E+01 -0.10722100197E+02  0.73171952973E+01  0.13627194522E+02  0.51100000000E-03 0. -1.
        -11    1    4    4    0    0 -0.50652480441E+01 -0.27082145457E+00  0.33449834863E+01  0.60761004594E+01  0.51100000000E-03 0.  1.
         12    1    4    4    0    0 -0.34340491482E+02  0.36297383303E+01 -0.30223150098E+01  0.34663795862E+02  0.00000000000E+00 0. -1.
</event>
<event>
 8    1  0.1253703E-006  0.9118800E+02  0.7816164E-02  0.1184000E+00
        -11   -1    0    0    0    0  0.00000000000E+00  0.00000000000E+00  0.45593999997E+02  0.45594000000E+02  0.51100000000E-03 0. -1.
         11   -1    0    0    0    0 -0.00000000000E+00 -0.00000000000E+00 -0.45593999997E+02  0.45594000000E+02  0.51100000000E-03 0.  1.
         23    2    1    2    0    0  0.00000000000E+00  0.00000000000E+00 -0.35527136788E-14  0.91188000000E+02  0.91188000000E+02 0.  0.
    9900012    2    3    3    0    0  0.16647180814E+02 -0.16018523887E+02 -0.28671625629E+02  0.54367029714E+02  0.39999875839E+02 0.  0.
         12    1    3    3    0    0 -0.16647180814E+02  0.16018523887E+02  0.28671625629E+02  0.36820970286E+02  0.00000000000E+00 0. -1.
         11    1    4    4    0    0  0.27286590578E+01 -0.49496449233E+01 -0.16975074116E+02  0.17891274594E+02  0.51100000000E-03 0. -1.
        -11    1    4    4    0    0  0.83078802535E+01 -0.11809993598E+02 -0.21060113573E+02  0.25534784257E+02  0.51100000000E-03 0.  1.
         12    1    4    4    0    0  0.56106415029E+01  0.74111463421E+00  0.93635620595E+01  0.10940970863E+02  0.00000000000E+00 0. -1.
</event>
<event>
 8    1  0.1253703E-006  0.9118800E+02  0.7816164E-02  0.1184000E+00
        -11   -1    0    0    0    0  0.00000000000E+00  0.00000000000E+00  0.45593999997E+02  0.45594000000E+02  0.51100000000E-03 0.  1.
         11   -1    0    0    0    0 -0.00000000000E+00 -0.00000000000E+00 -0.45593999997E+02  0.45594000000E+02  0.51100000000E-03 0. -1.
         23    2    1    2    0    0  0.88817841970E-15  0.00000000000E+00 -0.71054273576E-14  0.91188000000E+02  0.91188000000E+02 0.  0.
    9900012    2    3    3    0    0  0.75692357444E+01 -0.12355284820E+02 -0.33850157564E+02  0.54367088009E+02  0.40000008735E+02 0.  0.
        -12    1    3    3    0    0 -0.75692357444E+01  0.12355284820E+02  0.33850157564E+02  0.36820911991E+02  0.00000000000E+00 0.  1.
         11    1    4    4    0    0 -0.50659811990E+00 -0.46699617367E+01 -0.12967818306E+02  0.13792370940E+02  0.51100000000E-03 0. -1.
        -11    1    4    4    0    0  0.12845604212E+02 -0.13620088911E+02 -0.40368407211E+00  0.18726434006E+02  0.51100000000E-03 0.  1.
        -12    1    4    4    0    0 -0.47697703474E+01  0.59347658274E+01 -0.20478655185E+02  0.21848283063E+02  0.00000000000E+00 0.  1.
</event>
<event>
 8    1  0.1253703E-006  0.9118800E+02  0.7816164E-02  0.1184000E+00
        -11   -1    0    0    0    0  0.00000000000E+00  0.00000000000E+00  0.45593999997E+02  0.45594000000E+02  0.51100000000E-03 0.  1.
         11   -1    0    0    0    0 -0.00000000000E+00 -0.00000000000E+00 -0.45593999997E+02  0.45594000000E+02  0.51100000000E-03 0. -1.
         23    2    1    2    0    0  0.44408920985E-15  0.88817841970E-15  0.00000000000E+00  0.91188000000E+02  0.91188000000E+02 0.  0.
    9900012    2    3    3    0    0 -0.31306914708E+01  0.71804870891E+01  0.35978046089E+02  0.54367076270E+02  0.39999981973E+02 0.  0.
         12    1    3    3    0    0  0.31306914708E+01 -0.71804870891E+01 -0.35978046089E+02  0.36820923730E+02  0.00000000000E+00 0. -1.
         11    1    4    4    0    0 -0.84757592806E+01 -0.11892195823E+02  0.24637365565E+02  0.28640226940E+02  0.51100000000E-03 0. -1.
        -11    1    4    4    0    0  0.68554667202E+01  0.91652330039E+01  0.10726391823E+02  0.15686121311E+02  0.51100000000E-03 0.  1.
         12    1    4    4    0    0 -0.15103989105E+01  0.99074499084E+01  0.61428870047E+00  0.10040728020E+02  0.00000000000E+00 0. -1.
</event>
<event>
 8    1  0.1253703E-006  0.9118800E+02  0.7816164E-02  0.1184000E+00
        -11   -1    0    0    0    0  0.00000000000E+00  0.00000000000E+00  0.45593999997E+02  0.45594000000E+02  0.51100000000E-03 0.  1.
         11   -1    0    0    0    0 -0.00000000000E+00 -0.00000000000E+00 -0.45593999997E+02  0.45594000000E+02  0.51100000000E-03 0. -1.
         23    2    1    2    0    0  0.00000000000E+00  0.13322676296E-14  0.44408920985E-15  0.91188000000E+02  0.91188000000E+02 0.  0.
    9900012    2    3    3    0    0 -0.36575794916E+02 -0.28714116499E+01  0.31219666603E+01  0.54367075861E+02  0.39999981040E+02 0.  0.
         12    1    3    3    0    0  0.36575794916E+02  0.28714116499E+01 -0.31219666603E+01  0.36820924139E+02  0.00000000000E+00 0. -1.
         11    1    4    4    0    0 -0.14527255763E+02  0.35888304874E+01 -0.98072561930E+01  0.17891426398E+02  0.51100000000E-03 0. -1.
        -11    1    4    4    0    0 -0.15103752998E+02 -0.16008231100E+02  0.61095021073E+01  0.22841033992E+02  0.51100000000E-03 0.  1.
        -12    1    4    4    0    0 -0.69447861552E+01  0.95479889626E+01  0.68197207461E+01  0.13634615470E+02  0.00000000000E+00 0.  1.
</event>
<event>
 8    1  0.1253703E-006  0.9118800E+02  0.7816164E-02  0.1184000E+00
        -11   -1    0    0    0    0  0.00000000000E+00  0.00000000000E+00  0.45593999997E+02  0.45594000000E+02  0.51100000000E-03 0.  1.
         11   -1    0    0    0    0 -0.00000000000E+00 -0.00000000000E+00 -0.45593999997E+02  0.45594000000E+02  0.51100000000E-03 0. -1.
         23    2    1    2    0    0  0.00000000000E+00  0.00000000000E+00  0.00000000000E+00  0.91188000000E+02  0.91188000000E+02 0.  0.
    9900012    2    3    3    0    0 -0.27224768214E+02  0.18471976421E+02 -0.16534136469E+02  0.54367087654E+02  0.40000007924E+02 0.  0.
        -12    1    3    3    0    0  0.27224768214E+02 -0.18471976421E+02  0.16534136469E+02  0.36820912346E+02  0.00000000000E+00 0.  1.
         11    1    4    4    0    0 -0.59368452346E+01  0.17072920285E+01  0.11074003859E+01  0.62759312684E+01  0.51100000000E-03 0. -1.
        -11    1    4    4    0    0 -0.95288862944E+01 -0.31355841600E+01  0.85340150104E+01  0.13170458401E+02  0.51100000000E-03 0.  1.
         12    1    4    4    0    0 -0.11759036685E+02  0.19900268553E+02 -0.26175551865E+02  0.34920697984E+02  0.00000000000E+00 0. -1.
</event>
<event>
 8    1  0.1253703E-006  0.9118800E+02  0.7816164E-02  0.1184000E+00
        -11   -1    0    0    0    0  0.00000000000E+00  0.00000000000E+00  0.45593999997E+02  0.45594000000E+02  0.51100000000E-03 0. -1.
         11   -1    0    0    0    0 -0.00000000000E+00 -0.00000000000E+00 -0.45593999997E+02  0.45594000000E+02  0.51100000000E-03 0.  1.
         23    2    1    2    0    0 -0.35527136788E-14  0.00000000000E+00  0.00000000000E+00  0.91188000000E+02  0.91188000000E+02 0.  0.
    9900012    2    3    3    0    0 -0.21507517935E+02  0.85047958298E+01 -0.28650935529E+02  0.54367068636E+02  0.39999964570E+02 0.  0.
         12    1    3    3    0    0  0.21507517935E+02 -0.85047958298E+01  0.28650935529E+02  0.36820931364E+02  0.00000000000E+00 0. -1.
         11    1    4    4    0    0  0.74809778731E+01  0.98463922930E+00 -0.69572196166E+01  0.10263403403E+02  0.51100000000E-03 0. -1.
        -11    1    4    4    0    0  0.40681263907E+01 -0.71400097643E+00 -0.10190813923E+01  0.42541717021E+01  0.51100000000E-03 0.  1.
        -12    1    4    4    0    0 -0.33056622199E+02  0.82341575769E+01 -0.20674634520E+02  0.39849493531E+02  0.00000000000E+00 0.  1.
</event>
<event>
 8    1  0.1253703E-006  0.9118800E+02  0.7816164E-02  0.1184000E+00
        -11   -1    0    0    0    0  0.00000000000E+00  0.00000000000E+00  0.45593999997E+02  0.45594000000E+02  0.51100000000E-03 0.  1.
         11   -1    0    0    0    0 -0.00000000000E+00 -0.00000000000E+00 -0.45593999997E+02  0.45594000000E+02  0.51100000000E-03 0. -1.
         23    2    1    2    0    0  0.00000000000E+00 -0.66613381478E-15 -0.17763568394E-14  0.91188000000E+02  0.91188000000E+02 0.  0.
    9900012    2    3    3    0    0 -0.33319970332E+02 -0.57113254599E+00 -0.15659920414E+02  0.54367085797E+02  0.40000003692E+02 0.  0.
        -12    1    3    3    0    0  0.33319970332E+02  0.57113254599E+00  0.15659920414E+02  0.36820914203E+02  0.00000000000E+00 0.  1.
         11    1    4    4    0    0 -0.10019850920E+02 -0.10057594492E+02 -0.16220247237E+02  0.21555719430E+02  0.51100000000E-03 0. -1.
        -11    1    4    4    0    0 -0.40012873059E+00 -0.17961575138E+01 -0.61468738358E+01  0.64164120059E+01  0.51100000000E-03 0.  1.
        -12    1    4    4    0    0 -0.22899990682E+02  0.11282619460E+02  0.67072006587E+01  0.26394954362E+02  0.00000000000E+00 0.  1.
</event>
<event>
 8    1  0.1253703E-006  0.9118800E+02  0.7816164E-02  0.1184000E+00
        -11   -1    0    0    0    0  0.00000000000E+00  0.00000000000E+00  0.45593999997E+02  0.45594000000E+02  0.51100000000E-03 0. -1.
         11   -1    0    0    0    0 -0.00000000000E+00 -0.00000000000E+00 -0.45593999997E+02  0.45594000000E+02  0.51100000000E-03 0.  1.
         23    2    1    2    0    0 -0.88817841970E-15  0.00000000000E+00  0.00000000000E+00  0.91188000000E+02  0.91188000000E+02 0.  0.
    9900012    2    3    3    0    0 -0.26762703923E+01  0.16346855777E+02 -0.32884608558E+02  0.54367087505E+02  0.40000007584E+02 0.  0.
         12    1    3    3    0    0  0.26762703923E+01 -0.16346855777E+02  0.32884608558E+02  0.36820912495E+02  0.00000000000E+00 0. -1.
         11    1    4    4    0    0  0.19287280886E+01 -0.27279183724E+01 -0.11772387505E+02  0.12237264339E+02  0.51100000000E-03 0. -1.
        -11    1    4    4    0    0 -0.16634509314E+02  0.16476307563E+02 -0.96901050004E+01  0.25339174142E+02  0.51100000000E-03 0.  1.
         12    1    4    4    0    0  0.12029510833E+02  0.25984665864E+01 -0.11422116053E+02  0.16790649023E+02  0.00000000000E+00 0. -1.
</event>
<event>
 8    1  0.1253703E-006  0.9118800E+02  0.7816164E-02  0.1184000E+00
        -11   -1    0    0    0    0  0.00000000000E+00  0.00000000000E+00  0.45593999997E+02  0.45594000000E+02  0.51100000000E-03 0.  1.
         11   -1    0    0    0    0 -0.00000000000E+00 -0.00000000000E+00 -0.45593999997E+02  0.45594000000E+02  0.51100000000E-03 0. -1.
         23    2    1    2    0    0 -0.17763568394E-14  0.22204460493E-14  0.00000000000E+00  0.91188000000E+02  0.91188000000E+02 0.  0.
    9900012    2    3    3    0    0 -0.88814836847E+01 -0.20314235586E+01  0.35675929214E+02  0.54367090731E+02  0.40000014939E+02 0.  0.
         12    1    3    3    0    0  0.88814836847E+01  0.20314235586E+01 -0.35675929214E+02  0.36820909269E+02  0.00000000000E+00 0. -1.
         11    1    4    4    0    0 -0.32076389974E+01  0.14606897579E+02  0.12603401379E+02  0.19557508312E+02  0.51100000000E-03 0. -1.
        -11    1    4    4    0    0  0.49955276373E+01 -0.30668312549E+01  0.14279723011E+02  0.15436037051E+02  0.51100000000E-03 0.  1.
         12    1    4    4    0    0 -0.10669372325E+02 -0.13571489882E+02  0.87928048240E+01  0.19373545367E+02  0.00000000000E+00 0. -1.
</event>
<event>
 8    1  0.1253703E-006  0.9118800E+02  0.7816164E-02  0.1184000E+00
        -11   -1    0    0    0    0  0.00000000000E+00  0.00000000000E+00  0.45593999997E+02  0.45594000000E+02  0.51100000000E-03 0.  1.
         11   -1    0    0    0    0 -0.00000000000E+00 -0.00000000000E+00 -0.45593999997E+02  0.45594000000E+02  0.51100000000E-03 0. -1.
         23    2    1    2    0    0  0.00000000000E+00  0.00000000000E+00  0.00000000000E+00  0.91188000000E+02  0.91188000000E+02 0.  0.
    9900012    2    3    3    0    0  0.33911421760E+02  0.13927273035E+02 -0.34395142283E+01  0.54367031543E+02  0.39999880009E+02 0.  0.
        -12    1    3    3    0    0 -0.33911421760E+02 -0.13927273035E+02  0.34395142283E+01  0.36820968457E+02  0.00000000000E+00 0.  1.
         11    1    4    4    0    0  0.22388143632E+02 -0.32801871515E+01 -0.51312145763E+01  0.23201680248E+02  0.51100000000E-03 0. -1.
        -11    1    4    4    0    0  0.15976640979E+02  0.18030842846E+02  0.60938686601E+01  0.24849538954E+02  0.51100000000E-03 0.  1.
         12    1    4    4    0    0 -0.44533628512E+01 -0.82338265956E+00 -0.44021683122E+01  0.63158123419E+01  0.00000000000E+00 0. -1.
</event>
<event>
 8    1  0.1253703E-006  0.9118800E+02  0.7816164E-02  0.1184000E+00
        -11   -1    0    0    0    0  0.00000000000E+00  0.00000000000E+00  0.45593999997E+02  0.45594000000E+02  0.51100000000E-03 0.  1.
         11   -1    0    0    0    0 -0.00000000000E+00 -0.00000000000E+00 -0.45593999997E+02  0.45594000000E+02  0.51100000000E-03 0. -1.
         23    2    1    2    0    0  0.00000000000E+00  0.00000000000E+00  0.00000000000E+00  0.91188000000E+02  0.91188000000E+02 0.  0.
    9900012    2    3    3    0    0 -0.40750385877E+01  0.21182217897E+02  0.29841037700E+02  0.54367084401E+02  0.40000000510E+02 0.  0.
         12    1    3    3    0    0  0.40750385877E+01 -0.21182217897E+02 -0.29841037700E+02  0.36820915599E+02  0.00000000000E+00 0. -1.
         11    1    4    4    0    0 -0.10098168535E+01 -0.22394786101E+01  0.10471272301E+02  0.10755581732E+02  0.51100000000E-03 0. -1.
        -11    1    4    4    0    0 -0.99581987276E+01  0.19497077621E+02  0.25483901878E+02  0.33596592280E+02  0.51100000000E-03 0.  1.
         12    1    4    4    0    0  0.68929769934E+01  0.39246188863E+01 -0.61141364790E+01  0.10014910390E+02  0.00000000000E+00 0. -1.
</event>
<event>
 8    1  0.1253703E-006  0.9118800E+02  0.7816164E-02  0.1184000E+00
        -11   -1    0    0    0    0  0.00000000000E+00  0.00000000000E+00  0.45593999997E+02  0.45594000000E+02  0.51100000000E-03 0.  1.
         11   -1    0    0    0    0 -0.00000000000E+00 -0.00000000000E+00 -0.45593999997E+02  0.45594000000E+02  0.51100000000E-03 0. -1.
         23    2    1    2    0    0  0.00000000000E+00 -0.17763568394E-14  0.15543122345E-14  0.91188000000E+02  0.91188000000E+02 0.  0.
    9900012    2    3    3    0    0  0.36099324551E+02 -0.70921801379E+01  0.15231898984E+01  0.54367077149E+02  0.39999983977E+02 0.  0.
         12    1    3    3    0    0 -0.36099324551E+02  0.70921801379E+01 -0.15231898984E+01  0.36820922851E+02  0.00000000000E+00 0. -1.
         11    1    4    4    0    0  0.89762327267E+01 -0.12628599471E+02  0.14896962816E+02  0.21493575319E+02  0.51100000000E-03 0. -1.
        -11    1    4    4    0    0  0.11249746033E+01 -0.22578711991E+01  0.19359544490E+00  0.25300256258E+01  0.51100000000E-03 0.  1.
         12    1    4    4    0    0  0.25998117221E+02  0.77942905325E+01 -0.13567368362E+02  0.30343476205E+02  0.00000000000E+00 0. -1.
</event>
<event>
 8    1  0.1253703E-006  0.9118800E+02  0.7816164E-02  0.1184000E+00
        -11   -1    0    0    0    0  0.00000000000E+00  0.00000000000E+00  0.45593999997E+02  0.45594000000E+02  0.51100000000E-03 0.  1.
         11   -1    0    0    0    0 -0.00000000000E+00 -0.00000000000E+00 -0.45593999997E+02  0.45594000000E+02  0.51100000000E-03 0. -1.
         23    2    1    2    0    0  0.35527136788E-14  0.00000000000E+00  0.00000000000E+00  0.91188000000E+02  0.91188000000E+02 0.  0.
    9900012    2    3    3    0    0 -0.24863351706E+02  0.18709622978E+02 -0.19686160020E+02  0.54367066465E+02  0.39999959620E+02 0.  0.
        -12    1    3    3    0    0  0.24863351706E+02 -0.18709622978E+02  0.19686160020E+02  0.36820933535E+02  0.00000000000E+00 0.  1.
         11    1    4    4    0    0 -0.16146928169E+02  0.14284734721E+02 -0.20106815199E+02  0.29479839774E+02  0.51100000000E-03 0.  1.
        -11    1    4    4    0    0  0.13758185217E+01  0.12046536744E+02 -0.97295541498E+00  0.12163822040E+02  0.51100000000E-03 0. -1.
        -12    1    4    4    0    0 -0.10092242058E+02 -0.76216484873E+01  0.13936105936E+01  0.12723404651E+02  0.00000000000E+00 0.  1.
</event>
<event>
 8    1  0.1253703E-006  0.9118800E+02  0.7816164E-02  0.1184000E+00
        -11   -1    0    0    0    0  0.00000000000E+00  0.00000000000E+00  0.45593999997E+02  0.45594000000E+02  0.51100000000E-03 0. -1.
         11   -1    0    0    0    0 -0.00000000000E+00 -0.00000000000E+00 -0.45593999997E+02  0.45594000000E+02  0.51100000000E-03 0.  1.
         23    2    1    2    0    0  0.00000000000E+00 -0.35527136788E-14 -0.35527136788E-14  0.91188000000E+02  0.91188000000E+02 0.  0.
    9900012    2    3    3    0    0 -0.14002870036E+02  0.27044696359E+02  0.20694899592E+02  0.54367152107E+02  0.40000154858E+02 0.  0.
        -12    1    3    3    0    0  0.14002870036E+02 -0.27044696359E+02 -0.20694899592E+02  0.36820847893E+02  0.00000000000E+00 0.  1.
         11    1    4    4    0    0  0.89132880530E+01  0.12482450444E+02 -0.23395611059E+01  0.15515534777E+02  0.51100000000E-03 0.  1.
        -11    1    4    4    0    0 -0.82024404881E+01  0.13993072294E+02  0.91999964949E+01  0.18647413706E+02  0.51100000000E-03 0. -1.
        -12    1    4    4    0    0 -0.14713717601E+02  0.56917362194E+00  0.13834464204E+02  0.20204203623E+02  0.00000000000E+00 0.  1.
</event>
<event>
 8    1  0.1253703E-006  0.9118800E+02  0.7816164E-02  0.1184000E+00
        -11   -1    0    0    0    0  0.00000000000E+00  0.00000000000E+00  0.45593999997E+02  0.45594000000E+02  0.51100000000E-03 0. -1.
         11   -1    0    0    0    0 -0.00000000000E+00 -0.00000000000E+00 -0.45593999997E+02  0.45594000000E+02  0.51100000000E-03 0.  1.
         23    2    1    2    0    0  0.00000000000E+00  0.44408920985E-15  0.00000000000E+00  0.91188000000E+02  0.91188000000E+02 0.  0.
    9900012    2    3    3    0    0 -0.32250440844E+02  0.30609485595E+01  0.17501990110E+02  0.54367082052E+02  0.39999995154E+02 0.  0.
        -12    1    3    3    0    0  0.32250440844E+02 -0.30609485595E+01 -0.17501990110E+02  0.36820917948E+02  0.00000000000E+00 0.  1.
         11    1    4    4    0    0 -0.78786895709E+01  0.77622115008E+01  0.16042267693E+02  0.19485379897E+02  0.51100000000E-03 0. -1.
        -11    1    4    4    0    0 -0.26198529194E+02 -0.23318144558E+01  0.81641102986E+01  0.27540025196E+02  0.51100000000E-03 0.  1.
        -12    1    4    4    0    0  0.18267779203E+01 -0.23694484855E+01 -0.67043878821E+01  0.73416769589E+01  0.00000000000E+00 0.  1.
</event>
<event>
 8    1  0.1253703E-006  0.9118800E+02  0.7816164E-02  0.1184000E+00
        -11   -1    0    0    0    0  0.00000000000E+00  0.00000000000E+00  0.45593999997E+02  0.45594000000E+02  0.51100000000E-03 0. -1.
         11   -1    0    0    0    0 -0.00000000000E+00 -0.00000000000E+00 -0.45593999997E+02  0.45594000000E+02  0.51100000000E-03 0.  1.
         23    2    1    2    0    0  0.00000000000E+00  0.17763568394E-14  0.00000000000E+00  0.91188000000E+02  0.91188000000E+02 0.  0.
    9900012    2    3    3    0    0 -0.33509149744E+02  0.11960084898E+02  0.94801687433E+01  0.54367077324E+02  0.39999984375E+02 0.  0.
         12    1    3    3    0    0  0.33509149744E+02 -0.11960084898E+02 -0.94801687433E+01  0.36820922676E+02  0.00000000000E+00 0. -1.
         11    1    4    4    0    0  0.31996268503E+01 -0.65278075333E+01  0.58195676706E+01  0.93122097972E+01  0.51100000000E-03 0. -1.
        -11    1    4    4    0    0 -0.29325986245E+02  0.63399374946E+01  0.61388017017E+01  0.30625041441E+02  0.51100000000E-03 0.  1.
        -12    1    4    4    0    0 -0.73827903491E+01  0.12147954937E+02 -0.24782006290E+01  0.14429826085E+02  0.00000000000E+00 0.  1.
</event>
<event>
 8    1  0.1253703E-006  0.9118800E+02  0.7816164E-02  0.1184000E+00
        -11   -1    0    0    0    0  0.00000000000E+00  0.00000000000E+00  0.45593999997E+02  0.45594000000E+02  0.51100000000E-03 0.  1.
         11   -1    0    0    0    0 -0.00000000000E+00 -0.00000000000E+00 -0.45593999997E+02  0.45594000000E+02  0.51100000000E-03 0. -1.
         23    2    1    2    0    0 -0.35527136788E-14  0.17763568394E-14  0.00000000000E+00  0.91188000000E+02  0.91188000000E+02 0.  0.
    9900012    2    3    3    0    0  0.21340987420E+02  0.85983356912E+01 -0.28747356434E+02  0.54367087156E+02  0.40000006790E+02 0.  0.
        -12    1    3    3    0    0 -0.21340987420E+02 -0.85983356912E+01  0.28747356434E+02  0.36820912844E+02  0.00000000000E+00 0.  1.
         11    1    4    4    0    0  0.16636266446E+01  0.66152873652E+00 -0.21283316900E+01  0.27811993681E+01  0.51100000000E-03 0. -1.
        -11    1    4    4    0    0  0.15261714906E+02  0.99890524933E+01  0.55380134570E+01  0.19062284881E+02  0.51100000000E-03 0.  1.
         12    1    4    4    0    0  0.44156458690E+01 -0.20522455385E+01 -0.32157038201E+02  0.32523602907E+02  0.00000000000E+00 0. -1.
</event>
<event>
 8    1  0.1253703E-006  0.9118800E+02  0.7816164E-02  0.1184000E+00
        -11   -1    0    0    0    0  0.00000000000E+00  0.00000000000E+00  0.45593999997E+02  0.45594000000E+02  0.51100000000E-03 0.  1.
         11   -1    0    0    0    0 -0.00000000000E+00 -0.00000000000E+00 -0.45593999997E+02  0.45594000000E+02  0.51100000000E-03 0. -1.
         23    2    1    2    0    0  0.35527136788E-14 -0.35527136788E-14  0.35527136788E-14  0.91188000000E+02  0.91188000000E+02 0.  0.
    9900012    2    3    3    0    0 -0.27141291238E+02  0.18464803844E+02 -0.16678762991E+02  0.54367084667E+02  0.40000001115E+02 0.  0.
         12    1    3    3    0    0  0.27141291238E+02 -0.18464803844E+02  0.16678762991E+02  0.36820915333E+02  0.00000000000E+00 0. -1.
         11    1    4    4    0    0  0.84245778819E+00 -0.21566194743E+01 -0.64401749119E+01  0.68437267508E+01  0.51100000000E-03 0. -1.
        -11    1    4    4    0    0  0.48899632146E+01  0.11350622853E+01 -0.77415632878E+01  0.92266954557E+01  0.51100000000E-03 0.  1.
         12    1    4    4    0    0 -0.32873712241E+02  0.19486361033E+02 -0.24970247908E+01  0.38296662460E+02  0.00000000000E+00 0. -1.
</event>
<event>
 8    1  0.1253703E-006  0.9118800E+02  0.7816164E-02  0.1184000E+00
        -11   -1    0    0    0    0  0.00000000000E+00  0.00000000000E+00  0.45593999997E+02  0.45594000000E+02  0.51100000000E-03 0.  1.
         11   -1    0    0    0    0 -0.00000000000E+00 -0.00000000000E+00 -0.45593999997E+02  0.45594000000E+02  0.51100000000E-03 0. -1.
         23    2    1    2    0    0  0.00000000000E+00 -0.35527136788E-14  0.00000000000E+00  0.91188000000E+02  0.91188000000E+02 0.  0.
    9900012    2    3    3    0    0 -0.27941194847E+01 -0.16795575500E+02 -0.32647760869E+02  0.54367153326E+02  0.40000157637E+02 0.  0.
        -12    1    3    3    0    0  0.27941194847E+01  0.16795575500E+02  0.32647760869E+02  0.36820846674E+02  0.00000000000E+00 0.  1.
         11    1    4    4    0    0  0.37909943741E-01 -0.16283791908E+02 -0.19540658228E+02  0.25436207270E+02  0.51100000000E-03 0. -1.
        -11    1    4    4    0    0  0.13723270430E+01 -0.27008658975E+01  0.73405117928E+01  0.79411001600E+01  0.51100000000E-03 0.  1.
         12    1    4    4    0    0 -0.42043564714E+01  0.21890823059E+01 -0.20447614434E+02  0.20989845896E+02  0.00000000000E+00 0. -1.
</event>
<event>
 8    1  0.1253703E-006  0.9118800E+02  0.7816164E-02  0.1184000E+00
        -11   -1    0    0    0    0  0.00000000000E+00  0.00000000000E+00  0.45593999997E+02  0.45594000000E+02  0.51100000000E-03 0. -1.
         11   -1    0    0    0    0 -0.00000000000E+00 -0.00000000000E+00 -0.45593999997E+02  0.45594000000E+02  0.51100000000E-03 0.  1.
         23    2    1    2    0    0  0.17763568394E-14 -0.35527136788E-14  0.00000000000E+00  0.91188000000E+02  0.91188000000E+02 0.  0.
    9900012    2    3    3    0    0 -0.90847095056E+01  0.17118740809E+02 -0.31308087641E+02  0.54367087662E+02  0.40000007942E+02 0.  0.
         12    1    3    3    0    0  0.90847095056E+01 -0.17118740809E+02  0.31308087641E+02  0.36820912338E+02  0.00000000000E+00 0. -1.
         11    1    4    4    0    0 -0.36056240109E+01 -0.35921094091E+01  0.22465710253E+00  0.50945309490E+01  0.51100000000E-03 0. -1.
        -11    1    4    4    0    0 -0.39221033145E+01  0.47952466332E+01 -0.32659011926E+02  0.33241364968E+02  0.51100000000E-03 0.  1.
         12    1    4    4    0    0 -0.15569821802E+01  0.15915603585E+02  0.11262671826E+01  0.16031191745E+02  0.00000000000E+00 0. -1.
</event>
<event>
 8    1  0.1253703E-006  0.9118800E+02  0.7816164E-02  0.1184000E+00
        -11   -1    0    0    0    0  0.00000000000E+00  0.00000000000E+00  0.45593999997E+02  0.45594000000E+02  0.51100000000E-03 0.  1.
         11   -1    0    0    0    0 -0.00000000000E+00 -0.00000000000E+00 -0.45593999997E+02  0.45594000000E+02  0.51100000000E-03 0. -1.
         23    2    1    2    0    0  0.00000000000E+00 -0.17763568394E-14  0.35527136788E-14  0.91188000000E+02  0.91188000000E+02 0.  0.
    9900012    2    3    3    0    0  0.14935954586E+02 -0.13191171135E+02 -0.30962755569E+02  0.54367055312E+02  0.39999934194E+02 0.  0.
        -12    1    3    3    0    0 -0.14935954586E+02  0.13191171135E+02  0.30962755569E+02  0.36820944688E+02  0.00000000000E+00 0.  1.
         11    1    4    4    0    0  0.20050044345E+02 -0.58736793566E+01 -0.14125680993E+02  0.25219818619E+02  0.51100000000E-03 0. -1.
        -11    1    4    4    0    0 -0.33787128183E+01 -0.12571698020E+02 -0.18215820465E+01  0.13144635895E+02  0.51100000000E-03 0.  1.
         12    1    4    4    0    0 -0.17353769407E+01  0.52542062409E+01 -0.15015492530E+02  0.16002600797E+02  0.00000000000E+00 0. -1.
</event>
<event>
 8    1  0.1253703E-006  0.9118800E+02  0.7816164E-02  0.1184000E+00
        -11   -1    0    0    0    0  0.00000000000E+00  0.00000000000E+00  0.45593999997E+02  0.45594000000E+02  0.51100000000E-03 0.  1.
         11   -1    0    0    0    0 -0.00000000000E+00 -0.00000000000E+00 -0.45593999997E+02  0.45594000000E+02  0.51100000000E-03 0. -1.
         23    2    1    2    0    0 -0.17763568394E-14  0.00000000000E+00  0.35527136788E-14  0.91188000000E+02  0.91188000000E+02 0.  0.
    9900012    2    3    3    0    0  0.13796808966E+02 -0.26262117837E+02  0.21811154053E+02  0.54367119891E+02  0.40000081415E+02 0.  0.
         12    1    3    3    0    0 -0.13796808966E+02  0.26262117837E+02 -0.21811154053E+02  0.36820880109E+02  0.00000000000E+00 0. -1.
         11    1    4    4    0    0 -0.43301907863E+01 -0.42287899242E+01 -0.57724050617E+01  0.83638434302E+01  0.51100000000E-03 0. -1.
        -11    1    4    4    0    0  0.75136799120E+01 -0.24686157518E+02  0.18031202991E+02  0.31479930756E+02  0.51100000000E-03 0.  1.
        -12    1    4    4    0    0  0.10613319840E+02  0.26528296054E+01  0.95523561237E+01  0.14523345705E+02  0.00000000000E+00 0.  1.
</event>
<event>
 8    1  0.1253703E-006  0.9118800E+02  0.7816164E-02  0.1184000E+00
        -11   -1    0    0    0    0  0.00000000000E+00  0.00000000000E+00  0.45593999997E+02  0.45594000000E+02  0.51100000000E-03 0. -1.
         11   -1    0    0    0    0 -0.00000000000E+00 -0.00000000000E+00 -0.45593999997E+02  0.45594000000E+02  0.51100000000E-03 0.  1.
         23    2    1    2    0    0 -0.17763568394E-14  0.00000000000E+00  0.35527136788E-14  0.91188000000E+02  0.91188000000E+02 0.  0.
    9900012    2    3    3    0    0  0.74195231290E+01  0.18377719032E+02 -0.31032053552E+02  0.54367106096E+02  0.40000049967E+02 0.  0.
         12    1    3    3    0    0 -0.74195231290E+01 -0.18377719032E+02  0.31032053552E+02  0.36820893904E+02  0.00000000000E+00 0. -1.
         11    1    4    4    0    0  0.93937751375E+01  0.15291549927E+01  0.69899760024E+00  0.95430563360E+01  0.51100000000E-03 0. -1.
        -11    1    4    4    0    0  0.10120721466E+02  0.16316644474E+02 -0.16130801827E+02  0.25077174038E+02  0.51100000000E-03 0.  1.
        -12    1    4    4    0    0 -0.12094973475E+02  0.53191956496E+00 -0.15600249325E+02  0.19746875722E+02  0.00000000000E+00 0.  1.
</event>
<event>
 8    1  0.1253703E-006  0.9118800E+02  0.7816164E-02  0.1184000E+00
        -11   -1    0    0    0    0  0.00000000000E+00  0.00000000000E+00  0.45593999997E+02  0.45594000000E+02  0.51100000000E-03 0.  1.
         11   -1    0    0    0    0 -0.00000000000E+00 -0.00000000000E+00 -0.45593999997E+02  0.45594000000E+02  0.51100000000E-03 0. -1.
         23    2    1    2    0    0  0.00000000000E+00  0.00000000000E+00 -0.17763568394E-14  0.91188000000E+02  0.91188000000E+02 0.  0.
    9900012    2    3    3    0    0 -0.42831308930E+01 -0.33444663261E+02 -0.14794878402E+02  0.54367093740E+02  0.40000021798E+02 0.  0.
        -12    1    3    3    0    0  0.42831308930E+01  0.33444663261E+02  0.14794878402E+02  0.36820906260E+02  0.00000000000E+00 0.  1.
         11    1    4    4    0    0  0.82826260197E+00 -0.13979158747E+02 -0.13537936149E+02  0.19477643945E+02  0.51100000000E-03 0. -1.
        -11    1    4    4    0    0 -0.36346113308E+01 -0.17700268387E+01  0.12043291305E+02  0.12703710492E+02  0.51100000000E-03 0.  1.
        -12    1    4    4    0    0 -0.14767821642E+01 -0.17695477675E+02 -0.13300233558E+02  0.22185739303E+02  0.00000000000E+00 0.  1.
</event>
<event>
 8    1  0.1253703E-006  0.9118800E+02  0.7816164E-02  0.1184000E+00
        -11   -1    0    0    0    0  0.00000000000E+00  0.00000000000E+00  0.45593999997E+02  0.45594000000E+02  0.51100000000E-03 0. -1.
         11   -1    0    0    0    0 -0.00000000000E+00 -0.00000000000E+00 -0.45593999997E+02  0.45594000000E+02  0.51100000000E-03 0.  1.
         23    2    1    2    0    0  0.00000000000E+00  0.00000000000E+00 -0.16653345369E-15  0.91188000000E+02  0.91188000000E+02 0.  0.
    9900012    2    3    3    0    0 -0.36555950229E+02  0.44047428931E+01  0.16888499983E+00  0.54367247981E+02  0.40000373421E+02 0.  0.
         12    1    3    3    0    0  0.36555950229E+02 -0.44047428931E+01 -0.16888499983E+00  0.36820752019E+02  0.00000000000E+00 0. -1.
         11    1    4    4    0    0 -0.14125822034E+02  0.97107204501E+01  0.49770876804E+01  0.17849603408E+02  0.51100000000E-03 0. -1.
        -11    1    4    4    0    0 -0.26357160944E+02 -0.23618099342E+01 -0.10964455533E+02  0.28644325172E+02  0.51100000000E-03 0.  1.
         12    1    4    4    0    0  0.39270327483E+01 -0.29441676227E+01  0.61562528527E+01  0.78733194006E+01  0.00000000000E+00 0. -1.
</event>
<event>
 8    1  0.1253703E-006  0.9118800E+02  0.7816164E-02  0.1184000E+00
        -11   -1    0    0    0    0  0.00000000000E+00  0.00000000000E+00  0.45593999997E+02  0.45594000000E+02  0.51100000000E-03 0. -1.
         11   -1    0    0    0    0 -0.00000000000E+00 -0.00000000000E+00 -0.45593999997E+02  0.45594000000E+02  0.51100000000E-03 0.  1.
         23    2    1    2    0    0 -0.17763568394E-14  0.00000000000E+00  0.00000000000E+00  0.91188000000E+02  0.91188000000E+02 0.  0.
    9900012    2    3    3    0    0 -0.14045261334E+02  0.32985056953E+02  0.83962038128E+01  0.54367087646E+02  0.40000007905E+02 0.  0.
         12    1    3    3    0    0  0.14045261334E+02 -0.32985056953E+02 -0.83962038128E+01  0.36820912354E+02  0.00000000000E+00 0. -1.
         11    1    4    4    0    0 -0.53224164560E+01  0.19406850253E+02  0.39271873842E+01  0.20503091345E+02  0.51100000000E-03 0. -1.
        -11    1    4    4    0    0 -0.19459693914E+02  0.11111290046E+02  0.15224805960E+01  0.22460151405E+02  0.51100000000E-03 0.  1.
         12    1    4    4    0    0  0.10736849036E+02  0.24669166540E+01  0.29465358326E+01  0.11403844896E+02  0.00000000000E+00 0. -1.
</event>
<event>
 8    1  0.1253703E-006  0.9118800E+02  0.7816164E-02  0.1184000E+00
        -11   -1    0    0    0    0  0.00000000000E+00  0.00000000000E+00  0.45593999997E+02  0.45594000000E+02  0.51100000000E-03 0. -1.
         11   -1    0    0    0    0 -0.00000000000E+00 -0.00000000000E+00 -0.45593999997E+02  0.45594000000E+02  0.51100000000E-03 0.  1.
         23    2    1    2    0    0 -0.35527136788E-14  0.00000000000E+00 -0.88817841970E-15  0.91188000000E+02  0.91188000000E+02 0.  0.
    9900012    2    3    3    0    0  0.16611982082E+02 -0.32079592122E+02  0.71219453159E+01  0.54367078169E+02  0.39999986302E+02 0.  0.
         12    1    3    3    0    0 -0.16611982082E+02  0.32079592122E+02 -0.71219453159E+01  0.36820921831E+02  0.00000000000E+00 0. -1.
         11    1    4    4    0    0  0.12713951514E+02 -0.58517584672E+01  0.20458171759E+01  0.14144716627E+02  0.51100000000E-03 0. -1.
        -11    1    4    4    0    0 -0.94168656698E+01 -0.64911859284E+00 -0.36097567669E+01  0.10105892250E+02  0.51100000000E-03 0.  1.
        -12    1    4    4    0    0  0.13314896238E+02 -0.25578715062E+02  0.86858849068E+01  0.30116469292E+02  0.00000000000E+00 0.  1.
</event>
<event>
 8    1  0.1253703E-006  0.9118800E+02  0.7816164E-02  0.1184000E+00
        -11   -1    0    0    0    0  0.00000000000E+00  0.00000000000E+00  0.45593999997E+02  0.45594000000E+02  0.51100000000E-03 0. -1.
         11   -1    0    0    0    0 -0.00000000000E+00 -0.00000000000E+00 -0.45593999997E+02  0.45594000000E+02  0.51100000000E-03 0.  1.
         23    2    1    2    0    0  0.00000000000E+00  0.35527136788E-14 -0.14210854715E-13  0.91188000000E+02  0.91188000000E+02 0.  0.
    9900012    2    3    3    0    0 -0.44437114958E+01  0.15456852086E+02 -0.33122784963E+02  0.54367085672E+02  0.40000003407E+02 0.  0.
         12    1    3    3    0    0  0.44437114958E+01 -0.15456852086E+02  0.33122784963E+02  0.36820914328E+02  0.00000000000E+00 0. -1.
         11    1    4    4    0    0 -0.17631638284E+01 -0.47062846546E+01  0.40370409619E+01  0.64463603627E+01  0.51100000000E-03 0. -1.
        -11    1    4    4    0    0  0.56311891432E+00 -0.48338712459E+01 -0.42088276786E+01  0.64341001564E+01  0.51100000000E-03 0.  1.
         12    1    4    4    0    0 -0.32436665818E+01  0.24997007987E+02 -0.32950998246E+02  0.41486625153E+02  0.00000000000E+00 0. -1.
</event>
<event>
 8    1  0.1253703E-006  0.9118800E+02  0.7816164E-02  0.1184000E+00
        -11   -1    0    0    0    0  0.00000000000E+00  0.00000000000E+00  0.45593999997E+02  0.45594000000E+02  0.51100000000E-03 0.  1.
         11   -1    0    0    0    0 -0.00000000000E+00 -0.00000000000E+00 -0.45593999997E+02  0.45594000000E+02  0.51100000000E-03 0. -1.
         23    2    1    2    0    0  0.00000000000E+00  0.00000000000E+00  0.00000000000E+00  0.91188000000E+02  0.91188000000E+02 0.  0.
    9900012    2    3    3    0    0 -0.30837964265E+02  0.18234095512E+02 -0.85039699879E+01  0.54367084955E+02  0.40000001772E+02 0.  0.
        -12    1    3    3    0    0  0.30837964265E+02 -0.18234095512E+02  0.85039699879E+01  0.36820915045E+02  0.00000000000E+00 0.  1.
         11    1    4    4    0    0 -0.63703736239E+01  0.39973590473E+01  0.15574440867E+01  0.76802455563E+01  0.51100000000E-03 0. -1.
        -11    1    4    4    0    0  0.26564734735E+01  0.29378909341E+01 -0.16193187068E+02  0.16670553744E+02  0.51100000000E-03 0.  1.
        -12    1    4    4    0    0 -0.27124064115E+02  0.11298845531E+02  0.61317729935E+01  0.30016285655E+02  0.00000000000E+00 0.  1.
</event>
<event>
 8    1  0.1253703E-006  0.9118800E+02  0.7816164E-02  0.1184000E+00
        -11   -1    0    0    0    0  0.00000000000E+00  0.00000000000E+00  0.45593999997E+02  0.45594000000E+02  0.51100000000E-03 0. -1.
         11   -1    0    0    0    0 -0.00000000000E+00 -0.00000000000E+00 -0.45593999997E+02  0.45594000000E+02  0.51100000000E-03 0.  1.
         23    2    1    2    0    0  0.00000000000E+00  0.35527136788E-14  0.00000000000E+00  0.91188000000E+02  0.91188000000E+02 0.  0.
    9900012    2    3    3    0    0  0.21333163826E+02 -0.22550259245E+02 -0.19803079062E+02  0.54367081880E+02  0.39999994761E+02 0.  0.
         12    1    3    3    0    0 -0.21333163826E+02  0.22550259245E+02  0.19803079062E+02  0.36820918120E+02  0.00000000000E+00 0. -1.
         11    1    4    4    0    0  0.49233033972E+01 -0.65359817605E+01  0.11173563391E+02  0.13849422119E+02  0.51100000000E-03 0. -1.
        -11    1    4    4    0    0 -0.17151759057E+01 -0.26147870904E+01 -0.66797924779E+01  0.73755384702E+01  0.51100000000E-03 0.  1.
        -12    1    4    4    0    0  0.18125036335E+02 -0.13399490394E+02 -0.24296849975E+02  0.33142121291E+02  0.00000000000E+00 0.  1.
</event>
<event>
 8    1  0.1253703E-006  0.9118800E+02  0.7816164E-02  0.1184000E+00
        -11   -1    0    0    0    0  0.00000000000E+00  0.00000000000E+00  0.45593999997E+02  0.45594000000E+02  0.51100000000E-03 0.  1.
         11   -1    0    0    0    0 -0.00000000000E+00 -0.00000000000E+00 -0.45593999997E+02  0.45594000000E+02  0.51100000000E-03 0. -1.
         23    2    1    2    0    0  0.35527136788E-14  0.00000000000E+00  0.00000000000E+00  0.91188000000E+02  0.91188000000E+02 0.  0.
    9900012    2    3    3    0    0  0.31292551550E+02 -0.19032093754E+02  0.37860686813E+01  0.54367099804E+02  0.40000035624E+02 0.  0.
         12    1    3    3    0    0 -0.31292551550E+02  0.19032093754E+02 -0.37860686813E+01  0.36820900196E+02  0.00000000000E+00 0. -1.
         11    1    4    4    0    0  0.20015268249E+02 -0.22790731011E+02  0.25594502147E+01  0.30439762955E+02  0.51100000000E-03 0. -1.
        -11    1    4    4    0    0  0.17230406805E+02  0.47158843359E+01  0.77696383355E+00  0.17880999883E+02  0.51100000000E-03 0.  1.
         12    1    4    4    0    0 -0.59531235043E+01 -0.95724707930E+00  0.44965463304E+00  0.60463369669E+01  0.00000000000E+00 0. -1.
</event>
<event>
 8    1  0.1253703E-006  0.9118800E+02  0.7816164E-02  0.1184000E+00
        -11   -1    0    0    0    0  0.00000000000E+00  0.00000000000E+00  0.45593999997E+02  0.45594000000E+02  0.51100000000E-03 0. -1.
         11   -1    0    0    0    0 -0.00000000000E+00 -0.00000000000E+00 -0.45593999997E+02  0.45594000000E+02  0.51100000000E-03 0.  1.
         23    2    1    2    0    0  0.88817841970E-15  0.00000000000E+00  0.71054273576E-14  0.91188000000E+02  0.91188000000E+02 0.  0.
    9900012    2    3    3    0    0  0.18432364546E+01  0.20936119312E+02  0.30233452554E+02  0.54367078423E+02  0.39999986881E+02 0.  0.
        -12    1    3    3    0    0 -0.18432364546E+01 -0.20936119312E+02 -0.30233452554E+02  0.36820921577E+02  0.00000000000E+00 0.  1.
         11    1    4    4    0    0  0.12913993925E+02  0.22127743581E+01  0.98096269188E+01  0.16367540744E+02  0.51100000000E-03 0. -1.
        -11    1    4    4    0    0 -0.90412536095E+01  0.10549822552E+02 -0.20085157208E+01  0.14038417232E+02  0.51100000000E-03 0.  1.
        -12    1    4    4    0    0 -0.20295038612E+01  0.81735224013E+01  0.22432341356E+02  0.23961120447E+02  0.00000000000E+00 0.  1.
</event>
<event>
 8    1  0.1253703E-006  0.9118800E+02  0.7816164E-02  0.1184000E+00
        -11   -1    0    0    0    0  0.00000000000E+00  0.00000000000E+00  0.45593999997E+02  0.45594000000E+02  0.51100000000E-03 0. -1.
         11   -1    0    0    0    0 -0.00000000000E+00 -0.00000000000E+00 -0.45593999997E+02  0.45594000000E+02  0.51100000000E-03 0.  1.
         23    2    1    2    0    0  0.00000000000E+00  0.00000000000E+00  0.00000000000E+00  0.91188000000E+02  0.91188000000E+02 0.  0.
    9900012    2    3    3    0    0 -0.29130196912E+02 -0.20230131863E+02  0.98971622899E+01  0.54367076211E+02  0.39999981837E+02 0.  0.
        -12    1    3    3    0    0  0.29130196912E+02  0.20230131863E+02 -0.98971622899E+01  0.36820923789E+02  0.00000000000E+00 0.  1.
         11    1    4    4    0    0  0.33926181722E+01  0.76161556467E+01  0.28209781596E+01  0.88019090506E+01  0.51100000000E-03 0. -1.
        -11    1    4    4    0    0 -0.15732213698E+01  0.16344849368E+01  0.31425332365E+00  0.22902667748E+01  0.51100000000E-03 0.  1.
         12    1    4    4    0    0 -0.30949593714E+02 -0.29480772447E+02  0.67619308066E+01  0.43274900385E+02  0.00000000000E+00 0. -1.
</event>
<event>
 8    1  0.1253703E-006  0.9118800E+02  0.7816164E-02  0.1184000E+00
        -11   -1    0    0    0    0  0.00000000000E+00  0.00000000000E+00  0.45593999997E+02  0.45594000000E+02  0.51100000000E-03 0.  1.
         11   -1    0    0    0    0 -0.00000000000E+00 -0.00000000000E+00 -0.45593999997E+02  0.45594000000E+02  0.51100000000E-03 0. -1.
         23    2    1    2    0    0  0.35527136788E-14  0.35527136788E-14 -0.35527136788E-14  0.91188000000E+02  0.91188000000E+02 0.  0.
    9900012    2    3    3    0    0  0.24322934089E+02  0.24064304883E+02 -0.13604607104E+02  0.54367065375E+02  0.39999957136E+02 0.  0.
        -12    1    3    3    0    0 -0.24322934089E+02 -0.24064304883E+02  0.13604607104E+02  0.36820934625E+02  0.00000000000E+00 0.  1.
         11    1    4    4    0    0  0.11233750364E+02 -0.38257126328E-01  0.93933116275E+01  0.14643528074E+02  0.51100000000E-03 0. -1.
        -11    1    4    4    0    0 -0.25794985845E+01 -0.25197321982E+00  0.22668082287E+00  0.26016702150E+01  0.51100000000E-03 0.  1.
         12    1    4    4    0    0  0.15668682309E+02  0.24354535229E+02 -0.23224599554E+02  0.37121867086E+02  0.00000000000E+00 0. -1.
</event>
<event>
 8    1  0.1253703E-006  0.9118800E+02  0.7816164E-02  0.1184000E+00
        -11   -1    0    0    0    0  0.00000000000E+00  0.00000000000E+00  0.45593999997E+02  0.45594000000E+02  0.51100000000E-03 0.  1.
         11   -1    0    0    0    0 -0.00000000000E+00 -0.00000000000E+00 -0.45593999997E+02  0.45594000000E+02  0.51100000000E-03 0. -1.
         23    2    1    2    0    0  0.00000000000E+00  0.00000000000E+00  0.35527136788E-14  0.91188000000E+02  0.91188000000E+02 0.  0.
    9900012    2    3    3    0    0 -0.18883373250E+02  0.19655198951E+02  0.24756232132E+02  0.54367086642E+02  0.40000005619E+02 0.  0.
         12    1    3    3    0    0  0.18883373250E+02 -0.19655198951E+02 -0.24756232132E+02  0.36820913358E+02  0.00000000000E+00 0. -1.
         11    1    4    4    0    0 -0.56774433890E+01  0.23942546992E+02  0.11035940831E+02  0.26967960809E+02  0.51100000000E-03 0. -1.
        -11    1    4    4    0    0 -0.15234054796E+02  0.26083833469E+01  0.12961702863E+02  0.20171411219E+02  0.51100000000E-03 0.  1.
         12    1    4    4    0    0  0.20281249350E+01 -0.68957313880E+01  0.75858843851E+00  0.72277146143E+01  0.00000000000E+00 0. -1.
</event>
<event>
 8    1  0.1253703E-006  0.9118800E+02  0.7816164E-02  0.1184000E+00
        -11   -1    0    0    0    0  0.00000000000E+00  0.00000000000E+00  0.45593999997E+02  0.45594000000E+02  0.51100000000E-03 0. -1.
         11   -1    0    0    0    0 -0.00000000000E+00 -0.00000000000E+00 -0.45593999997E+02  0.45594000000E+02  0.51100000000E-03 0.  1.
         23    2    1    2    0    0  0.17763568394E-14  0.00000000000E+00  0.35527136788E-14  0.91188000000E+02  0.91188000000E+02 0.  0.
    9900012    2    3    3    0    0  0.15013275606E+02  0.18393869539E+02  0.28143320502E+02  0.54367090588E+02  0.40000014613E+02 0.  0.
        -12    1    3    3    0    0 -0.15013275606E+02 -0.18393869539E+02 -0.28143320502E+02  0.36820909412E+02  0.00000000000E+00 0.  1.
         11    1    4    4    0    0  0.23464446320E+01  0.16928331630E+02  0.21347833198E+02  0.27346008789E+02  0.51100000000E-03 0. -1.
        -11    1    4    4    0    0  0.15679600809E+02  0.21426707859E+01 -0.35550702146E+01  0.16219723923E+02  0.51100000000E-03 0.  1.
         12    1    4    4    0    0 -0.30127698352E+01 -0.67713287675E+00  0.10350557519E+02  0.10801357876E+02  0.00000000000E+00 0. -1.
</event>
<event>
 8    1  0.1253703E-006  0.9118800E+02  0.7816164E-02  0.1184000E+00
        -11   -1    0    0    0    0  0.00000000000E+00  0.00000000000E+00  0.45593999997E+02  0.45594000000E+02  0.51100000000E-03 0.  1.
         11   -1    0    0    0    0 -0.00000000000E+00 -0.00000000000E+00 -0.45593999997E+02  0.45594000000E+02  0.51100000000E-03 0. -1.
         23    2    1    2    0    0  0.35527136788E-14  0.35527136788E-14  0.88817841970E-15  0.91188000000E+02  0.91188000000E+02 0.  0.
    9900012    2    3    3    0    0  0.22668076672E+02  0.28913092668E+02 -0.24435791008E+01  0.54367086019E+02  0.40000004196E+02 0.  0.
         12    1    3    3    0    0 -0.22668076672E+02 -0.28913092668E+02  0.24435791008E+01  0.36820913981E+02  0.00000000000E+00 0. -1.
         11    1    4    4    0    0  0.31781923293E+01  0.19791063991E+02 -0.24289092860E+01  0.20191253576E+02  0.51100000000E-03 0. -1.
        -11    1    4    4    0    0  0.10890510508E+02  0.10640687539E+01 -0.12765255332E+02  0.16813304416E+02  0.51100000000E-03 0.  1.
        -12    1    4    4    0    0  0.85993738349E+01  0.80579599224E+01  0.12750585517E+02  0.17362528027E+02  0.00000000000E+00 0.  1.
</event>
<event>
 8    1  0.1253703E-006  0.9118800E+02  0.7816164E-02  0.1184000E+00
        -11   -1    0    0    0    0  0.00000000000E+00  0.00000000000E+00  0.45593999997E+02  0.45594000000E+02  0.51100000000E-03 0. -1.
         11   -1    0    0    0    0 -0.00000000000E+00 -0.00000000000E+00 -0.45593999997E+02  0.45594000000E+02  0.51100000000E-03 0.  1.
         23    2    1    2    0    0  0.00000000000E+00  0.17763568394E-14  0.88817841970E-15  0.91188000000E+02  0.91188000000E+02 0.  0.
    9900012    2    3    3    0    0  0.32433486875E+02 -0.15927434040E+02 -0.70827713811E+01  0.54367083710E+02  0.39999998934E+02 0.  0.
         12    1    3    3    0    0 -0.32433486875E+02  0.15927434040E+02  0.70827713811E+01  0.36820916290E+02  0.00000000000E+00 0. -1.
         11    1    4    4    0    0  0.21331119301E+02 -0.37774715237E+01 -0.19901706032E+02  0.29417067240E+02  0.51100000000E-03 0.  1.
        -11    1    4    4    0    0  0.11213194002E+02 -0.22353678850E+01  0.59630930205E+01  0.12895389406E+02  0.51100000000E-03 0. -1.
         12    1    4    4    0    0 -0.11082642767E+00 -0.99145946311E+01  0.68558416305E+01  0.12054627064E+02  0.00000000000E+00 0. -1.
</event>
<event>
 8    1  0.1253703E-006  0.9118800E+02  0.7816164E-02  0.1184000E+00
        -11   -1    0    0    0    0  0.00000000000E+00  0.00000000000E+00  0.45593999997E+02  0.45594000000E+02  0.51100000000E-03 0. -1.
         11   -1    0    0    0    0 -0.00000000000E+00 -0.00000000000E+00 -0.45593999997E+02  0.45594000000E+02  0.51100000000E-03 0.  1.
         23    2    1    2    0    0 -0.35527136788E-14  0.00000000000E+00  0.00000000000E+00  0.91188000000E+02  0.91188000000E+02 0.  0.
    9900012    2    3    3    0    0  0.24480777273E+02  0.12146774084E+02 -0.24676467908E+02  0.54367073274E+02  0.39999975142E+02 0.  0.
        -12    1    3    3    0    0 -0.24480777273E+02 -0.12146774084E+02  0.24676467908E+02  0.36820926726E+02  0.00000000000E+00 0.  1.
         11    1    4    4    0    0  0.86350102587E+01  0.18883923768E+02 -0.10462692582E+02  0.23251535764E+02  0.51100000000E-03 0. -1.
        -11    1    4    4    0    0 -0.41766908756E+01 -0.52530616272E+01 -0.35699968776E+00  0.67206288521E+01  0.51100000000E-03 0.  1.
         12    1    4    4    0    0  0.20022457890E+02 -0.14840880565E+01 -0.13856775638E+02  0.24394908658E+02  0.00000000000E+00 0. -1.
</event>
<event>
 8    1  0.1253703E-006  0.9118800E+02  0.7816164E-02  0.1184000E+00
        -11   -1    0    0    0    0  0.00000000000E+00  0.00000000000E+00  0.45593999997E+02  0.45594000000E+02  0.51100000000E-03 0.  1.
         11   -1    0    0    0    0 -0.00000000000E+00 -0.00000000000E+00 -0.45593999997E+02  0.45594000000E+02  0.51100000000E-03 0. -1.
         23    2    1    2    0    0  0.35527136788E-14  0.00000000000E+00  0.00000000000E+00  0.91188000000E+02  0.91188000000E+02 0.  0.
    9900012    2    3    3    0    0  0.24214661337E+02  0.65398819563E+01 -0.26956613590E+02  0.54367097025E+02  0.40000029288E+02 0.  0.
        -12    1    3    3    0    0 -0.24214661337E+02 -0.65398819563E+01  0.26956613590E+02  0.36820902975E+02  0.00000000000E+00 0.  1.
         11    1    4    4    0    0  0.49026925553E+01 -0.10711696353E+02 -0.22847500711E+02  0.25705741033E+02  0.51100000000E-03 0. -1.
        -11    1    4    4    0    0  0.57902946525E+01  0.11269037274E+02  0.16838937929E+01  0.12781009812E+02  0.51100000000E-03 0.  1.
        -12    1    4    4    0    0  0.13521674129E+02  0.59825410355E+01 -0.57930066718E+01  0.15880346180E+02  0.00000000000E+00 0.  1.
</event>
<event>
 8    1  0.1253703E-006  0.9118800E+02  0.7816164E-02  0.1184000E+00
        -11   -1    0    0    0    0  0.00000000000E+00  0.00000000000E+00  0.45593999997E+02  0.45594000000E+02  0.51100000000E-03 0. -1.
         11   -1    0    0    0    0 -0.00000000000E+00 -0.00000000000E+00 -0.45593999997E+02  0.45594000000E+02  0.51100000000E-03 0.  1.
         23    2    1    2    0    0  0.35527136788E-14  0.00000000000E+00  0.00000000000E+00  0.91188000000E+02  0.91188000000E+02 0.  0.
    9900012    2    3    3    0    0 -0.17885202177E+02 -0.11444547178E+02 -0.30081912690E+02  0.54367087625E+02  0.40000007859E+02 0.  0.
         12    1    3    3    0    0  0.17885202177E+02  0.11444547178E+02  0.30081912690E+02  0.36820912375E+02  0.00000000000E+00 0. -1.
         11    1    4    4    0    0  0.46583182187E+01 -0.12606894905E+02 -0.98345438995E+01  0.16653887887E+02  0.51100000000E-03 0. -1.
        -11    1    4    4    0    0 -0.10229213486E+02  0.85835281477E+01 -0.19079505411E+02  0.23288222152E+02  0.51100000000E-03 0.  1.
         12    1    4    4    0    0 -0.12314306910E+02 -0.74211804206E+01 -0.11678633795E+01  0.14424977587E+02  0.00000000000E+00 0. -1.
</event>
<event>
 8    1  0.1253703E-006  0.9118800E+02  0.7816164E-02  0.1184000E+00
        -11   -1    0    0    0    0  0.00000000000E+00  0.00000000000E+00  0.45593999997E+02  0.45594000000E+02  0.51100000000E-03 0.  1.
         11   -1    0    0    0    0 -0.00000000000E+00 -0.00000000000E+00 -0.45593999997E+02  0.45594000000E+02  0.51100000000E-03 0. -1.
         23    2    1    2    0    0  0.71054273576E-14  0.00000000000E+00  0.00000000000E+00  0.91188000000E+02  0.91188000000E+02 0.  0.
    9900012    2    3    3    0    0  0.29173872984E+02 -0.98135267112E+01  0.20207920275E+02  0.54367079136E+02  0.39999988507E+02 0.  0.
         12    1    3    3    0    0 -0.29173872984E+02  0.98135267112E+01 -0.20207920275E+02  0.36820920864E+02  0.00000000000E+00 0. -1.
         11    1    4    4    0    0  0.13500759293E+02 -0.14315924242E+02  0.55376387962E+01  0.20442153313E+02  0.51100000000E-03 0. -1.
        -11    1    4    4    0    0  0.19708731362E+02  0.96640004931E+01  0.54556353849E+01  0.22618376492E+02  0.51100000000E-03 0.  1.
         12    1    4    4    0    0 -0.40356176711E+01 -0.51616029628E+01  0.92146460940E+01  0.11306549331E+02  0.00000000000E+00 0. -1.
</event>
<event>
 8    1  0.1253703E-006  0.9118800E+02  0.7816164E-02  0.1184000E+00
        -11   -1    0    0    0    0  0.00000000000E+00  0.00000000000E+00  0.45593999997E+02  0.45594000000E+02  0.51100000000E-03 0. -1.
         11   -1    0    0    0    0 -0.00000000000E+00 -0.00000000000E+00 -0.45593999997E+02  0.45594000000E+02  0.51100000000E-03 0.  1.
         23    2    1    2    0    0  0.00000000000E+00  0.00000000000E+00  0.00000000000E+00  0.91188000000E+02  0.91188000000E+02 0.  0.
    9900012    2    3    3    0    0  0.20134143807E+02 -0.21515232281E+02 -0.22079198983E+02  0.54367082104E+02  0.39999995273E+02 0.  0.
         12    1    3    3    0    0 -0.20134143807E+02  0.21515232281E+02  0.22079198983E+02  0.36820917896E+02  0.00000000000E+00 0. -1.
         11    1    4    4    0    0 -0.37091381050E+01 -0.86879619384E+00  0.34746162998E+01  0.51561100648E+01  0.51100000000E-03 0. -1.
        -11    1    4    4    0    0  0.13744214802E+02 -0.86087641812E+01  0.31190731499E+01  0.16514928969E+02  0.51100000000E-03 0.  1.
        -12    1    4    4    0    0  0.10099067110E+02 -0.12037671906E+02 -0.28672888433E+02  0.32696043071E+02  0.00000000000E+00 0.  1.
</event>
<event>
 8    1  0.1253703E-006  0.9118800E+02  0.7816164E-02  0.1184000E+00
        -11   -1    0    0    0    0  0.00000000000E+00  0.00000000000E+00  0.45593999997E+02  0.45594000000E+02  0.51100000000E-03 0. -1.
         11   -1    0    0    0    0 -0.00000000000E+00 -0.00000000000E+00 -0.45593999997E+02  0.45594000000E+02  0.51100000000E-03 0.  1.
         23    2    1    2    0    0  0.00000000000E+00  0.00000000000E+00 -0.17763568394E-14  0.91188000000E+02  0.91188000000E+02 0.  0.
    9900012    2    3    3    0    0  0.20892396370E+02 -0.28963360542E+02  0.89667461563E+01  0.54367204020E+02  0.40000273203E+02 0.  0.
         12    1    3    3    0    0 -0.20892396370E+02  0.28963360542E+02 -0.89667461563E+01  0.36820795980E+02  0.00000000000E+00 0. -1.
         11    1    4    4    0    0  0.69983031957E+01 -0.12219074013E+02  0.94323485463E+01  0.16948487151E+02  0.51100000000E-03 0. -1.
        -11    1    4    4    0    0  0.17027813797E+02 -0.21209976798E+02  0.70816033355E+01  0.28106203311E+02  0.51100000000E-03 0.  1.
         12    1    4    4    0    0 -0.31337206228E+01  0.44656902678E+01 -0.75472057255E+01  0.93125135583E+01  0.00000000000E+00 0. -1.
</event>
<event>
 8    1  0.1253703E-006  0.9118800E+02  0.7816164E-02  0.1184000E+00
        -11   -1    0    0    0    0  0.00000000000E+00  0.00000000000E+00  0.45593999997E+02  0.45594000000E+02  0.51100000000E-03 0. -1.
         11   -1    0    0    0    0 -0.00000000000E+00 -0.00000000000E+00 -0.45593999997E+02  0.45594000000E+02  0.51100000000E-03 0.  1.
         23    2    1    2    0    0 -0.35527136788E-14 -0.35527136788E-14  0.00000000000E+00  0.91188000000E+02  0.91188000000E+02 0.  0.
    9900012    2    3    3    0    0  0.20892885234E+02 -0.23534930003E+02  0.19114766755E+02  0.54367083502E+02  0.39999998461E+02 0.  0.
        -12    1    3    3    0    0 -0.20892885234E+02  0.23534930003E+02 -0.19114766755E+02  0.36820916498E+02  0.00000000000E+00 0.  1.
         11    1    4    4    0    0  0.47038282691E+01 -0.28480999822E+01  0.69389287881E+01  0.88536098220E+01  0.51100000000E-03 0. -1.
        -11    1    4    4    0    0  0.29436762886E+01  0.68002844273E+01  0.13029851248E+02  0.14989533755E+02  0.51100000000E-03 0.  1.
        -12    1    4    4    0    0  0.13245380676E+02 -0.27487114448E+02 -0.85401328080E+00  0.30523939926E+02  0.00000000000E+00 0.  1.
</event>
<event>
 8    1  0.1253703E-006  0.9118800E+02  0.7816164E-02  0.1184000E+00
        -11   -1    0    0    0    0  0.00000000000E+00  0.00000000000E+00  0.45593999997E+02  0.45594000000E+02  0.51100000000E-03 0. -1.
         11   -1    0    0    0    0 -0.00000000000E+00 -0.00000000000E+00 -0.45593999997E+02  0.45594000000E+02  0.51100000000E-03 0.  1.
         23    2    1    2    0    0 -0.17763568394E-14 -0.17763568394E-14  0.35527136788E-14  0.91188000000E+02  0.91188000000E+02 0.  0.
    9900012    2    3    3    0    0  0.14263820370E+02  0.15143469249E+02  0.30380835798E+02  0.54367130697E+02  0.40000106050E+02 0.  0.
        -12    1    3    3    0    0 -0.14263820370E+02 -0.15143469249E+02 -0.30380835798E+02  0.36820869303E+02  0.00000000000E+00 0.  1.
         11    1    4    4    0    0 -0.90651583806E+00  0.61590397920E+01 -0.47358151878E+00  0.62433822436E+01  0.51100000000E-03 0. -1.
        -11    1    4    4    0    0  0.63939313870E+01  0.11205574733E+02 -0.28602997848E+01  0.13214710696E+02  0.51100000000E-03 0.  1.
        -12    1    4    4    0    0  0.87764048211E+01 -0.22211452756E+01  0.33714717101E+02  0.34909037757E+02  0.00000000000E+00 0.  1.
</event>
<event>
 8    1  0.1253703E-006  0.9118800E+02  0.7816164E-02  0.1184000E+00
        -11   -1    0    0    0    0  0.00000000000E+00  0.00000000000E+00  0.45593999997E+02  0.45594000000E+02  0.51100000000E-03 0.  1.
         11   -1    0    0    0    0 -0.00000000000E+00 -0.00000000000E+00 -0.45593999997E+02  0.45594000000E+02  0.51100000000E-03 0. -1.
         23    2    1    2    0    0 -0.35527136788E-14 -0.88817841970E-15  0.35527136788E-14  0.91188000000E+02  0.91188000000E+02 0.  0.
    9900012    2    3    3    0    0  0.22627849620E+02  0.66862167803E+01 -0.28267565562E+02  0.54367077469E+02  0.39999984706E+02 0.  0.
         12    1    3    3    0    0 -0.22627849620E+02 -0.66862167803E+01  0.28267565562E+02  0.36820922531E+02  0.00000000000E+00 0. -1.
         11    1    4    4    0    0  0.81911190364E+01 -0.23163697040E+01 -0.65573686627E+01  0.10745188864E+02  0.51100000000E-03 0. -1.
        -11    1    4    4    0    0  0.13618726528E+02  0.73651967229E+01  0.54395595223E+01  0.16410504047E+02  0.51100000000E-03 0.  1.
         12    1    4    4    0    0  0.81800405573E+00  0.16373897614E+01 -0.27149756421E+02  0.27211384559E+02  0.00000000000E+00 0. -1.
</event>
<event>
 8    1  0.1253703E-006  0.9118800E+02  0.7816164E-02  0.1184000E+00
        -11   -1    0    0    0    0  0.00000000000E+00  0.00000000000E+00  0.45593999997E+02  0.45594000000E+02  0.51100000000E-03 0.  1.
         11   -1    0    0    0    0 -0.00000000000E+00 -0.00000000000E+00 -0.45593999997E+02  0.45594000000E+02  0.51100000000E-03 0. -1.
         23    2    1    2    0    0 -0.17763568394E-14  0.00000000000E+00  0.00000000000E+00  0.91188000000E+02  0.91188000000E+02 0.  0.
    9900012    2    3    3    0    0  0.13943112255E+02  0.20302893608E+02 -0.27370836943E+02  0.54367074113E+02  0.39999977056E+02 0.  0.
        -12    1    3    3    0    0 -0.13943112255E+02 -0.20302893608E+02  0.27370836943E+02  0.36820925887E+02  0.00000000000E+00 0.  1.
         11    1    4    4    0    0  0.14528457389E+02  0.18651485293E+02 -0.34647572668E+02  0.41945300927E+02  0.51100000000E-03 0. -1.
        -11    1    4    4    0    0 -0.38777957736E+01  0.40447065159E+01  0.58702780296E+01  0.81152396925E+01  0.51100000000E-03 0.  1.
         12    1    4    4    0    0  0.32924506388E+01 -0.23932982003E+01  0.14064576960E+01  0.43065334941E+01  0.00000000000E+00 0. -1.
</event>
<event>
 8    1  0.1253703E-006  0.9118800E+02  0.7816164E-02  0.1184000E+00
        -11   -1    0    0    0    0  0.00000000000E+00  0.00000000000E+00  0.45593999997E+02  0.45594000000E+02  0.51100000000E-03 0. -1.
         11   -1    0    0    0    0 -0.00000000000E+00 -0.00000000000E+00 -0.45593999997E+02  0.45594000000E+02  0.51100000000E-03 0.  1.
         23    2    1    2    0    0 -0.35527136788E-14  0.00000000000E+00  0.00000000000E+00  0.91188000000E+02  0.91188000000E+02 0.  0.
    9900012    2    3    3    0    0 -0.31487441543E+02  0.33757751936E+01  0.18786294616E+02  0.54367086126E+02  0.40000004442E+02 0.  0.
        -12    1    3    3    0    0  0.31487441543E+02 -0.33757751936E+01 -0.18786294616E+02  0.36820913874E+02  0.00000000000E+00 0.  1.
         11    1    4    4    0    0 -0.58731685449E+00  0.61183512058E+00  0.14842029471E+02  0.14866241031E+02  0.51100000000E-03 0. -1.
        -11    1    4    4    0    0 -0.34609026862E+02  0.25818489590E+00  0.21439371190E+01  0.34676330059E+02  0.51100000000E-03 0.  1.
        -12    1    4    4    0    0  0.37089021729E+01  0.25057551771E+01  0.18003280254E+01  0.48245150362E+01  0.00000000000E+00 0.  1.
</event>
<event>
 8    1  0.1253703E-006  0.9118800E+02  0.7816164E-02  0.1184000E+00
        -11   -1    0    0    0    0  0.00000000000E+00  0.00000000000E+00  0.45593999997E+02  0.45594000000E+02  0.51100000000E-03 0.  1.
         11   -1    0    0    0    0 -0.00000000000E+00 -0.00000000000E+00 -0.45593999997E+02  0.45594000000E+02  0.51100000000E-03 0. -1.
         23    2    1    2    0    0  0.00000000000E+00  0.00000000000E+00  0.00000000000E+00  0.91188000000E+02  0.91188000000E+02 0.  0.
    9900012    2    3    3    0    0  0.16570918736E+02  0.15973847588E+02 -0.28740598232E+02  0.54367066535E+02  0.39999959780E+02 0.  0.
        -12    1    3    3    0    0 -0.16570918736E+02 -0.15973847588E+02  0.28740598232E+02  0.36820933465E+02  0.00000000000E+00 0.  1.
         11    1    4    4    0    0  0.58734422914E+01  0.13189599791E+02 -0.23764293712E+02  0.27806555394E+02  0.51100000000E-03 0. -1.
        -11    1    4    4    0    0  0.93699258436E+01  0.12547784495E+02 -0.57365665448E+01  0.16677847644E+02  0.51100000000E-03 0.  1.
        -12    1    4    4    0    0  0.13275506009E+01 -0.97635366983E+01  0.76026202447E+00  0.98826634974E+01  0.00000000000E+00 0.  1.
</event>
<event>
 8    1  0.1253703E-006  0.9118800E+02  0.7816164E-02  0.1184000E+00
        -11   -1    0    0    0    0  0.00000000000E+00  0.00000000000E+00  0.45593999997E+02  0.45594000000E+02  0.51100000000E-03 0. -1.
         11   -1    0    0    0    0 -0.00000000000E+00 -0.00000000000E+00 -0.45593999997E+02  0.45594000000E+02  0.51100000000E-03 0.  1.
         23    2    1    2    0    0  0.00000000000E+00  0.17763568394E-14  0.00000000000E+00  0.91188000000E+02  0.91188000000E+02 0.  0.
    9900012    2    3    3    0    0 -0.43091479457E+01  0.85540026830E+01  0.35553356739E+02  0.54367069902E+02  0.39999967455E+02 0.  0.
        -12    1    3    3    0    0  0.43091479457E+01 -0.85540026830E+01 -0.35553356739E+02  0.36820930098E+02  0.00000000000E+00 0.  1.
         11    1    4    4    0    0 -0.13633364092E+01  0.43481267631E+01 -0.52062276344E+01  0.69187931719E+01  0.51100000000E-03 0. -1.
        -11    1    4    4    0    0 -0.67282865809E+01  0.39685557118E+01  0.14358711258E+01  0.79423548714E+01  0.51100000000E-03 0.  1.
         12    1    4    4    0    0  0.37824750444E+01  0.23732020814E+00  0.39323713247E+02  0.39505921859E+02  0.00000000000E+00 0. -1.
</event>
<event>
 8    1  0.1253703E-006  0.9118800E+02  0.7816164E-02  0.1184000E+00
        -11   -1    0    0    0    0  0.00000000000E+00  0.00000000000E+00  0.45593999997E+02  0.45594000000E+02  0.51100000000E-03 0.  1.
         11   -1    0    0    0    0 -0.00000000000E+00 -0.00000000000E+00 -0.45593999997E+02  0.45594000000E+02  0.51100000000E-03 0. -1.
         23    2    1    2    0    0 -0.11102230246E-15  0.00000000000E+00  0.00000000000E+00  0.91188000000E+02  0.91188000000E+02 0.  0.
    9900012    2    3    3    0    0 -0.93425403617E+00  0.31383167378E+02  0.19235394660E+02  0.54367130469E+02  0.40000105530E+02 0.  0.
         12    1    3    3    0    0  0.93425403617E+00 -0.31383167378E+02 -0.19235394660E+02  0.36820869531E+02  0.00000000000E+00 0. -1.
         11    1    4    4    0    0 -0.50191177257E+00  0.42462912099E+01 -0.58362229070E+01  0.72349431613E+01  0.51100000000E-03 0. -1.
        -11    1    4    4    0    0  0.15383802136E+01 -0.63540841833E+00  0.18435049728E+02  0.18510035556E+02  0.51100000000E-03 0.  1.
        -12    1    4    4    0    0 -0.19707224772E+01  0.27772284586E+02  0.66365678393E+01  0.28622151752E+02  0.00000000000E+00 0.  1.
</event>
<event>
 8    1  0.1253703E-006  0.9118800E+02  0.7816164E-02  0.1184000E+00
        -11   -1    0    0    0    0  0.00000000000E+00  0.00000000000E+00  0.45593999997E+02  0.45594000000E+02  0.51100000000E-03 0.  1.
         11   -1    0    0    0    0 -0.00000000000E+00 -0.00000000000E+00 -0.45593999997E+02  0.45594000000E+02  0.51100000000E-03 0. -1.
         23    2    1    2    0    0 -0.44408920985E-15  0.00000000000E+00  0.00000000000E+00  0.91188000000E+02  0.91188000000E+02 0.  0.
    9900012    2    3    3    0    0  0.31982320674E+01 -0.16310060049E+02 -0.32856282204E+02  0.54367054501E+02  0.39999932345E+02 0.  0.
        -12    1    3    3    0    0 -0.31982320674E+01  0.16310060049E+02  0.32856282204E+02  0.36820945499E+02  0.00000000000E+00 0.  1.
         11    1    4    4    0    0 -0.11676009360E+02 -0.10661464049E+02 -0.10422378781E+02  0.18937317390E+02  0.51100000000E-03 0. -1.
        -11    1    4    4    0    0  0.15477201750E+01  0.59357689690E+01  0.86576750013E+00  0.61950257964E+01  0.51100000000E-03 0.  1.
         12    1    4    4    0    0  0.13326521252E+02 -0.11584364970E+02 -0.23299670924E+02  0.29234711314E+02  0.00000000000E+00 0. -1.
</event>
<event>
 8    1  0.1253703E-006  0.9118800E+02  0.7816164E-02  0.1184000E+00
        -11   -1    0    0    0    0  0.00000000000E+00  0.00000000000E+00  0.45593999997E+02  0.45594000000E+02  0.51100000000E-03 0. -1.
         11   -1    0    0    0    0 -0.00000000000E+00 -0.00000000000E+00 -0.45593999997E+02  0.45594000000E+02  0.51100000000E-03 0.  1.
         23    2    1    2    0    0  0.00000000000E+00  0.35527136788E-14  0.00000000000E+00  0.91188000000E+02  0.91188000000E+02 0.  0.
    9900012    2    3    3    0    0 -0.44896020210E+01  0.26728744748E+02  0.24923839773E+02  0.54367080523E+02  0.39999991669E+02 0.  0.
        -12    1    3    3    0    0  0.44896020210E+01 -0.26728744748E+02 -0.24923839773E+02  0.36820919477E+02  0.00000000000E+00 0.  1.
         11    1    4    4    0    0 -0.60324222986E+01  0.63030230070E+01 -0.18236041119E+01  0.89131223504E+01  0.51100000000E-03 0.  1.
        -11    1    4    4    0    0  0.14909113813E+01  0.27031372839E+02  0.27754810250E+02  0.38771734893E+02  0.51100000000E-03 0. -1.
         12    1    4    4    0    0  0.51908896278E-01 -0.66056510987E+01 -0.10073663650E+01  0.66822232801E+01  0.00000000000E+00 0. -1.
</event>
<event>
 8    1  0.1253703E-006  0.9118800E+02  0.7816164E-02  0.1184000E+00
        -11   -1    0    0    0    0  0.00000000000E+00  0.00000000000E+00  0.45593999997E+02  0.45594000000E+02  0.51100000000E-03 0. -1.
         11   -1    0    0    0    0 -0.00000000000E+00 -0.00000000000E+00 -0.45593999997E+02  0.45594000000E+02  0.51100000000E-03 0.  1.
         23    2    1    2    0    0  0.00000000000E+00  0.00000000000E+00  0.35527136788E-14  0.91188000000E+02  0.91188000000E+02 0.  0.
    9900012    2    3    3    0    0 -0.17938989607E+02  0.11981169541E+02 -0.29839978862E+02  0.54367080536E+02  0.39999991698E+02 0.  0.
         12    1    3    3    0    0  0.17938989607E+02 -0.11981169541E+02  0.29839978862E+02  0.36820919464E+02  0.00000000000E+00 0. -1.
         11    1    4    4    0    0 -0.16527646242E+02 -0.45081648574E+01 -0.43650328199E+01  0.17678805177E+02  0.51100000000E-03 0. -1.
        -11    1    4    4    0    0 -0.75359045716E+01  0.25150524304E+01 -0.18048013290E+02  0.19719181789E+02  0.51100000000E-03 0.  1.
        -12    1    4    4    0    0  0.61245612070E+01  0.13974281968E+02 -0.74269327519E+01  0.16969093570E+02  0.00000000000E+00 0.  1.
</event>
<event>
 8    1  0.1253703E-006  0.9118800E+02  0.7816164E-02  0.1184000E+00
        -11   -1    0    0    0    0  0.00000000000E+00  0.00000000000E+00  0.45593999997E+02  0.45594000000E+02  0.51100000000E-03 0.  1.
         11   -1    0    0    0    0 -0.00000000000E+00 -0.00000000000E+00 -0.45593999997E+02  0.45594000000E+02  0.51100000000E-03 0. -1.
         23    2    1    2    0    0  0.35527136788E-14  0.00000000000E+00  0.00000000000E+00  0.91188000000E+02  0.91188000000E+02 0.  0.
    9900012    2    3    3    0    0  0.26603910257E+02 -0.23836657236E+01  0.25344220406E+02  0.54367090027E+02  0.40000013335E+02 0.  0.
         12    1    3    3    0    0 -0.26603910257E+02  0.23836657236E+01 -0.25344220406E+02  0.36820909973E+02  0.00000000000E+00 0. -1.
         11    1    4    4    0    0 -0.48341657104E+00 -0.65858167488E+01 -0.35393390187E+01  0.74922356330E+01  0.51100000000E-03 0. -1.
        -11    1    4    4    0    0  0.20710467703E+02 -0.27635931039E+01  0.30819704976E+02  0.37234595934E+02  0.51100000000E-03 0.  1.
         12    1    4    4    0    0  0.63768591254E+01  0.69657441290E+01 -0.19361455513E+01  0.96402584598E+01  0.00000000000E+00 0. -1.
</event>
<event>
 8    1  0.1253703E-006  0.9118800E+02  0.7816164E-02  0.1184000E+00
        -11   -1    0    0    0    0  0.00000000000E+00  0.00000000000E+00  0.45593999997E+02  0.45594000000E+02  0.51100000000E-03 0. -1.
         11   -1    0    0    0    0 -0.00000000000E+00 -0.00000000000E+00 -0.45593999997E+02  0.45594000000E+02  0.51100000000E-03 0.  1.
         23    2    1    2    0    0  0.44408920985E-15  0.00000000000E+00  0.00000000000E+00  0.91188000000E+02  0.91188000000E+02 0.  0.
    9900012    2    3    3    0    0  0.12504081802E+01  0.14273927567E+02  0.33918591161E+02  0.54367090789E+02  0.40000015071E+02 0.  0.
        -12    1    3    3    0    0 -0.12504081802E+01 -0.14273927567E+02 -0.33918591161E+02  0.36820909211E+02  0.00000000000E+00 0.  1.
         11    1    4    4    0    0 -0.44912922076E-01  0.78387267188E+01  0.25243239652E+02  0.26432343864E+02  0.51100000000E-03 0. -1.
        -11    1    4    4    0    0 -0.58353568539E+01  0.36459858000E+01 -0.74148922530E+01  0.10115593381E+02  0.51100000000E-03 0.  1.
        -12    1    4    4    0    0  0.71306779563E+01  0.27892150478E+01  0.16090243762E+02  0.17819153544E+02  0.00000000000E+00 0.  1.
</event>
<event>
 8    1  0.1253703E-006  0.9118800E+02  0.7816164E-02  0.1184000E+00
        -11   -1    0    0    0    0  0.00000000000E+00  0.00000000000E+00  0.45593999997E+02  0.45594000000E+02  0.51100000000E-03 0. -1.
         11   -1    0    0    0    0 -0.00000000000E+00 -0.00000000000E+00 -0.45593999997E+02  0.45594000000E+02  0.51100000000E-03 0.  1.
         23    2    1    2    0    0  0.00000000000E+00  0.00000000000E+00  0.00000000000E+00  0.91188000000E+02  0.91188000000E+02 0.  0.
    9900012    2    3    3    0    0 -0.16332646106E+02  0.44032975618E+01  0.32705240518E+02  0.54367121200E+02  0.40000084400E+02 0.  0.
        -12    1    3    3    0    0  0.16332646106E+02 -0.44032975618E+01 -0.32705240518E+02  0.36820878800E+02  0.00000000000E+00 0.  1.
         11    1    4    4    0    0 -0.12690664599E+02 -0.11613009981E+02  0.33285600061E+01  0.17521252260E+02  0.51100000000E-03 0. -1.
        -11    1    4    4    0    0 -0.85993183010E+01  0.69771848775E+01  0.10111432363E+02  0.14995681003E+02  0.51100000000E-03 0.  1.
        -12    1    4    4    0    0  0.49573367938E+01  0.90391226653E+01  0.19265248149E+02  0.21850187937E+02  0.00000000000E+00 0.  1.
</event>
<event>
 8    1  0.1253703E-006  0.9118800E+02  0.7816164E-02  0.1184000E+00
        -11   -1    0    0    0    0  0.00000000000E+00  0.00000000000E+00  0.45593999997E+02  0.45594000000E+02  0.51100000000E-03 0. -1.
         11   -1    0    0    0    0 -0.00000000000E+00 -0.00000000000E+00 -0.45593999997E+02  0.45594000000E+02  0.51100000000E-03 0.  1.
         23    2    1    2    0    0  0.00000000000E+00  0.35527136788E-14  0.16653345369E-15  0.91188000000E+02  0.91188000000E+02 0.  0.
    9900012    2    3    3    0    0 -0.21467989321E+02 -0.29914420383E+02  0.18539127442E+00  0.54367061904E+02  0.39999949224E+02 0.  0.
         12    1    3    3    0    0  0.21467989321E+02  0.29914420383E+02 -0.18539127442E+00  0.36820938096E+02  0.00000000000E+00 0. -1.
         11    1    4    4    0    0 -0.97166763728E+01 -0.28099626968E+02 -0.28900130035E+01  0.29872311777E+02  0.51100000000E-03 0.  1.
        -11    1    4    4    0    0 -0.14280523976E+02  0.64412744489E+01  0.19433003585E+01  0.15786063414E+02  0.51100000000E-03 0. -1.
         12    1    4    4    0    0  0.25292110282E+01 -0.82560678640E+01  0.11321039194E+01  0.87086867141E+01  0.00000000000E+00 0. -1.
</event>
<event>
 8    1  0.1253703E-006  0.9118800E+02  0.7816164E-02  0.1184000E+00
        -11   -1    0    0    0    0  0.00000000000E+00  0.00000000000E+00  0.45593999997E+02  0.45594000000E+02  0.51100000000E-03 0.  1.
         11   -1    0    0    0    0 -0.00000000000E+00 -0.00000000000E+00 -0.45593999997E+02  0.45594000000E+02  0.51100000000E-03 0. -1.
         23    2    1    2    0    0  0.00000000000E+00  0.35527136788E-14  0.35527136788E-14  0.91188000000E+02  0.91188000000E+02 0.  0.
    9900012    2    3    3    0    0 -0.22636126216E+02  0.16328461744E+02  0.24016010521E+02  0.54367059839E+02  0.39999944515E+02 0.  0.
         12    1    3    3    0    0  0.22636126216E+02 -0.16328461744E+02 -0.24016010521E+02  0.36820940161E+02  0.00000000000E+00 0. -1.
         11    1    4    4    0    0 -0.10382911238E+02 -0.29982487328E+01 -0.30314401365E+01  0.11224258140E+02  0.51100000000E-03 0. -1.
        -11    1    4    4    0    0 -0.10616056642E+02  0.17315141828E+02  0.31797639792E+02  0.37730686341E+02  0.51100000000E-03 0.  1.
         12    1    4    4    0    0 -0.16371583362E+01  0.20115686485E+01 -0.47501891339E+01  0.54121153585E+01  0.00000000000E+00 0. -1.
</event>
<event>
 8    1  0.1253703E-006  0.9118800E+02  0.7816164E-02  0.1184000E+00
        -11   -1    0    0    0    0  0.00000000000E+00  0.00000000000E+00  0.45593999997E+02  0.45594000000E+02  0.51100000000E-03 0. -1.
         11   -1    0    0    0    0 -0.00000000000E+00 -0.00000000000E+00 -0.45593999997E+02  0.45594000000E+02  0.51100000000E-03 0.  1.
         23    2    1    2    0    0 -0.17763568394E-14 -0.35527136788E-14  0.00000000000E+00  0.91188000000E+02  0.91188000000E+02 0.  0.
    9900012    2    3    3    0    0  0.15771727058E+02 -0.29854798000E+02  0.14687712197E+02  0.54367011045E+02  0.39999833279E+02 0.  0.
        -12    1    3    3    0    0 -0.15771727058E+02  0.29854798000E+02 -0.14687712197E+02  0.36820988955E+02  0.00000000000E+00 0.  1.
         11    1    4    4    0    0  0.20803688972E+02 -0.15226466482E+02  0.17473924696E+02  0.31144450563E+02  0.51100000000E-03 0. -1.
        -11    1    4    4    0    0 -0.23411646149E+01 -0.16169778872E+02  0.30434459529E+01  0.16619427308E+02  0.51100000000E-03 0.  1.
        -12    1    4    4    0    0 -0.26907972984E+01  0.15414473537E+01 -0.58296584520E+01  0.66031331739E+01  0.00000000000E+00 0.  1.
</event>
<event>
 8    1  0.1253703E-006  0.9118800E+02  0.7816164E-02  0.1184000E+00
        -11   -1    0    0    0    0  0.00000000000E+00  0.00000000000E+00  0.45593999997E+02  0.45594000000E+02  0.51100000000E-03 0.  1.
         11   -1    0    0    0    0 -0.00000000000E+00 -0.00000000000E+00 -0.45593999997E+02  0.45594000000E+02  0.51100000000E-03 0. -1.
         23    2    1    2    0    0  0.00000000000E+00 -0.88817841970E-15  0.00000000000E+00  0.91188000000E+02  0.91188000000E+02 0.  0.
    9900012    2    3    3    0    0  0.26486906222E+02 -0.52931449374E+01 -0.25024106945E+02  0.54367088647E+02  0.40000010188E+02 0.  0.
         12    1    3    3    0    0 -0.26486906222E+02  0.52931449374E+01  0.25024106945E+02  0.36820911353E+02  0.00000000000E+00 0. -1.
         11    1    4    4    0    0  0.11164441108E+02 -0.10117538897E+02  0.76503101472E-01  0.15067023315E+02  0.51100000000E-03 0. -1.
        -11    1    4    4    0    0  0.15914451347E+02  0.10840127212E+02 -0.74559749333E+01  0.20648721077E+02  0.51100000000E-03 0.  1.
         12    1    4    4    0    0 -0.59198623313E+00 -0.60157332527E+01 -0.17644635113E+02  0.18651344255E+02  0.00000000000E+00 0. -1.
</event>
<event>
 8    1  0.1253703E-006  0.9118800E+02  0.7816164E-02  0.1184000E+00
        -11   -1    0    0    0    0  0.00000000000E+00  0.00000000000E+00  0.45593999997E+02  0.45594000000E+02  0.51100000000E-03 0. -1.
         11   -1    0    0    0    0 -0.00000000000E+00 -0.00000000000E+00 -0.45593999997E+02  0.45594000000E+02  0.51100000000E-03 0.  1.
         23    2    1    2    0    0  0.00000000000E+00  0.00000000000E+00 -0.17763568394E-14  0.91188000000E+02  0.91188000000E+02 0.  0.
    9900012    2    3    3    0    0 -0.34977070564E+02 -0.58473304539E+01 -0.99091335143E+01  0.54367113731E+02  0.40000067372E+02 0.  0.
         12    1    3    3    0    0  0.34977070564E+02  0.58473304539E+01  0.99091335143E+01  0.36820886269E+02  0.00000000000E+00 0. -1.
         11    1    4    4    0    0 -0.11053864318E+02 -0.13257058935E+02  0.80545015615E+01  0.19047638269E+02  0.51100000000E-03 0. -1.
        -11    1    4    4    0    0 -0.92039403141E+01  0.11790786113E+02 -0.74703406207E+01  0.16719483955E+02  0.51100000000E-03 0.  1.
         12    1    4    4    0    0 -0.14719265932E+02 -0.43810576320E+01 -0.10493294455E+02  0.18599991507E+02  0.00000000000E+00 0. -1.
</event>
<event>
 8    1  0.1253703E-006  0.9118800E+02  0.7816164E-02  0.1184000E+00
        -11   -1    0    0    0    0  0.00000000000E+00  0.00000000000E+00  0.45593999997E+02  0.45594000000E+02  0.51100000000E-03 0. -1.
         11   -1    0    0    0    0 -0.00000000000E+00 -0.00000000000E+00 -0.45593999997E+02  0.45594000000E+02  0.51100000000E-03 0.  1.
         23    2    1    2    0    0 -0.71054273576E-14  0.00000000000E+00  0.88817841970E-15  0.91188000000E+02  0.91188000000E+02 0.  0.
    9900012    2    3    3    0    0 -0.35710616795E+02 -0.87887053020E+01 -0.18139839400E+01  0.54367081618E+02  0.39999994164E+02 0.  0.
         12    1    3    3    0    0  0.35710616795E+02  0.87887053020E+01  0.18139839400E+01  0.36820918382E+02  0.00000000000E+00 0. -1.
         11    1    4    4    0    0 -0.36183497428E+01  0.31729482116E+01  0.61164679771E+01  0.77827524688E+01  0.51100000000E-03 0. -1.
        -11    1    4    4    0    0  0.19450798623E+01 -0.11491471774E+02 -0.39777175731E+01  0.12315011025E+02  0.51100000000E-03 0.  1.
         12    1    4    4    0    0 -0.34037346915E+02 -0.47018173967E+00 -0.39527343439E+01  0.34269318124E+02  0.00000000000E+00 0. -1.
</event>
<event>
 8    1  0.1253703E-006  0.9118800E+02  0.7816164E-02  0.1184000E+00
        -11   -1    0    0    0    0  0.00000000000E+00  0.00000000000E+00  0.45593999997E+02  0.45594000000E+02  0.51100000000E-03 0. -1.
         11   -1    0    0    0    0 -0.00000000000E+00 -0.00000000000E+00 -0.45593999997E+02  0.45594000000E+02  0.51100000000E-03 0.  1.
         23    2    1    2    0    0  0.00000000000E+00 -0.35527136788E-14  0.18873791419E-14  0.91188000000E+02  0.91188000000E+02 0.  0.
    9900012    2    3    3    0    0  0.30248551899E+02 -0.20975651517E+02 -0.90975745804E+00  0.54367075145E+02  0.39999979409E+02 0.  0.
         12    1    3    3    0    0 -0.30248551899E+02  0.20975651517E+02  0.90975745804E+00  0.36820924855E+02  0.00000000000E+00 0. -1.
         11    1    4    4    0    0  0.13072835465E+02  0.54343886947E+00 -0.15273604595E+02  0.20111622273E+02  0.51100000000E-03 0. -1.
        -11    1    4    4    0    0  0.82732711394E+01 -0.31949486729E+01 -0.73322620622E+00  0.88990074334E+01  0.51100000000E-03 0.  1.
         12    1    4    4    0    0  0.89024452947E+01 -0.18324141713E+02  0.15097073343E+02  0.25356445438E+02  0.00000000000E+00 0. -1.
</event>
<event>
 8    1  0.1253703E-006  0.9118800E+02  0.7816164E-02  0.1184000E+00
        -11   -1    0    0    0    0  0.00000000000E+00  0.00000000000E+00  0.45593999997E+02  0.45594000000E+02  0.51100000000E-03 0. -1.
         11   -1    0    0    0    0 -0.00000000000E+00 -0.00000000000E+00 -0.45593999997E+02  0.45594000000E+02  0.51100000000E-03 0.  1.
         23    2    1    2    0    0 -0.71054273576E-14 -0.88817841970E-15  0.00000000000E+00  0.91188000000E+02  0.91188000000E+02 0.  0.
    9900012    2    3    3    0    0 -0.32085367559E+02 -0.59544396330E+01  0.17054406316E+02  0.54367096460E+02  0.40000027999E+02 0.  0.
        -12    1    3    3    0    0  0.32085367559E+02  0.59544396330E+01 -0.17054406316E+02  0.36820903540E+02  0.00000000000E+00 0.  1.
         11    1    4    4    0    0 -0.17141370098E+02 -0.10419674011E+02  0.11839644956E+02  0.23293204336E+02  0.51100000000E-03 0. -1.
        -11    1    4    4    0    0  0.19664801316E+01 -0.26056897006E+01  0.11299056611E+02  0.11761179511E+02  0.51100000000E-03 0.  1.
        -12    1    4    4    0    0 -0.16910477593E+02  0.70709240785E+01 -0.60842952510E+01  0.19312712612E+02  0.00000000000E+00 0.  1.
</event>
<event>
 8    1  0.1253703E-006  0.9118800E+02  0.7816164E-02  0.1184000E+00
        -11   -1    0    0    0    0  0.00000000000E+00  0.00000000000E+00  0.45593999997E+02  0.45594000000E+02  0.51100000000E-03 0. -1.
         11   -1    0    0    0    0 -0.00000000000E+00 -0.00000000000E+00 -0.45593999997E+02  0.45594000000E+02  0.51100000000E-03 0.  1.
         23    2    1    2    0    0  0.00000000000E+00 -0.17763568394E-14  0.35527136788E-14  0.91188000000E+02  0.91188000000E+02 0.  0.
    9900012    2    3    3    0    0 -0.22162124427E+02 -0.15112821944E+02  0.25223472978E+02  0.54367072047E+02  0.39999972346E+02 0.  0.
        -12    1    3    3    0    0  0.22162124427E+02  0.15112821944E+02 -0.25223472978E+02  0.36820927953E+02  0.00000000000E+00 0.  1.
         11    1    4    4    0    0  0.62172261117E+01 -0.25231636004E+01  0.69632989147E+01  0.96699424566E+01  0.51100000000E-03 0. -1.
        -11    1    4    4    0    0 -0.29025422048E+02 -0.13483469640E+02  0.62158159541E+01  0.32602384066E+02  0.51100000000E-03 0.  1.
        -12    1    4    4    0    0  0.64607150848E+00  0.89381129646E+00  0.12044358109E+02  0.12094745524E+02  0.00000000000E+00 0.  1.
</event>
<event>
 8    1  0.1253703E-006  0.9118800E+02  0.7816164E-02  0.1184000E+00
        -11   -1    0    0    0    0  0.00000000000E+00  0.00000000000E+00  0.45593999997E+02  0.45594000000E+02  0.51100000000E-03 0. -1.
         11   -1    0    0    0    0 -0.00000000000E+00 -0.00000000000E+00 -0.45593999997E+02  0.45594000000E+02  0.51100000000E-03 0.  1.
         23    2    1    2    0    0  0.00000000000E+00  0.00000000000E+00  0.00000000000E+00  0.91188000000E+02  0.91188000000E+02 0.  0.
    9900012    2    3    3    0    0 -0.14209718132E+01 -0.91922127964E+01 -0.35626756650E+02  0.54367058589E+02  0.39999941664E+02 0.  0.
         12    1    3    3    0    0  0.14209718132E+01  0.91922127964E+01  0.35626756650E+02  0.36820941411E+02  0.00000000000E+00 0. -1.
         11    1    4    4    0    0  0.88519238562E+01 -0.15120381633E+02 -0.18743987923E+02  0.25657739187E+02  0.51100000000E-03 0. -1.
        -11    1    4    4    0    0 -0.98478307859E+01 -0.15787209526E+01 -0.18501156142E+02  0.21018204250E+02  0.51100000000E-03 0.  1.
         12    1    4    4    0    0 -0.42506488345E+00  0.75068897890E+01  0.16183874141E+01  0.76911151520E+01  0.00000000000E+00 0. -1.
</event>
<event>
 8    1  0.1253703E-006  0.9118800E+02  0.7816164E-02  0.1184000E+00
        -11   -1    0    0    0    0  0.00000000000E+00  0.00000000000E+00  0.45593999997E+02  0.45594000000E+02  0.51100000000E-03 0.  1.
         11   -1    0    0    0    0 -0.00000000000E+00 -0.00000000000E+00 -0.45593999997E+02  0.45594000000E+02  0.51100000000E-03 0. -1.
         23    2    1    2    0    0  0.35527136788E-14  0.17763568394E-14 -0.35527136788E-14  0.91188000000E+02  0.91188000000E+02 0.  0.
    9900012    2    3    3    0    0 -0.24091452290E+02  0.13562442894E+02 -0.24319631302E+02  0.54367049478E+02  0.39999920895E+02 0.  0.
        -12    1    3    3    0    0  0.24091452290E+02 -0.13562442894E+02  0.24319631302E+02  0.36820950522E+02  0.00000000000E+00 0.  1.
         11    1    4    4    0    0 -0.25697675155E+02  0.11514401320E+02 -0.23205437784E+02  0.36488961196E+02  0.51100000000E-03 0. -1.
        -11    1    4    4    0    0 -0.37985597585E+01 -0.70417163348E+00 -0.78895158526E+01  0.87846100982E+01  0.51100000000E-03 0.  1.
        -12    1    4    4    0    0  0.54047826234E+01  0.27522132072E+01  0.67753223346E+01  0.90934781840E+01  0.00000000000E+00 0.  1.
</event>
<event>
 8    1  0.1253703E-006  0.9118800E+02  0.7816164E-02  0.1184000E+00
        -11   -1    0    0    0    0  0.00000000000E+00  0.00000000000E+00  0.45593999997E+02  0.45594000000E+02  0.51100000000E-03 0.  1.
         11   -1    0    0    0    0 -0.00000000000E+00 -0.00000000000E+00 -0.45593999997E+02  0.45594000000E+02  0.51100000000E-03 0. -1.
         23    2    1    2    0    0 -0.35527136788E-14  0.00000000000E+00  0.00000000000E+00  0.91188000000E+02  0.91188000000E+02 0.  0.
    9900012    2    3    3    0    0 -0.25744862722E+02  0.13903721034E+02  0.22353275716E+02  0.54367077274E+02  0.39999984261E+02 0.  0.
         12    1    3    3    0    0  0.25744862722E+02 -0.13903721034E+02 -0.22353275716E+02  0.36820922726E+02  0.00000000000E+00 0. -1.
         11    1    4    4    0    0 -0.14864248861E+02  0.41546090089E+01 -0.48089346733E+00  0.15441435458E+02  0.51100000000E-03 0. -1.
        -11    1    4    4    0    0 -0.17695988064E+02  0.22044783850E+01  0.52085861781E+01  0.18577865559E+02  0.51100000000E-03 0.  1.
         12    1    4    4    0    0  0.68153742027E+01  0.75446336405E+01  0.17625583005E+02  0.20347776256E+02  0.00000000000E+00 0. -1.
</event>
<event>
 8    1  0.1253703E-006  0.9118800E+02  0.7816164E-02  0.1184000E+00
        -11   -1    0    0    0    0  0.00000000000E+00  0.00000000000E+00  0.45593999997E+02  0.45594000000E+02  0.51100000000E-03 0.  1.
         11   -1    0    0    0    0 -0.00000000000E+00 -0.00000000000E+00 -0.45593999997E+02  0.45594000000E+02  0.51100000000E-03 0. -1.
         23    2    1    2    0    0  0.00000000000E+00 -0.71054273576E-14  0.00000000000E+00  0.91188000000E+02  0.91188000000E+02 0.  0.
    9900012    2    3    3    0    0 -0.55246895836E+01  0.35669361378E+02 -0.72771565293E+01  0.54367047497E+02  0.39999916378E+02 0.  0.
        -12    1    3    3    0    0  0.55246895836E+01 -0.35669361378E+02  0.72771565293E+01  0.36820952503E+02  0.00000000000E+00 0.  1.
         11    1    4    4    0    0  0.13265376715E+02  0.18710358234E+02  0.13599023125E+01  0.22976010515E+02  0.51100000000E-03 0. -1.
        -11    1    4    4    0    0  0.26477107478E+01  0.47697098679E+01 -0.23596711093E+01  0.59437826704E+01  0.51100000000E-03 0.  1.
        -12    1    4    4    0    0 -0.21437777046E+02  0.12189293276E+02 -0.62773877326E+01  0.25447254312E+02  0.00000000000E+00 0.  1.
</event>
<event>
 8    1  0.1253703E-006  0.9118800E+02  0.7816164E-02  0.1184000E+00
        -11   -1    0    0    0    0  0.00000000000E+00  0.00000000000E+00  0.45593999997E+02  0.45594000000E+02  0.51100000000E-03 0. -1.
         11   -1    0    0    0    0 -0.00000000000E+00 -0.00000000000E+00 -0.45593999997E+02  0.45594000000E+02  0.51100000000E-03 0.  1.
         23    2    1    2    0    0  0.00000000000E+00  0.44408920985E-15  0.35527136788E-14  0.91188000000E+02  0.91188000000E+02 0.  0.
    9900012    2    3    3    0    0 -0.20726294102E+02  0.35398568292E+01  0.30226946756E+02  0.54367106967E+02  0.40000051953E+02 0.  0.
        -12    1    3    3    0    0  0.20726294102E+02 -0.35398568292E+01 -0.30226946756E+02  0.36820893033E+02  0.00000000000E+00 0.  1.
         11    1    4    4    0    0 -0.86047288685E+01  0.11295730331E+02  0.14672304987E+02  0.20418408765E+02  0.51100000000E-03 0. -1.
        -11    1    4    4    0    0 -0.16426422699E+02 -0.14052044164E+02  0.75633415386E+01  0.22901778171E+02  0.51100000000E-03 0.  1.
         12    1    4    4    0    0  0.43048574660E+01  0.62961706630E+01  0.79913002301E+01  0.11046920032E+02  0.00000000000E+00 0. -1.
</event>
<event>
 8    1  0.1253703E-006  0.9118800E+02  0.7816164E-02  0.1184000E+00
        -11   -1    0    0    0    0  0.00000000000E+00  0.00000000000E+00  0.45593999997E+02  0.45594000000E+02  0.51100000000E-03 0. -1.
         11   -1    0    0    0    0 -0.00000000000E+00 -0.00000000000E+00 -0.45593999997E+02  0.45594000000E+02  0.51100000000E-03 0.  1.
         23    2    1    2    0    0  0.35527136788E-14 -0.17763568394E-14  0.00000000000E+00  0.91188000000E+02  0.91188000000E+02 0.  0.
    9900012    2    3    3    0    0  0.29387967906E+02  0.11636611232E+02  0.18886920005E+02  0.54367093902E+02  0.40000022168E+02 0.  0.
        -12    1    3    3    0    0 -0.29387967906E+02 -0.11636611232E+02 -0.18886920005E+02  0.36820906098E+02  0.00000000000E+00 0.  1.
         11    1    4    4    0    0 -0.22831740540E+01 -0.44600369031E+01  0.64754961853E+01  0.81876042921E+01  0.51100000000E-03 0.  1.
        -11    1    4    4    0    0  0.36473977789E+02  0.12913781019E+02  0.11328023284E+02  0.40316757158E+02  0.51100000000E-03 0. -1.
         12    1    4    4    0    0 -0.48028358289E+01  0.31828671155E+01  0.10834005362E+01  0.58627324514E+01  0.00000000000E+00 0. -1.
</event>
<event>
 8    1  0.1253703E-006  0.9118800E+02  0.7816164E-02  0.1184000E+00
        -11   -1    0    0    0    0  0.00000000000E+00  0.00000000000E+00  0.45593999997E+02  0.45594000000E+02  0.51100000000E-03 0.  1.
         11   -1    0    0    0    0 -0.00000000000E+00 -0.00000000000E+00 -0.45593999997E+02  0.45594000000E+02  0.51100000000E-03 0. -1.
         23    2    1    2    0    0  0.35527136788E-14  0.00000000000E+00  0.00000000000E+00  0.91188000000E+02  0.91188000000E+02 0.  0.
    9900012    2    3    3    0    0 -0.19598529844E+02  0.22827058761E+02 -0.21227833206E+02  0.54366839151E+02  0.39999441408E+02 0.  0.
        -12    1    3    3    0    0  0.19598529844E+02 -0.22827058761E+02  0.21227833206E+02  0.36821160849E+02  0.00000000000E+00 0.  1.
         11    1    4    4    0    0 -0.76889083097E+01  0.15700437203E+02 -0.14794067486E+02  0.22901691475E+02  0.51100000000E-03 0. -1.
        -11    1    4    4    0    0  0.42920375413E+01 -0.39266770298E+01 -0.99631803725E+01  0.11537128852E+02  0.51100000000E-03 0.  1.
        -12    1    4    4    0    0 -0.16201659075E+02  0.11053298587E+02  0.35294146528E+01  0.19928018824E+02  0.00000000000E+00 0.  1.
</event>
<event>
 8    1  0.1253703E-006  0.9118800E+02  0.7816164E-02  0.1184000E+00
        -11   -1    0    0    0    0  0.00000000000E+00  0.00000000000E+00  0.45593999997E+02  0.45594000000E+02  0.51100000000E-03 0.  1.
         11   -1    0    0    0    0 -0.00000000000E+00 -0.00000000000E+00 -0.45593999997E+02  0.45594000000E+02  0.51100000000E-03 0. -1.
         23    2    1    2    0    0  0.00000000000E+00  0.00000000000E+00  0.00000000000E+00  0.91188000000E+02  0.91188000000E+02 0.  0.
    9900012    2    3    3    0    0  0.28965980072E+02  0.22363800987E+02 -0.40757562298E+01  0.54367090384E+02  0.40000014148E+02 0.  0.
        -12    1    3    3    0    0 -0.28965980072E+02 -0.22363800987E+02  0.40757562298E+01  0.36820909616E+02  0.00000000000E+00 0.  1.
         11    1    4    4    0    0  0.16612951577E+02  0.18707783436E+02  0.44271481889E+00  0.25023335466E+02  0.51100000000E-03 0. -1.
        -11    1    4    4    0    0  0.15742078741E+02  0.82987181813E+01  0.47671280735E+01  0.18423009441E+02  0.51100000000E-03 0.  1.
         12    1    4    4    0    0 -0.33890502462E+01 -0.46427006300E+01 -0.92855991222E+01  0.10920745477E+02  0.00000000000E+00 0. -1.
</event>
<event>
 8    1  0.1253703E-006  0.9118800E+02  0.7816164E-02  0.1184000E+00
        -11   -1    0    0    0    0  0.00000000000E+00  0.00000000000E+00  0.45593999997E+02  0.45594000000E+02  0.51100000000E-03 0. -1.
         11   -1    0    0    0    0 -0.00000000000E+00 -0.00000000000E+00 -0.45593999997E+02  0.45594000000E+02  0.51100000000E-03 0.  1.
         23    2    1    2    0    0  0.00000000000E+00  0.35527136788E-14  0.00000000000E+00  0.91188000000E+02  0.91188000000E+02 0.  0.
    9900012    2    3    3    0    0 -0.10595192307E+02 -0.11273441615E+02 -0.33413036648E+02  0.54367087410E+02  0.40000007370E+02 0.  0.
         12    1    3    3    0    0  0.10595192307E+02  0.11273441615E+02  0.33413036648E+02  0.36820912590E+02  0.00000000000E+00 0. -1.
         11    1    4    4    0    0 -0.12021002723E+02  0.42624991625E+01 -0.35249460083E+01  0.13232484657E+02  0.51100000000E-03 0. -1.
        -11    1    4    4    0    0  0.26485812117E+01  0.42926855675E+01  0.23602377629E+00  0.50495385235E+01  0.51100000000E-03 0.  1.
        -12    1    4    4    0    0 -0.12227707962E+01 -0.19828626345E+02 -0.30124114416E+02  0.36085064230E+02  0.00000000000E+00 0.  1.
</event>
<event>
 8    1  0.1253703E-006  0.9118800E+02  0.7816164E-02  0.1184000E+00
        -11   -1    0    0    0    0  0.00000000000E+00  0.00000000000E+00  0.45593999997E+02  0.45594000000E+02  0.51100000000E-03 0. -1.
         11   -1    0    0    0    0 -0.00000000000E+00 -0.00000000000E+00 -0.45593999997E+02  0.45594000000E+02  0.51100000000E-03 0.  1.
         23    2    1    2    0    0 -0.35527136788E-14  0.00000000000E+00  0.88817841970E-15  0.91188000000E+02  0.91188000000E+02 0.  0.
    9900012    2    3    3    0    0  0.29468049005E+02  0.21309810407E+02  0.57711061811E+01  0.54367087487E+02  0.40000007544E+02 0.  0.
         12    1    3    3    0    0 -0.29468049005E+02 -0.21309810407E+02 -0.57711061811E+01  0.36820912513E+02  0.00000000000E+00 0. -1.
         11    1    4    4    0    0 -0.22074187916E+01  0.12326037097E+02  0.11838628056E+02  0.17232440418E+02  0.51100000000E-03 0. -1.
        -11    1    4    4    0    0  0.32653276483E+02  0.56244128008E+01 -0.56201416758E+01  0.33607387240E+02  0.51100000000E-03 0.  1.
         12    1    4    4    0    0 -0.97780868610E+00  0.33593605086E+01 -0.44738019952E+00  0.35272598283E+01  0.00000000000E+00 0. -1.
</event>
<event>
 8    1  0.1253703E-006  0.9118800E+02  0.7816164E-02  0.1184000E+00
        -11   -1    0    0    0    0  0.00000000000E+00  0.00000000000E+00  0.45593999997E+02  0.45594000000E+02  0.51100000000E-03 0.  1.
         11   -1    0    0    0    0 -0.00000000000E+00 -0.00000000000E+00 -0.45593999997E+02  0.45594000000E+02  0.51100000000E-03 0. -1.
         23    2    1    2    0    0  0.00000000000E+00  0.00000000000E+00  0.35527136788E-14  0.91188000000E+02  0.91188000000E+02 0.  0.
    9900012    2    3    3    0    0  0.11811924996E+02  0.24409972684E+02 -0.24908064666E+02  0.54367081707E+02  0.39999994367E+02 0.  0.
         12    1    3    3    0    0 -0.11811924996E+02 -0.24409972684E+02  0.24908064666E+02  0.36820918293E+02  0.00000000000E+00 0. -1.
         11    1    4    4    0    0  0.29388797636E+01  0.27613921547E+01 -0.86329226533E+01  0.95283605461E+01  0.51100000000E-03 0. -1.
        -11    1    4    4    0    0  0.56783495796E+01  0.23263166276E+02 -0.25477572734E+02  0.34964628867E+02  0.51100000000E-03 0.  1.
        -12    1    4    4    0    0  0.31946956525E+01 -0.16145857468E+01  0.92024307212E+01  0.98740922937E+01  0.00000000000E+00 0.  1.
</event>
<event>
 8    1  0.1253703E-006  0.9118800E+02  0.7816164E-02  0.1184000E+00
        -11   -1    0    0    0    0  0.00000000000E+00  0.00000000000E+00  0.45593999997E+02  0.45594000000E+02  0.51100000000E-03 0.  1.
         11   -1    0    0    0    0 -0.00000000000E+00 -0.00000000000E+00 -0.45593999997E+02  0.45594000000E+02  0.51100000000E-03 0. -1.
         23    2    1    2    0    0  0.00000000000E+00  0.00000000000E+00  0.00000000000E+00  0.91188000000E+02  0.91188000000E+02 0.  0.
    9900012    2    3    3    0    0 -0.17850604296E+02 -0.24809810307E+02 -0.20533105447E+02  0.54367093160E+02  0.40000020478E+02 0.  0.
        -12    1    3    3    0    0  0.17850604296E+02  0.24809810307E+02  0.20533105447E+02  0.36820906840E+02  0.00000000000E+00 0.  1.
         11    1    4    4    0    0 -0.16118985767E+02 -0.23716315172E+02 -0.91929148051E+01  0.30113036884E+02  0.51100000000E-03 0.  1.
        -11    1    4    4    0    0  0.38535785936E+00  0.98904335754E+01 -0.31393397718E+01  0.10383863994E+02  0.51100000000E-03 0. -1.
         12    1    4    4    0    0 -0.21169763880E+01 -0.10983928710E+02 -0.82008508702E+01  0.13870192282E+02  0.00000000000E+00 0. -1.
</event>
<event>
 8    1  0.1253703E-006  0.9118800E+02  0.7816164E-02  0.1184000E+00
        -11   -1    0    0    0    0  0.00000000000E+00  0.00000000000E+00  0.45593999997E+02  0.45594000000E+02  0.51100000000E-03 0.  1.
         11   -1    0    0    0    0 -0.00000000000E+00 -0.00000000000E+00 -0.45593999997E+02  0.45594000000E+02  0.51100000000E-03 0. -1.
         23    2    1    2    0    0  0.17763568394E-14  0.44408920985E-15 -0.71054273576E-14  0.91188000000E+02  0.91188000000E+02 0.  0.
    9900012    2    3    3    0    0 -0.14463268395E+02  0.19993332305E+01  0.33802307708E+02  0.54367089196E+02  0.40000011441E+02 0.  0.
         12    1    3    3    0    0  0.14463268395E+02 -0.19993332305E+01 -0.33802307708E+02  0.36820910804E+02  0.00000000000E+00 0. -1.
         11    1    4    4    0    0 -0.10882517869E+02  0.42773486621E+01  0.96827607704E+01  0.15181592905E+02  0.51100000000E-03 0. -1.
        -11    1    4    4    0    0  0.73648556044E+01 -0.27748042243E+01 -0.41281677623E+01  0.88872046163E+01  0.51100000000E-03 0.  1.
        -12    1    4    4    0    0 -0.10945606130E+02  0.49678879274E+00  0.28247714700E+02  0.30298291675E+02  0.00000000000E+00 0.  1.
</event>
<event>
 8    1  0.1253703E-006  0.9118800E+02  0.7816164E-02  0.1184000E+00
        -11   -1    0    0    0    0  0.00000000000E+00  0.00000000000E+00  0.45593999997E+02  0.45594000000E+02  0.51100000000E-03 0. -1.
         11   -1    0    0    0    0 -0.00000000000E+00 -0.00000000000E+00 -0.45593999997E+02  0.45594000000E+02  0.51100000000E-03 0.  1.
         23    2    1    2    0    0  0.00000000000E+00 -0.35527136788E-14 -0.35527136788E-14  0.91188000000E+02  0.91188000000E+02 0.  0.
    9900012    2    3    3    0    0 -0.36387529148E+01 -0.22819409215E+02 -0.28667246472E+02  0.54367123042E+02  0.40000088598E+02 0.  0.
         12    1    3    3    0    0  0.36387529148E+01  0.22819409215E+02  0.28667246472E+02  0.36820876958E+02  0.00000000000E+00 0. -1.
         11    1    4    4    0    0  0.32181784613E+01  0.92051251279E+01 -0.12058797964E+02  0.15508243286E+02  0.51100000000E-03 0. -1.
        -11    1    4    4    0    0 -0.38330288260E+01 -0.20110265763E+02 -0.16925310461E+02  0.26562775335E+02  0.51100000000E-03 0.  1.
         12    1    4    4    0    0 -0.30239025501E+01 -0.11914268579E+02  0.31686195282E+00  0.12296104420E+02  0.00000000000E+00 0. -1.
</event>
<event>
 8    1  0.1253703E-006  0.9118800E+02  0.7816164E-02  0.1184000E+00
        -11   -1    0    0    0    0  0.00000000000E+00  0.00000000000E+00  0.45593999997E+02  0.45594000000E+02  0.51100000000E-03 0. -1.
         11   -1    0    0    0    0 -0.00000000000E+00 -0.00000000000E+00 -0.45593999997E+02  0.45594000000E+02  0.51100000000E-03 0.  1.
         23    2    1    2    0    0  0.00000000000E+00  0.00000000000E+00  0.00000000000E+00  0.91188000000E+02  0.91188000000E+02 0.  0.
    9900012    2    3    3    0    0 -0.17001834060E+02 -0.19733417387E+02  0.26025190928E+02  0.54367072717E+02  0.39999973872E+02 0.  0.
        -12    1    3    3    0    0  0.17001834060E+02  0.19733417387E+02 -0.26025190928E+02  0.36820927283E+02  0.00000000000E+00 0.  1.
         11    1    4    4    0    0 -0.15010581379E+01 -0.12517762121E+02  0.37320827357E+01  0.13148231283E+02  0.51100000000E-03 0. -1.
        -11    1    4    4    0    0 -0.66362571690E+01  0.87287127266E+01  0.20031667233E+02  0.22836331305E+02  0.51100000000E-03 0.  1.
        -12    1    4    4    0    0 -0.88645187533E+01 -0.15944367993E+02  0.22614409586E+01  0.18382510129E+02  0.00000000000E+00 0.  1.
</event>
<event>
 8    1  0.1253703E-006  0.9118800E+02  0.7816164E-02  0.1184000E+00
        -11   -1    0    0    0    0  0.00000000000E+00  0.00000000000E+00  0.45593999997E+02  0.45594000000E+02  0.51100000000E-03 0. -1.
         11   -1    0    0    0    0 -0.00000000000E+00 -0.00000000000E+00 -0.45593999997E+02  0.45594000000E+02  0.51100000000E-03 0.  1.
         23    2    1    2    0    0  0.35527136788E-14 -0.35527136788E-14  0.00000000000E+00  0.91188000000E+02  0.91188000000E+02 0.  0.
    9900012    2    3    3    0    0  0.19850289591E+02 -0.24957528230E+02  0.18408372132E+02  0.54367076916E+02  0.39999983446E+02 0.  0.
        -12    1    3    3    0    0 -0.19850289591E+02  0.24957528230E+02 -0.18408372132E+02  0.36820923084E+02  0.00000000000E+00 0.  1.
         11    1    4    4    0    0  0.15344222415E+02 -0.11637170937E+02  0.19221100102E+02  0.27208814717E+02  0.51100000000E-03 0. -1.
        -11    1    4    4    0    0  0.10949272112E+02 -0.99243861935E+01 -0.81027419449E+01  0.16853320990E+02  0.51100000000E-03 0.  1.
        -12    1    4    4    0    0 -0.64432049362E+01 -0.33959710997E+01  0.72900139753E+01  0.10304941209E+02  0.00000000000E+00 0.  1.
</event>
<event>
 8    1  0.1253703E-006  0.9118800E+02  0.7816164E-02  0.1184000E+00
        -11   -1    0    0    0    0  0.00000000000E+00  0.00000000000E+00  0.45593999997E+02  0.45594000000E+02  0.51100000000E-03 0. -1.
         11   -1    0    0    0    0 -0.00000000000E+00 -0.00000000000E+00 -0.45593999997E+02  0.45594000000E+02  0.51100000000E-03 0.  1.
         23    2    1    2    0    0 -0.35527136788E-14  0.00000000000E+00  0.00000000000E+00  0.91188000000E+02  0.91188000000E+02 0.  0.
    9900012    2    3    3    0    0 -0.17574606177E+02  0.21413624216E+02 -0.24256404249E+02  0.54367038152E+02  0.39999895074E+02 0.  0.
         12    1    3    3    0    0  0.17574606177E+02 -0.21413624216E+02  0.24256404249E+02  0.36820961848E+02  0.00000000000E+00 0. -1.
         11    1    4    4    0    0  0.63494145290E+01  0.16243422389E+02 -0.12535212697E+02  0.21477788373E+02  0.51100000000E-03 0. -1.
        -11    1    4    4    0    0 -0.24234508807E+02  0.87096331796E+01 -0.64758514989E+01  0.26553827975E+02  0.51100000000E-03 0.  1.
        -12    1    4    4    0    0  0.31048810046E+00 -0.35394313526E+01 -0.52453400531E+01  0.63354218039E+01  0.00000000000E+00 0.  1.
</event>
<event>
 8    1  0.1253703E-006  0.9118800E+02  0.7816164E-02  0.1184000E+00
        -11   -1    0    0    0    0  0.00000000000E+00  0.00000000000E+00  0.45593999997E+02  0.45594000000E+02  0.51100000000E-03 0.  1.
         11   -1    0    0    0    0 -0.00000000000E+00 -0.00000000000E+00 -0.45593999997E+02  0.45594000000E+02  0.51100000000E-03 0. -1.
         23    2    1    2    0    0 -0.88817841970E-15  0.00000000000E+00  0.00000000000E+00  0.91188000000E+02  0.91188000000E+02 0.  0.
    9900012    2    3    3    0    0 -0.45815552682E+01 -0.30985154751E+02 -0.19357410462E+02  0.54367084702E+02  0.40000001194E+02 0.  0.
        -12    1    3    3    0    0  0.45815552682E+01  0.30985154751E+02  0.19357410462E+02  0.36820915298E+02  0.00000000000E+00 0.  1.
         11    1    4    4    0    0 -0.62897550310E+01 -0.10770079724E+02 -0.84504849985E+01  0.15065401839E+02  0.51100000000E-03 0. -1.
        -11    1    4    4    0    0 -0.64428934783E+00 -0.20679703991E+02 -0.20671599872E+02  0.29246885431E+02  0.51100000000E-03 0.  1.
        -12    1    4    4    0    0  0.23524891106E+01  0.46462896398E+00  0.97646744078E+01  0.10054797431E+02  0.00000000000E+00 0.  1.
</event>
<event>
 8    1  0.1253703E-006  0.9118800E+02  0.7816164E-02  0.1184000E+00
        -11   -1    0    0    0    0  0.00000000000E+00  0.00000000000E+00  0.45593999997E+02  0.45594000000E+02  0.51100000000E-03 0.  1.
         11   -1    0    0    0    0 -0.00000000000E+00 -0.00000000000E+00 -0.45593999997E+02  0.45594000000E+02  0.51100000000E-03 0. -1.
         23    2    1    2    0    0  0.00000000000E+00  0.00000000000E+00 -0.53290705182E-14  0.91188000000E+02  0.91188000000E+02 0.  0.
    9900012    2    3    3    0    0 -0.32294845445E+02 -0.13495878659E+02 -0.11431753214E+02  0.54367071649E+02  0.39999971437E+02 0.  0.
         12    1    3    3    0    0  0.32294845445E+02  0.13495878659E+02  0.11431753214E+02  0.36820928351E+02  0.00000000000E+00 0. -1.
         11    1    4    4    0    0 -0.36161229789E+01 -0.12353280462E+02  0.86266966616E+01  0.15495153407E+02  0.51100000000E-03 0. -1.
        -11    1    4    4    0    0 -0.51073650478E+01 -0.16327421226E+01  0.27866209205E+01  0.60428702606E+01  0.51100000000E-03 0.  1.
        -12    1    4    4    0    0 -0.23571357418E+02  0.49014392572E+00 -0.22845070797E+02  0.32829047981E+02  0.00000000000E+00 0.  1.
</event>
<event>
 8    1  0.1253703E-006  0.9118800E+02  0.7816164E-02  0.1184000E+00
        -11   -1    0    0    0    0  0.00000000000E+00  0.00000000000E+00  0.45593999997E+02  0.45594000000E+02  0.51100000000E-03 0.  1.
         11   -1    0    0    0    0 -0.00000000000E+00 -0.00000000000E+00 -0.45593999997E+02  0.45594000000E+02  0.51100000000E-03 0. -1.
         23    2    1    2    0    0 -0.35527136788E-14  0.00000000000E+00 -0.18873791419E-14  0.91188000000E+02  0.91188000000E+02 0.  0.
    9900012    2    3    3    0    0 -0.85722146544E+01 -0.35807079496E+02 -0.38742240850E+00  0.54367083359E+02  0.39999998134E+02 0.  0.
         12    1    3    3    0    0  0.85722146544E+01  0.35807079496E+02  0.38742240850E+00  0.36820916641E+02  0.00000000000E+00 0. -1.
         11    1    4    4    0    0  0.61092347922E+01 -0.16693391191E+02 -0.21903942541E+01  0.17910608210E+02  0.51100000000E-03 0. -1.
        -11    1    4    4    0    0  0.26122886460E+01 -0.67506720718E+01  0.11101960753E+02  0.13253269718E+02  0.51100000000E-03 0.  1.
        -12    1    4    4    0    0 -0.17293738093E+02 -0.12363016234E+02 -0.92989889071E+01  0.23203205432E+02  0.00000000000E+00 0.  1.
</event>
<event>
 8    1  0.1253703E-006  0.9118800E+02  0.7816164E-02  0.1184000E+00
        -11   -1    0    0    0    0  0.00000000000E+00  0.00000000000E+00  0.45593999997E+02  0.45594000000E+02  0.51100000000E-03 0.  1.
         11   -1    0    0    0    0 -0.00000000000E+00 -0.00000000000E+00 -0.45593999997E+02  0.45594000000E+02  0.51100000000E-03 0. -1.
         23    2    1    2    0    0  0.00000000000E+00 -0.35527136788E-14  0.00000000000E+00  0.91188000000E+02  0.91188000000E+02 0.  0.
    9900012    2    3    3    0    0  0.21945676205E+02 -0.23292274471E+02  0.18210901214E+02  0.54367086416E+02  0.40000005103E+02 0.  0.
        -12    1    3    3    0    0 -0.21945676205E+02  0.23292274471E+02 -0.18210901214E+02  0.36820913584E+02  0.00000000000E+00 0.  1.
         11    1    4    4    0    0  0.13370734309E+02  0.25823106188E+01  0.10127692426E+02  0.16971005221E+02  0.51100000000E-03 0. -1.
        -11    1    4    4    0    0 -0.16828852963E+01 -0.18965163818E+02  0.14051650454E+02  0.23663440627E+02  0.51100000000E-03 0.  1.
         12    1    4    4    0    0  0.10257827193E+02 -0.69094212722E+01 -0.59684416666E+01  0.13732640568E+02  0.00000000000E+00 0. -1.
</event>
<event>
 8    1  0.1253703E-006  0.9118800E+02  0.7816164E-02  0.1184000E+00
        -11   -1    0    0    0    0  0.00000000000E+00  0.00000000000E+00  0.45593999997E+02  0.45594000000E+02  0.51100000000E-03 0.  1.
         11   -1    0    0    0    0 -0.00000000000E+00 -0.00000000000E+00 -0.45593999997E+02  0.45594000000E+02  0.51100000000E-03 0. -1.
         23    2    1    2    0    0  0.00000000000E+00 -0.71054273576E-14  0.44408920985E-15  0.91188000000E+02  0.91188000000E+02 0.  0.
    9900012    2    3    3    0    0 -0.23438637854E+01 -0.36618802287E+02 -0.30575762855E+01  0.54367093559E+02  0.40000021387E+02 0.  0.
         12    1    3    3    0    0  0.23438637854E+01  0.36618802287E+02  0.30575762855E+01  0.36820906441E+02  0.00000000000E+00 0. -1.
         11    1    4    4    0    0  0.17486290716E+01 -0.31830823925E+01  0.80176391211E+01  0.88018324504E+01  0.51100000000E-03 0. -1.
        -11    1    4    4    0    0 -0.81212945639E+00 -0.35675659126E+02 -0.20956711708E+01  0.35746385079E+02  0.51100000000E-03 0.  1.
         12    1    4    4    0    0 -0.32803634006E+01  0.22399392312E+01 -0.89795442359E+01  0.98188760295E+01  0.00000000000E+00 0. -1.
</event>
<event>
 8    1  0.1253703E-006  0.9118800E+02  0.7816164E-02  0.1184000E+00
        -11   -1    0    0    0    0  0.00000000000E+00  0.00000000000E+00  0.45593999997E+02  0.45594000000E+02  0.51100000000E-03 0.  1.
         11   -1    0    0    0    0 -0.00000000000E+00 -0.00000000000E+00 -0.45593999997E+02  0.45594000000E+02  0.51100000000E-03 0. -1.
         23    2    1    2    0    0  0.00000000000E+00  0.00000000000E+00  0.88817841970E-15  0.91188000000E+02  0.91188000000E+02 0.  0.
    9900012    2    3    3    0    0 -0.29358911312E+02 -0.20903638991E+02  0.75412775681E+01  0.54367100176E+02  0.40000036471E+02 0.  0.
         12    1    3    3    0    0  0.29358911312E+02  0.20903638991E+02 -0.75412775681E+01  0.36820899824E+02  0.00000000000E+00 0. -1.
         11    1    4    4    0    0 -0.25001351988E+01  0.96427010983E+00  0.63132464337E+01  0.68583943931E+01  0.51100000000E-03 0.  1.
        -11    1    4    4    0    0 -0.26033484177E+02 -0.80838227879E+01 -0.10677451643E+02  0.29276244006E+02  0.51100000000E-03 0. -1.
        -12    1    4    4    0    0 -0.82529193594E+00 -0.13784086313E+02  0.11905482777E+02  0.18232461776E+02  0.00000000000E+00 0.  1.
</event>
<event>
 8    1  0.1253703E-006  0.9118800E+02  0.7816164E-02  0.1184000E+00
        -11   -1    0    0    0    0  0.00000000000E+00  0.00000000000E+00  0.45593999997E+02  0.45594000000E+02  0.51100000000E-03 0.  1.
         11   -1    0    0    0    0 -0.00000000000E+00 -0.00000000000E+00 -0.45593999997E+02  0.45594000000E+02  0.51100000000E-03 0. -1.
         23    2    1    2    0    0  0.71054273576E-14 -0.17763568394E-14  0.83266726847E-16  0.91188000000E+02  0.91188000000E+02 0.  0.
    9900012    2    3    3    0    0 -0.36163997512E+02  0.69224650959E+01  0.15678668400E+00  0.54367084461E+02  0.40000000646E+02 0.  0.
         12    1    3    3    0    0  0.36163997512E+02 -0.69224650959E+01 -0.15678668400E+00  0.36820915539E+02  0.00000000000E+00 0. -1.
         11    1    4    4    0    0 -0.56759851221E+01  0.99432571010E+01 -0.49880309636E+01  0.12488619701E+02  0.51100000000E-03 0. -1.
        -11    1    4    4    0    0 -0.68444524664E+01 -0.12826819481E+02 -0.33306846565E+01  0.14915337344E+02  0.51100000000E-03 0.  1.
        -12    1    4    4    0    0 -0.23643559924E+02  0.98060274756E+01  0.84755023041E+01  0.26963127415E+02  0.00000000000E+00 0.  1.
</event>
<event>
 8    1  0.1253703E-006  0.9118800E+02  0.7816164E-02  0.1184000E+00
        -11   -1    0    0    0    0  0.00000000000E+00  0.00000000000E+00  0.45593999997E+02  0.45594000000E+02  0.51100000000E-03 0. -1.
         11   -1    0    0    0    0 -0.00000000000E+00 -0.00000000000E+00 -0.45593999997E+02  0.45594000000E+02  0.51100000000E-03 0.  1.
         23    2    1    2    0    0  0.00000000000E+00 -0.35527136788E-14 -0.88817841970E-15  0.91188000000E+02  0.91188000000E+02 0.  0.
    9900012    2    3    3    0    0  0.30540367707E+02  0.20337578816E+02  0.30733468991E+01  0.54367127755E+02  0.40000099342E+02 0.  0.
         12    1    3    3    0    0 -0.30540367707E+02 -0.20337578816E+02 -0.30733468991E+01  0.36820872245E+02  0.00000000000E+00 0. -1.
         11    1    4    4    0    0  0.18262927765E+02 -0.75600493000E+01  0.10339476554E+02  0.22306807294E+02  0.51100000000E-03 0. -1.
        -11    1    4    4    0    0  0.66045093078E+01  0.86657616617E+01 -0.46226827291E+01  0.11835715620E+02  0.51100000000E-03 0.  1.
         12    1    4    4    0    0  0.56729306336E+01  0.19231866454E+02 -0.26434469262E+01  0.20224604840E+02  0.00000000000E+00 0. -1.
</event>
<event>
 8    1  0.1253703E-006  0.9118800E+02  0.7816164E-02  0.1184000E+00
        -11   -1    0    0    0    0  0.00000000000E+00  0.00000000000E+00  0.45593999997E+02  0.45594000000E+02  0.51100000000E-03 0.  1.
         11   -1    0    0    0    0 -0.00000000000E+00 -0.00000000000E+00 -0.45593999997E+02  0.45594000000E+02  0.51100000000E-03 0. -1.
         23    2    1    2    0    0  0.00000000000E+00  0.00000000000E+00  0.00000000000E+00  0.91188000000E+02  0.91188000000E+02 0.  0.
    9900012    2    3    3    0    0  0.21374244922E+02  0.22231088552E+02 -0.20117087111E+02  0.54367124970E+02  0.40000092994E+02 0.  0.
        -12    1    3    3    0    0 -0.21374244922E+02 -0.22231088552E+02  0.20117087111E+02  0.36820875030E+02  0.00000000000E+00 0.  1.
         11    1    4    4    0    0  0.17265944066E+02  0.21473353479E+02 -0.31645902514E+02  0.41960468066E+02  0.51100000000E-03 0. -1.
        -11    1    4    4    0    0  0.10460325604E+00  0.16764108528E+00  0.25536351539E+01  0.25612688526E+01  0.51100000000E-03 0.  1.
         12    1    4    4    0    0  0.40036975997E+01  0.59009398724E+00  0.89751802490E+01  0.98453880515E+01  0.00000000000E+00 0. -1.
</event>
<event>
 8    1  0.1253703E-006  0.9118800E+02  0.7816164E-02  0.1184000E+00
        -11   -1    0    0    0    0  0.00000000000E+00  0.00000000000E+00  0.45593999997E+02  0.45594000000E+02  0.51100000000E-03 0.  1.
         11   -1    0    0    0    0 -0.00000000000E+00 -0.00000000000E+00 -0.45593999997E+02  0.45594000000E+02  0.51100000000E-03 0. -1.
         23    2    1    2    0    0 -0.17763568394E-14 -0.71054273576E-14  0.00000000000E+00  0.91188000000E+02  0.91188000000E+02 0.  0.
    9900012    2    3    3    0    0  0.11060430114E+02  0.34818064074E+02  0.45996696404E+01  0.54366978002E+02  0.39999757950E+02 0.  0.
        -12    1    3    3    0    0 -0.11060430114E+02 -0.34818064074E+02 -0.45996696404E+01  0.36821021998E+02  0.00000000000E+00 0.  1.
         11    1    4    4    0    0  0.19455952216E+01  0.24068712696E+02 -0.66732537554E+01  0.25052356926E+02  0.51100000000E-03 0. -1.
        -11    1    4    4    0    0 -0.50208482526E+00 -0.60193086344E+00  0.14141496206E+02  0.14163203209E+02  0.51100000000E-03 0.  1.
        -12    1    4    4    0    0  0.96169197175E+01  0.11351282242E+02 -0.28685728105E+01  0.15151417866E+02  0.00000000000E+00 0.  1.
</event>
<event>
 8    1  0.1253703E-006  0.9118800E+02  0.7816164E-02  0.1184000E+00
        -11   -1    0    0    0    0  0.00000000000E+00  0.00000000000E+00  0.45593999997E+02  0.45594000000E+02  0.51100000000E-03 0.  1.
         11   -1    0    0    0    0 -0.00000000000E+00 -0.00000000000E+00 -0.45593999997E+02  0.45594000000E+02  0.51100000000E-03 0. -1.
         23    2    1    2    0    0  0.00000000000E+00  0.00000000000E+00 -0.44408920985E-15  0.91188000000E+02  0.91188000000E+02 0.  0.
    9900012    2    3    3    0    0  0.23992093716E+02 -0.27678145558E+02  0.37524449661E+01  0.54367066475E+02  0.39999959644E+02 0.  0.
         12    1    3    3    0    0 -0.23992093716E+02  0.27678145558E+02 -0.37524449661E+01  0.36820933525E+02  0.00000000000E+00 0. -1.
         11    1    4    4    0    0  0.99003857469E+01 -0.12302252740E+02 -0.76405215313E+01  0.17542537729E+02  0.51100000000E-03 0. -1.
        -11    1    4    4    0    0 -0.81115561387E+01 -0.42735855388E+00  0.13406417826E+01  0.82326969442E+01  0.51100000000E-03 0.  1.
        -12    1    4    4    0    0  0.22203264107E+02 -0.14948534264E+02  0.10052324715E+02  0.28591831803E+02  0.00000000000E+00 0.  1.
</event>
<event>
 8    1  0.1253703E-006  0.9118800E+02  0.7816164E-02  0.1184000E+00
        -11   -1    0    0    0    0  0.00000000000E+00  0.00000000000E+00  0.45593999997E+02  0.45594000000E+02  0.51100000000E-03 0. -1.
         11   -1    0    0    0    0 -0.00000000000E+00 -0.00000000000E+00 -0.45593999997E+02  0.45594000000E+02  0.51100000000E-03 0.  1.
         23    2    1    2    0    0  0.00000000000E+00  0.00000000000E+00  0.17763568394E-14  0.91188000000E+02  0.91188000000E+02 0.  0.
    9900012    2    3    3    0    0  0.24496996000E+02 -0.26481532546E+02 -0.73760567030E+01  0.54367074000E+02  0.39999976799E+02 0.  0.
        -12    1    3    3    0    0 -0.24496996000E+02  0.26481532546E+02  0.73760567030E+01  0.36820926000E+02  0.00000000000E+00 0.  1.
         11    1    4    4    0    0  0.17665840655E+02 -0.24694984067E+02 -0.12027613727E+02  0.32658653621E+02  0.51100000000E-03 0. -1.
        -11    1    4    4    0    0  0.75599704323E+01  0.77346964330E+01 -0.55922314896E+00  0.10830116003E+02  0.51100000000E-03 0.  1.
        -12    1    4    4    0    0 -0.72881508750E+00 -0.95212449118E+01  0.52107801727E+01  0.10878304377E+02  0.00000000000E+00 0.  1.
</event>
<event>
 8    1  0.1253703E-006  0.9118800E+02  0.7816164E-02  0.1184000E+00
        -11   -1    0    0    0    0  0.00000000000E+00  0.00000000000E+00  0.45593999997E+02  0.45594000000E+02  0.51100000000E-03 0. -1.
         11   -1    0    0    0    0 -0.00000000000E+00 -0.00000000000E+00 -0.45593999997E+02  0.45594000000E+02  0.51100000000E-03 0.  1.
         23    2    1    2    0    0  0.35527136788E-14  0.17763568394E-14  0.00000000000E+00  0.91188000000E+02  0.91188000000E+02 0.  0.
    9900012    2    3    3    0    0 -0.29487279973E+02 -0.15483504974E+02 -0.15702243567E+02  0.54366823219E+02  0.39999405087E+02 0.  0.
        -12    1    3    3    0    0  0.29487279973E+02  0.15483504974E+02  0.15702243567E+02  0.36821176781E+02  0.00000000000E+00 0.  1.
         11    1    4    4    0    0  0.57190404799E+00 -0.12475344158E+02 -0.70989148119E+01  0.14365092338E+02  0.51100000000E-03 0. -1.
        -11    1    4    4    0    0 -0.26792038769E+02 -0.52681143097E+01 -0.15969853885E+02  0.31632303159E+02  0.51100000000E-03 0.  1.
         12    1    4    4    0    0 -0.32671452526E+01  0.22599534937E+01  0.73665251301E+01  0.83694277216E+01  0.00000000000E+00 0. -1.
</event>
<event>
 8    1  0.1253703E-006  0.9118800E+02  0.7816164E-02  0.1184000E+00
        -11   -1    0    0    0    0  0.00000000000E+00  0.00000000000E+00  0.45593999997E+02  0.45594000000E+02  0.51100000000E-03 0.  1.
         11   -1    0    0    0    0 -0.00000000000E+00 -0.00000000000E+00 -0.45593999997E+02  0.45594000000E+02  0.51100000000E-03 0. -1.
         23    2    1    2    0    0 -0.17763568394E-14  0.00000000000E+00  0.35527136788E-14  0.91188000000E+02  0.91188000000E+02 0.  0.
    9900012    2    3    3    0    0 -0.15108275610E+02 -0.20357614866E+02 -0.26703699007E+02  0.54367081820E+02  0.39999994625E+02 0.  0.
        -12    1    3    3    0    0  0.15108275610E+02  0.20357614866E+02  0.26703699007E+02  0.36820918180E+02  0.00000000000E+00 0.  1.
         11    1    4    4    0    0 -0.48104593456E+01 -0.15848405070E+02 -0.26841329940E+02  0.31539966005E+02  0.51100000000E-03 0.  1.
        -11    1    4    4    0    0 -0.13241375830E+02 -0.37194621855E+01 -0.67311015852E+01  0.15312614461E+02  0.51100000000E-03 0. -1.
         12    1    4    4    0    0  0.29435595649E+01 -0.78974760957E+00  0.68687325180E+01  0.75145013542E+01  0.00000000000E+00 0. -1.
</event>
<event>
 8    1  0.1253703E-006  0.9118800E+02  0.7816164E-02  0.1184000E+00
        -11   -1    0    0    0    0  0.00000000000E+00  0.00000000000E+00  0.45593999997E+02  0.45594000000E+02  0.51100000000E-03 0.  1.
         11   -1    0    0    0    0 -0.00000000000E+00 -0.00000000000E+00 -0.45593999997E+02  0.45594000000E+02  0.51100000000E-03 0. -1.
         23    2    1    2    0    0  0.00000000000E+00  0.88817841970E-15  0.00000000000E+00  0.91188000000E+02  0.91188000000E+02 0.  0.
    9900012    2    3    3    0    0  0.31681595835E+02  0.56989984689E+01  0.17876785187E+02  0.54367061028E+02  0.39999947225E+02 0.  0.
         12    1    3    3    0    0 -0.31681595835E+02 -0.56989984689E+01 -0.17876785187E+02  0.36820938972E+02  0.00000000000E+00 0. -1.
         11    1    4    4    0    0  0.29040473173E+02 -0.10681195325E+02  0.19312005174E+02  0.36474519322E+02  0.51100000000E-03 0. -1.
        -11    1    4    4    0    0  0.16958738017E+01  0.74528855236E+01  0.25679115098E+01  0.80632289043E+01  0.51100000000E-03 0.  1.
         12    1    4    4    0    0  0.94524886037E+00  0.89273082706E+01 -0.40031314967E+01  0.98293128013E+01  0.00000000000E+00 0. -1.
</event>
<event>
 8    1  0.1253703E-006  0.9118800E+02  0.7816164E-02  0.1184000E+00
        -11   -1    0    0    0    0  0.00000000000E+00  0.00000000000E+00  0.45593999997E+02  0.45594000000E+02  0.51100000000E-03 0.  1.
         11   -1    0    0    0    0 -0.00000000000E+00 -0.00000000000E+00 -0.45593999997E+02  0.45594000000E+02  0.51100000000E-03 0. -1.
         23    2    1    2    0    0 -0.88817841970E-15  0.00000000000E+00  0.00000000000E+00  0.91188000000E+02  0.91188000000E+02 0.  0.
    9900012    2    3    3    0    0  0.30280846337E+01 -0.21834406442E+02 -0.29493618797E+02  0.54367025665E+02  0.39999866608E+02 0.  0.
         12    1    3    3    0    0 -0.30280846337E+01  0.21834406442E+02  0.29493618797E+02  0.36820974335E+02  0.00000000000E+00 0. -1.
         11    1    4    4    0    0 -0.86363148600E+00 -0.19251653619E+01 -0.13193830415E+02  0.13361485033E+02  0.51100000000E-03 0. -1.
        -11    1    4    4    0    0  0.13800933309E+02 -0.18490474563E+02 -0.19796906245E+02  0.30401988535E+02  0.51100000000E-03 0.  1.
        -12    1    4    4    0    0 -0.99092171890E+01 -0.14187665171E+01  0.34971178625E+01  0.10603552097E+02  0.00000000000E+00 0.  1.
</event>
<event>
 8    1  0.1253703E-006  0.9118800E+02  0.7816164E-02  0.1184000E+00
        -11   -1    0    0    0    0  0.00000000000E+00  0.00000000000E+00  0.45593999997E+02  0.45594000000E+02  0.51100000000E-03 0. -1.
         11   -1    0    0    0    0 -0.00000000000E+00 -0.00000000000E+00 -0.45593999997E+02  0.45594000000E+02  0.51100000000E-03 0.  1.
         23    2    1    2    0    0  0.00000000000E+00  0.00000000000E+00 -0.33306690739E-15  0.91188000000E+02  0.91188000000E+02 0.  0.
    9900012    2    3    3    0    0  0.14568537165E+02  0.33806174673E+02  0.82415738679E+00  0.54367096202E+02  0.40000027411E+02 0.  0.
         12    1    3    3    0    0 -0.14568537165E+02 -0.33806174673E+02 -0.82415738679E+00  0.36820903798E+02  0.00000000000E+00 0. -1.
         11    1    4    4    0    0  0.32092715910E+01  0.82223595521E+01  0.16536462989E+02  0.18744632010E+02  0.51100000000E-03 0. -1.
        -11    1    4    4    0    0  0.92604815732E+01  0.24719555631E+02 -0.79996196135E+01  0.27582727635E+02  0.51100000000E-03 0.  1.
        -12    1    4    4    0    0  0.20987840008E+01  0.86425948953E+00 -0.77126859883E+01  0.80397365567E+01  0.00000000000E+00 0.  1.
</event>
<event>
 8    1  0.1253703E-006  0.9118800E+02  0.7816164E-02  0.1184000E+00
        -11   -1    0    0    0    0  0.00000000000E+00  0.00000000000E+00  0.45593999997E+02  0.45594000000E+02  0.51100000000E-03 0.  1.
         11   -1    0    0    0    0 -0.00000000000E+00 -0.00000000000E+00 -0.45593999997E+02  0.45594000000E+02  0.51100000000E-03 0. -1.
         23    2    1    2    0    0  0.17763568394E-14  0.00000000000E+00  0.00000000000E+00  0.91188000000E+02  0.91188000000E+02 0.  0.
    9900012    2    3    3    0    0 -0.13588338076E+02 -0.10105954620E+02  0.32695667735E+02  0.54367082860E+02  0.39999996996E+02 0.  0.
         12    1    3    3    0    0  0.13588338076E+02  0.10105954620E+02 -0.32695667735E+02  0.36820917140E+02  0.00000000000E+00 0. -1.
         11    1    4    4    0    0 -0.81670837814E+01 -0.46621002231E-01  0.10064539246E+00  0.81678369698E+01  0.51100000000E-03 0. -1.
        -11    1    4    4    0    0 -0.66198983645E+01 -0.11741212960E+02 -0.60003835863E-01  0.13478973880E+02  0.51100000000E-03 0.  1.
        -12    1    4    4    0    0  0.11986440702E+01  0.16818793428E+01  0.32655026178E+02  0.32720272010E+02  0.00000000000E+00 0.  1.
</event>
<event>
 8    1  0.1253703E-006  0.9118800E+02  0.7816164E-02  0.1184000E+00
        -11   -1    0    0    0    0  0.00000000000E+00  0.00000000000E+00  0.45593999997E+02  0.45594000000E+02  0.51100000000E-03 0. -1.
         11   -1    0    0    0    0 -0.00000000000E+00 -0.00000000000E+00 -0.45593999997E+02  0.45594000000E+02  0.51100000000E-03 0.  1.
         23    2    1    2    0    0 -0.35527136788E-14  0.00000000000E+00  0.00000000000E+00  0.91188000000E+02  0.91188000000E+02 0.  0.
    9900012    2    3    3    0    0  0.12687130448E+02  0.19572740824E+02 -0.28490510333E+02  0.54367290591E+02  0.40000470557E+02 0.  0.
         12    1    3    3    0    0 -0.12687130448E+02 -0.19572740824E+02  0.28490510333E+02  0.36820709409E+02  0.00000000000E+00 0. -1.
         11    1    4    4    0    0 -0.60020252505E+01  0.10947932667E+02 -0.98473285366E+00  0.12524026343E+02  0.51100000000E-03 0. -1.
        -11    1    4    4    0    0 -0.70940079126E+00  0.11696839087E+02 -0.81938182762E+01  0.14298879408E+02  0.51100000000E-03 0.  1.
        -12    1    4    4    0    0  0.19398556490E+02 -0.30720309302E+01 -0.19311959203E+02  0.27544384839E+02  0.00000000000E+00 0.  1.
</event>
<event>
 8    1  0.1253703E-006  0.9118800E+02  0.7816164E-02  0.1184000E+00
        -11   -1    0    0    0    0  0.00000000000E+00  0.00000000000E+00  0.45593999997E+02  0.45594000000E+02  0.51100000000E-03 0. -1.
         11   -1    0    0    0    0 -0.00000000000E+00 -0.00000000000E+00 -0.45593999997E+02  0.45594000000E+02  0.51100000000E-03 0.  1.
         23    2    1    2    0    0  0.00000000000E+00 -0.35527136788E-14 -0.35527136788E-14  0.91188000000E+02  0.91188000000E+02 0.  0.
    9900012    2    3    3    0    0 -0.85985842866E+01 -0.20801418155E+02  0.29139903912E+02  0.54367236171E+02  0.40000346497E+02 0.  0.
        -12    1    3    3    0    0  0.85985842866E+01  0.20801418155E+02 -0.29139903912E+02  0.36820763829E+02  0.00000000000E+00 0.  1.
         11    1    4    4    0    0 -0.84199910958E+01 -0.13784859364E+02  0.57710903672E+01  0.17152961320E+02  0.51100000000E-03 0.  1.
        -11    1    4    4    0    0 -0.96704229234E+01  0.85250518019E+00  0.22903505265E+02  0.24875980348E+02  0.51100000000E-03 0. -1.
        -12    1    4    4    0    0  0.94918297326E+01 -0.78690639704E+01  0.46530827920E+00  0.12338294503E+02  0.00000000000E+00 0.  1.
</event>
<event>
 8    1  0.1253703E-006  0.9118800E+02  0.7816164E-02  0.1184000E+00
        -11   -1    0    0    0    0  0.00000000000E+00  0.00000000000E+00  0.45593999997E+02  0.45594000000E+02  0.51100000000E-03 0. -1.
         11   -1    0    0    0    0 -0.00000000000E+00 -0.00000000000E+00 -0.45593999997E+02  0.45594000000E+02  0.51100000000E-03 0.  1.
         23    2    1    2    0    0  0.00000000000E+00  0.00000000000E+00  0.00000000000E+00  0.91188000000E+02  0.91188000000E+02 0.  0.
    9900012    2    3    3    0    0 -0.89373396822E+01 -0.30617313567E+02  0.18397864009E+02  0.54367118278E+02  0.40000077738E+02 0.  0.
        -12    1    3    3    0    0  0.89373396822E+01  0.30617313567E+02 -0.18397864009E+02  0.36820881722E+02  0.00000000000E+00 0.  1.
         11    1    4    4    0    0 -0.18456925798E+01 -0.34859993192E+02  0.13398091734E+02  0.37391637686E+02  0.51100000000E-03 0. -1.
        -11    1    4    4    0    0 -0.85373010682E+01  0.14464316927E+01 -0.23565916950E+01  0.89739176979E+01  0.51100000000E-03 0.  1.
         12    1    4    4    0    0  0.14456539658E+01  0.27962479319E+01  0.73563639703E+01  0.80015628942E+01  0.00000000000E+00 0. -1.
</event>
<event>
 8    1  0.1253703E-006  0.9118800E+02  0.7816164E-02  0.1184000E+00
        -11   -1    0    0    0    0  0.00000000000E+00  0.00000000000E+00  0.45593999997E+02  0.45594000000E+02  0.51100000000E-03 0. -1.
         11   -1    0    0    0    0 -0.00000000000E+00 -0.00000000000E+00 -0.45593999997E+02  0.45594000000E+02  0.51100000000E-03 0.  1.
         23    2    1    2    0    0  0.00000000000E+00  0.00000000000E+00 -0.44408920985E-15  0.91188000000E+02  0.91188000000E+02 0.  0.
    9900012    2    3    3    0    0 -0.24801187833E+02 -0.27204065368E+02 -0.78712119151E+00  0.54367086782E+02  0.40000005936E+02 0.  0.
         12    1    3    3    0    0  0.24801187833E+02  0.27204065368E+02  0.78712119151E+00  0.36820913218E+02  0.00000000000E+00 0. -1.
         11    1    4    4    0    0 -0.75440789127E+01 -0.14097324695E+02  0.26804005653E+01  0.16212101581E+02  0.51100000000E-03 0. -1.
        -11    1    4    4    0    0 -0.25770923835E+02 -0.66505827743E+01 -0.57493983267E+01  0.27229145193E+02  0.51100000000E-03 0.  1.
         12    1    4    4    0    0  0.85138149145E+01 -0.64561578979E+01  0.22818765699E+01  0.10925840008E+02  0.00000000000E+00 0. -1.
</event>
<event>
 8    1  0.1253703E-006  0.9118800E+02  0.7816164E-02  0.1184000E+00
        -11   -1    0    0    0    0  0.00000000000E+00  0.00000000000E+00  0.45593999997E+02  0.45594000000E+02  0.51100000000E-03 0.  1.
         11   -1    0    0    0    0 -0.00000000000E+00 -0.00000000000E+00 -0.45593999997E+02  0.45594000000E+02  0.51100000000E-03 0. -1.
         23    2    1    2    0    0  0.17763568394E-14 -0.35527136788E-14  0.00000000000E+00  0.91188000000E+02  0.91188000000E+02 0.  0.
    9900012    2    3    3    0    0 -0.14093430993E+02  0.28102698455E+02 -0.19167460423E+02  0.54367109235E+02  0.40000057123E+02 0.  0.
        -12    1    3    3    0    0  0.14093430993E+02 -0.28102698455E+02  0.19167460423E+02  0.36820890765E+02  0.00000000000E+00 0.  1.
         11    1    4    4    0    0 -0.11376484599E+02  0.15296828328E+02 -0.32140921238E+01  0.19332556664E+02  0.51100000000E-03 0. -1.
        -11    1    4    4    0    0  0.42769767020E+01  0.18338072695E+02 -0.17818209720E+02  0.25924236493E+02  0.51100000000E-03 0.  1.
         12    1    4    4    0    0 -0.69939230957E+01 -0.55322025671E+01  0.18648414205E+01  0.91103160777E+01  0.00000000000E+00 0. -1.
</event>
<event>
 8    1  0.1253703E-006  0.9118800E+02  0.7816164E-02  0.1184000E+00
        -11   -1    0    0    0    0  0.00000000000E+00  0.00000000000E+00  0.45593999997E+02  0.45594000000E+02  0.51100000000E-03 0. -1.
         11   -1    0    0    0    0 -0.00000000000E+00 -0.00000000000E+00 -0.45593999997E+02  0.45594000000E+02  0.51100000000E-03 0.  1.
         23    2    1    2    0    0  0.00000000000E+00 -0.35527136788E-14  0.00000000000E+00  0.91188000000E+02  0.91188000000E+02 0.  0.
    9900012    2    3    3    0    0  0.15382016388E+02  0.21385922600E+02  0.25725627945E+02  0.54367190031E+02  0.40000241312E+02 0.  0.
         12    1    3    3    0    0 -0.15382016388E+02 -0.21385922600E+02 -0.25725627945E+02  0.36820809969E+02  0.00000000000E+00 0. -1.
         11    1    4    4    0    0  0.19070173762E+02  0.10291241510E+02  0.21290135101E+02  0.30378463292E+02  0.51100000000E-03 0. -1.
        -11    1    4    4    0    0  0.54929237126E+01  0.12527055032E+02 -0.31900516691E-01  0.13678462509E+02  0.51100000000E-03 0.  1.
         12    1    4    4    0    0 -0.91810810871E+01 -0.14323739422E+01  0.44673933615E+01  0.10310264230E+02  0.00000000000E+00 0. -1.
</event>
<event>
 8    1  0.1253703E-006  0.9118800E+02  0.7816164E-02  0.1184000E+00
        -11   -1    0    0    0    0  0.00000000000E+00  0.00000000000E+00  0.45593999997E+02  0.45594000000E+02  0.51100000000E-03 0.  1.
         11   -1    0    0    0    0 -0.00000000000E+00 -0.00000000000E+00 -0.45593999997E+02  0.45594000000E+02  0.51100000000E-03 0. -1.
         23    2    1    2    0    0 -0.88817841970E-15 -0.35527136788E-14  0.00000000000E+00  0.91188000000E+02  0.91188000000E+02 0.  0.
    9900012    2    3    3    0    0 -0.52501202169E+01 -0.29359718286E+02 -0.21592163721E+02  0.54367104380E+02  0.40000046055E+02 0.  0.
        -12    1    3    3    0    0  0.52501202169E+01  0.29359718286E+02  0.21592163721E+02  0.36820895620E+02  0.00000000000E+00 0.  1.
         11    1    4    4    0    0  0.91000965652E+01  0.19259768228E+01 -0.44001817013E+01  0.10289934085E+02  0.51100000000E-03 0. -1.
        -11    1    4    4    0    0 -0.54858615908E+01 -0.20451679916E+01 -0.11629860960E+02  0.13020409199E+02  0.51100000000E-03 0.  1.
        -12    1    4    4    0    0 -0.88643551913E+01 -0.29240527117E+02 -0.55621210596E+01  0.31056761095E+02  0.00000000000E+00 0.  1.
</event>
<event>
 8    1  0.1253703E-006  0.9118800E+02  0.7816164E-02  0.1184000E+00
        -11   -1    0    0    0    0  0.00000000000E+00  0.00000000000E+00  0.45593999997E+02  0.45594000000E+02  0.51100000000E-03 0. -1.
         11   -1    0    0    0    0 -0.00000000000E+00 -0.00000000000E+00 -0.45593999997E+02  0.45594000000E+02  0.51100000000E-03 0.  1.
         23    2    1    2    0    0  0.00000000000E+00 -0.35527136788E-14 -0.17763568394E-14  0.91188000000E+02  0.91188000000E+02 0.  0.
    9900012    2    3    3    0    0  0.23866761429E+02 -0.25885733691E+02 -0.10774373777E+02  0.54367073340E+02  0.39999975292E+02 0.  0.
         12    1    3    3    0    0 -0.23866761429E+02  0.25885733691E+02  0.10774373777E+02  0.36820926660E+02  0.00000000000E+00 0. -1.
         11    1    4    4    0    0  0.18171023470E+01  0.40652181166E+01  0.54521473335E+01  0.70394438759E+01  0.51100000000E-03 0. -1.
        -11    1    4    4    0    0  0.10740429126E+02 -0.63483967696E+01 -0.17068237574E+02  0.21141988873E+02  0.51100000000E-03 0.  1.
        -12    1    4    4    0    0  0.11309229955E+02 -0.23602555038E+02  0.84171646353E+00  0.26185640590E+02  0.00000000000E+00 0.  1.
</event>
<event>
 8    1  0.1253703E-006  0.9118800E+02  0.7816164E-02  0.1184000E+00
        -11   -1    0    0    0    0  0.00000000000E+00  0.00000000000E+00  0.45593999997E+02  0.45594000000E+02  0.51100000000E-03 0.  1.
         11   -1    0    0    0    0 -0.00000000000E+00 -0.00000000000E+00 -0.45593999997E+02  0.45594000000E+02  0.51100000000E-03 0. -1.
         23    2    1    2    0    0 -0.17763568394E-14  0.88817841970E-15  0.00000000000E+00  0.91188000000E+02  0.91188000000E+02 0.  0.
    9900012    2    3    3    0    0 -0.12433405448E+02  0.37034868648E+01 -0.34459753195E+02  0.54367082354E+02  0.39999995843E+02 0.  0.
        -12    1    3    3    0    0  0.12433405448E+02 -0.37034868648E+01  0.34459753195E+02  0.36820917646E+02  0.00000000000E+00 0.  1.
         11    1    4    4    0    0  0.14805842350E+01  0.65617707085E+01 -0.27579266215E+01  0.72701529570E+01  0.51100000000E-03 0. -1.
        -11    1    4    4    0    0 -0.48458468687E+01 -0.57771463422E+01  0.50862267123E+01  0.90954578864E+01  0.51100000000E-03 0.  1.
         12    1    4    4    0    0 -0.90681428147E+01  0.29188624985E+01 -0.36788053286E+02  0.38001471511E+02  0.00000000000E+00 0. -1.
</event>
<event>
 8    1  0.1253703E-006  0.9118800E+02  0.7816164E-02  0.1184000E+00
        -11   -1    0    0    0    0  0.00000000000E+00  0.00000000000E+00  0.45593999997E+02  0.45594000000E+02  0.51100000000E-03 0.  1.
         11   -1    0    0    0    0 -0.00000000000E+00 -0.00000000000E+00 -0.45593999997E+02  0.45594000000E+02  0.51100000000E-03 0. -1.
         23    2    1    2    0    0  0.35527136788E-14 -0.17763568394E-14  0.00000000000E+00  0.91188000000E+02  0.91188000000E+02 0.  0.
    9900012    2    3    3    0    0 -0.24023247406E+02  0.15889890904E+02 -0.22938498864E+02  0.54367085033E+02  0.40000001951E+02 0.  0.
        -12    1    3    3    0    0  0.24023247406E+02 -0.15889890904E+02  0.22938498864E+02  0.36820914967E+02  0.00000000000E+00 0.  1.
         11    1    4    4    0    0  0.23591370067E+01 -0.11056065493E+01 -0.10892391181E+02  0.11199646385E+02  0.51100000000E-03 0. -1.
        -11    1    4    4    0    0 -0.12732690656E+02  0.13276700947E+02 -0.19806719886E+02  0.27031432672E+02  0.51100000000E-03 0.  1.
        -12    1    4    4    0    0 -0.13649693756E+02  0.37187965061E+01  0.77606122034E+01  0.16136005976E+02  0.00000000000E+00 0.  1.
</event>
<event>
 8    1  0.1253703E-006  0.9118800E+02  0.7816164E-02  0.1184000E+00
        -11   -1    0    0    0    0  0.00000000000E+00  0.00000000000E+00  0.45593999997E+02  0.45594000000E+02  0.51100000000E-03 0. -1.
         11   -1    0    0    0    0 -0.00000000000E+00 -0.00000000000E+00 -0.45593999997E+02  0.45594000000E+02  0.51100000000E-03 0.  1.
         23    2    1    2    0    0  0.35527136788E-14  0.00000000000E+00  0.00000000000E+00  0.91188000000E+02  0.91188000000E+02 0.  0.
    9900012    2    3    3    0    0 -0.30742763084E+02 -0.19811684157E+02  0.42616759324E+01  0.54367052254E+02  0.39999927223E+02 0.  0.
         12    1    3    3    0    0  0.30742763084E+02  0.19811684157E+02 -0.42616759324E+01  0.36820947746E+02  0.00000000000E+00 0. -1.
         11    1    4    4    0    0 -0.10174963999E+01  0.52658302085E+01 -0.27785941795E+01  0.60402692477E+01  0.51100000000E-03 0. -1.
        -11    1    4    4    0    0 -0.13225956189E+02 -0.95852288162E+01 -0.10737084845E+02  0.19547059109E+02  0.51100000000E-03 0.  1.
        -12    1    4    4    0    0 -0.16499310495E+02 -0.15492285549E+02  0.17777354957E+02  0.28779723897E+02  0.00000000000E+00 0.  1.
</event>
<event>
 8    1  0.1253703E-006  0.9118800E+02  0.7816164E-02  0.1184000E+00
        -11   -1    0    0    0    0  0.00000000000E+00  0.00000000000E+00  0.45593999997E+02  0.45594000000E+02  0.51100000000E-03 0. -1.
         11   -1    0    0    0    0 -0.00000000000E+00 -0.00000000000E+00 -0.45593999997E+02  0.45594000000E+02  0.51100000000E-03 0.  1.
         23    2    1    2    0    0  0.35527136788E-14  0.00000000000E+00 -0.17763568394E-14  0.91188000000E+02  0.91188000000E+02 0.  0.
    9900012    2    3    3    0    0 -0.31537500747E+02  0.16330921663E+02 -0.97194004006E+01  0.54367086108E+02  0.40000004400E+02 0.  0.
         12    1    3    3    0    0  0.31537500747E+02 -0.16330921663E+02  0.97194004006E+01  0.36820913892E+02  0.00000000000E+00 0. -1.
         11    1    4    4    0    0 -0.91018933254E-01 -0.36698799187E+01 -0.17331517625E+01  0.40595712036E+01  0.51100000000E-03 0. -1.
        -11    1    4    4    0    0  0.17365231442E+01 -0.30293230107E+01 -0.92591364975E+01  0.98956515437E+01  0.51100000000E-03 0.  1.
        -12    1    4    4    0    0 -0.33183004958E+02  0.23030124593E+02  0.12728878594E+01  0.40411863361E+02  0.00000000000E+00 0.  1.
</event>
<event>
 8    1  0.1253703E-006  0.9118800E+02  0.7816164E-02  0.1184000E+00
        -11   -1    0    0    0    0  0.00000000000E+00  0.00000000000E+00  0.45593999997E+02  0.45594000000E+02  0.51100000000E-03 0. -1.
         11   -1    0    0    0    0 -0.00000000000E+00 -0.00000000000E+00 -0.45593999997E+02  0.45594000000E+02  0.51100000000E-03 0.  1.
         23    2    1    2    0    0  0.00000000000E+00  0.00000000000E+00  0.17763568394E-14  0.91188000000E+02  0.91188000000E+02 0.  0.
    9900012    2    3    3    0    0  0.18277805673E+02  0.30712843778E+02  0.88557447799E+01  0.54367066162E+02  0.39999958929E+02 0.  0.
        -12    1    3    3    0    0 -0.18277805673E+02 -0.30712843778E+02 -0.88557447799E+01  0.36820933838E+02  0.00000000000E+00 0.  1.
         11    1    4    4    0    0  0.21428504612E+02  0.14570387949E+01  0.75996691046E+01  0.22782860723E+02  0.51100000000E-03 0. -1.
        -11    1    4    4    0    0 -0.90602286387E-01  0.44060034501E+01 -0.40560460374E+01  0.59893726629E+01  0.51100000000E-03 0.  1.
         12    1    4    4    0    0 -0.30600966528E+01  0.24849801533E+02  0.53121217128E+01  0.25594832776E+02  0.00000000000E+00 0. -1.
</event>
<event>
 8    1  0.1253703E-006  0.9118800E+02  0.7816164E-02  0.1184000E+00
        -11   -1    0    0    0    0  0.00000000000E+00  0.00000000000E+00  0.45593999997E+02  0.45594000000E+02  0.51100000000E-03 0.  1.
         11   -1    0    0    0    0 -0.00000000000E+00 -0.00000000000E+00 -0.45593999997E+02  0.45594000000E+02  0.51100000000E-03 0. -1.
         23    2    1    2    0    0  0.00000000000E+00 -0.88817841970E-15  0.00000000000E+00  0.91188000000E+02  0.91188000000E+02 0.  0.
    9900012    2    3    3    0    0 -0.89610904693E+01 -0.59640959242E+01 -0.35212322511E+02  0.54367092363E+02  0.40000018660E+02 0.  0.
        -12    1    3    3    0    0  0.89610904693E+01  0.59640959242E+01  0.35212322511E+02  0.36820907637E+02  0.00000000000E+00 0.  1.
         11    1    4    4    0    0 -0.15605735016E+02 -0.58987385075E+01 -0.22292766107E+02  0.27844236429E+02  0.51100000000E-03 0. -1.
        -11    1    4    4    0    0 -0.43161670939E+01  0.30566380836E+01  0.36400416670E+01  0.64204546844E+01  0.51100000000E-03 0.  1.
        -12    1    4    4    0    0  0.10960811641E+02 -0.31219955003E+01 -0.16559598071E+02  0.20102401249E+02  0.00000000000E+00 0.  1.
</event>
<event>
 8    1  0.1253703E-006  0.9118800E+02  0.7816164E-02  0.1184000E+00
        -11   -1    0    0    0    0  0.00000000000E+00  0.00000000000E+00  0.45593999997E+02  0.45594000000E+02  0.51100000000E-03 0.  1.
         11   -1    0    0    0    0 -0.00000000000E+00 -0.00000000000E+00 -0.45593999997E+02  0.45594000000E+02  0.51100000000E-03 0. -1.
         23    2    1    2    0    0  0.00000000000E+00  0.71054273576E-14  0.00000000000E+00  0.91188000000E+02  0.91188000000E+02 0.  0.
    9900012    2    3    3    0    0  0.49664228795E+01  0.29851793510E+02 -0.20975800968E+02  0.54367093463E+02  0.40000021167E+02 0.  0.
         12    1    3    3    0    0 -0.49664228795E+01 -0.29851793510E+02  0.20975800968E+02  0.36820906537E+02  0.00000000000E+00 0. -1.
         11    1    4    4    0    0 -0.70384075348E+00  0.12063083537E+02 -0.65976436688E+00  0.12101597643E+02  0.51100000000E-03 0.  1.
        -11    1    4    4    0    0  0.11403042813E+02  0.25008876561E+02 -0.17663470239E+02  0.32672181951E+02  0.51100000000E-03 0. -1.
         12    1    4    4    0    0 -0.57327791803E+01 -0.72201665885E+01 -0.26525663620E+01  0.95933138696E+01  0.00000000000E+00 0. -1.
</event>
<event>
 8    1  0.1253703E-006  0.9118800E+02  0.7816164E-02  0.1184000E+00
        -11   -1    0    0    0    0  0.00000000000E+00  0.00000000000E+00  0.45593999997E+02  0.45594000000E+02  0.51100000000E-03 0. -1.
         11   -1    0    0    0    0 -0.00000000000E+00 -0.00000000000E+00 -0.45593999997E+02  0.45594000000E+02  0.51100000000E-03 0.  1.
         23    2    1    2    0    0 -0.61062266354E-15  0.00000000000E+00  0.00000000000E+00  0.91188000000E+02  0.91188000000E+02 0.  0.
    9900012    2    3    3    0    0 -0.41032513261E+00 -0.21122071221E+02  0.30157413084E+02  0.54367084431E+02  0.40000000578E+02 0.  0.
        -12    1    3    3    0    0  0.41032513261E+00  0.21122071221E+02 -0.30157413084E+02  0.36820915569E+02  0.00000000000E+00 0.  1.
         11    1    4    4    0    0 -0.10229583714E+02  0.41563878899E+01  0.20281883762E+01  0.11226463895E+02  0.51100000000E-03 0. -1.
        -11    1    4    4    0    0  0.36481558904E+01 -0.26140878829E+02  0.21500291551E+02  0.34042871859E+02  0.51100000000E-03 0.  1.
        -12    1    4    4    0    0  0.61711026907E+01  0.86241971844E+00  0.66289331571E+01  0.90977486770E+01  0.00000000000E+00 0.  1.
</event>
<event>
 8    1  0.1253703E-006  0.9118800E+02  0.7816164E-02  0.1184000E+00
        -11   -1    0    0    0    0  0.00000000000E+00  0.00000000000E+00  0.45593999997E+02  0.45594000000E+02  0.51100000000E-03 0. -1.
         11   -1    0    0    0    0 -0.00000000000E+00 -0.00000000000E+00 -0.45593999997E+02  0.45594000000E+02  0.51100000000E-03 0.  1.
         23    2    1    2    0    0  0.00000000000E+00  0.00000000000E+00  0.00000000000E+00  0.91188000000E+02  0.91188000000E+02 0.  0.
    9900012    2    3    3    0    0 -0.25107063610E+02  0.14106493049E+02 -0.22943890485E+02  0.54367083392E+02  0.39999998210E+02 0.  0.
         12    1    3    3    0    0  0.25107063610E+02 -0.14106493049E+02  0.22943890485E+02  0.36820916608E+02  0.00000000000E+00 0. -1.
         11    1    4    4    0    0 -0.19556859613E+02 -0.24722464953E+00 -0.16976983586E+02  0.25898838775E+02  0.51100000000E-03 0. -1.
        -11    1    4    4    0    0 -0.14499106063E+02  0.88534600755E+01 -0.15024008974E+01  0.17054765922E+02  0.51100000000E-03 0.  1.
         12    1    4    4    0    0  0.89489020657E+01  0.55002576234E+01 -0.44645060010E+01  0.11413478696E+02  0.00000000000E+00 0. -1.
</event>
<event>
 8    1  0.1253703E-006  0.9118800E+02  0.7816164E-02  0.1184000E+00
        -11   -1    0    0    0    0  0.00000000000E+00  0.00000000000E+00  0.45593999997E+02  0.45594000000E+02  0.51100000000E-03 0. -1.
         11   -1    0    0    0    0 -0.00000000000E+00 -0.00000000000E+00 -0.45593999997E+02  0.45594000000E+02  0.51100000000E-03 0.  1.
         23    2    1    2    0    0 -0.35527136788E-14  0.88817841970E-15 -0.35527136788E-14  0.91188000000E+02  0.91188000000E+02 0.  0.
    9900012    2    3    3    0    0  0.24945559077E+02  0.36298481436E+01 -0.26838812871E+02  0.54367101158E+02  0.40000038709E+02 0.  0.
         12    1    3    3    0    0 -0.24945559077E+02 -0.36298481436E+01  0.26838812871E+02  0.36820898842E+02  0.00000000000E+00 0. -1.
         11    1    4    4    0    0  0.48741934880E+01  0.51613468376E+01 -0.11446509661E+02  0.13469218500E+02  0.51100000000E-03 0.  1.
        -11    1    4    4    0    0 -0.35122708786E+01 -0.19771837304E+01  0.71901641782E+01  0.82428007012E+01  0.51100000000E-03 0. -1.
        -12    1    4    4    0    0  0.23583636468E+02  0.44568503633E+00 -0.22582467389E+02  0.32655081956E+02  0.00000000000E+00 0.  1.
</event>
<event>
 8    1  0.1253703E-006  0.9118800E+02  0.7816164E-02  0.1184000E+00
        -11   -1    0    0    0    0  0.00000000000E+00  0.00000000000E+00  0.45593999997E+02  0.45594000000E+02  0.51100000000E-03 0.  1.
         11   -1    0    0    0    0 -0.00000000000E+00 -0.00000000000E+00 -0.45593999997E+02  0.45594000000E+02  0.51100000000E-03 0. -1.
         23    2    1    2    0    0  0.35527136788E-14 -0.88817841970E-15  0.35527136788E-14  0.91188000000E+02  0.91188000000E+02 0.  0.
    9900012    2    3    3    0    0 -0.24511757163E+02  0.76502674290E+01 -0.26389896251E+02  0.54367089432E+02  0.40000011977E+02 0.  0.
        -12    1    3    3    0    0  0.24511757163E+02 -0.76502674290E+01  0.26389896251E+02  0.36820910568E+02  0.00000000000E+00 0.  1.
         11    1    4    4    0    0 -0.97279196185E+00  0.15600741409E+02 -0.22823243102E+02  0.27662788773E+02  0.51100000000E-03 0.  1.
        -11    1    4    4    0    0 -0.18836418239E+02 -0.49008998222E+01 -0.63144013908E+01  0.20462187965E+02  0.51100000000E-03 0. -1.
        -12    1    4    4    0    0 -0.47025469627E+01 -0.30495741583E+01  0.27477482421E+01  0.62421126940E+01  0.00000000000E+00 0.  1.
</event>
<event>
 8    1  0.1253703E-006  0.9118800E+02  0.7816164E-02  0.1184000E+00
        -11   -1    0    0    0    0  0.00000000000E+00  0.00000000000E+00  0.45593999997E+02  0.45594000000E+02  0.51100000000E-03 0. -1.
         11   -1    0    0    0    0 -0.00000000000E+00 -0.00000000000E+00 -0.45593999997E+02  0.45594000000E+02  0.51100000000E-03 0.  1.
         23    2    1    2    0    0  0.00000000000E+00  0.00000000000E+00  0.00000000000E+00  0.91188000000E+02  0.91188000000E+02 0.  0.
    9900012    2    3    3    0    0 -0.29427698949E+02 -0.12419445967E+02  0.18317960536E+02  0.54367084996E+02  0.40000001865E+02 0.  0.
        -12    1    3    3    0    0  0.29427698949E+02  0.12419445967E+02 -0.18317960536E+02  0.36820915004E+02  0.00000000000E+00 0.  1.
         11    1    4    4    0    0 -0.26101877732E+02 -0.82796226975E+01  0.14420966211E+02  0.30948738906E+02  0.51100000000E-03 0. -1.
        -11    1    4    4    0    0  0.38291817475E+01  0.80600737975E+01  0.20407618273E+01  0.91538042132E+01  0.51100000000E-03 0.  1.
        -12    1    4    4    0    0 -0.71550029640E+01 -0.12199897067E+02  0.18562324978E+01  0.14264541876E+02  0.00000000000E+00 0.  1.
</event>
<event>
 8    1  0.1253703E-006  0.9118800E+02  0.7816164E-02  0.1184000E+00
        -11   -1    0    0    0    0  0.00000000000E+00  0.00000000000E+00  0.45593999997E+02  0.45594000000E+02  0.51100000000E-03 0.  1.
         11   -1    0    0    0    0 -0.00000000000E+00 -0.00000000000E+00 -0.45593999997E+02  0.45594000000E+02  0.51100000000E-03 0. -1.
         23    2    1    2    0    0  0.17763568394E-14  0.00000000000E+00  0.71054273576E-14  0.91188000000E+02  0.91188000000E+02 0.  0.
    9900012    2    3    3    0    0  0.14810494113E+02 -0.85327273982E+01  0.32613203579E+02  0.54367092618E+02  0.40000019242E+02 0.  0.
         12    1    3    3    0    0 -0.14810494113E+02  0.85327273982E+01 -0.32613203579E+02  0.36820907382E+02  0.00000000000E+00 0. -1.
         11    1    4    4    0    0 -0.84744603110E+01 -0.28177053269E+01  0.49124678830E+01  0.10192560122E+02  0.51100000000E-03 0. -1.
        -11    1    4    4    0    0  0.15094476658E+02 -0.10763517145E+02  0.29047384656E+02  0.34459354065E+02  0.51100000000E-03 0.  1.
        -12    1    4    4    0    0  0.81904777658E+01  0.50484950742E+01 -0.13466489602E+01  0.97151784321E+01  0.00000000000E+00 0.  1.
</event>
<event>
 8    1  0.1253703E-006  0.9118800E+02  0.7816164E-02  0.1184000E+00
        -11   -1    0    0    0    0  0.00000000000E+00  0.00000000000E+00  0.45593999997E+02  0.45594000000E+02  0.51100000000E-03 0.  1.
         11   -1    0    0    0    0 -0.00000000000E+00 -0.00000000000E+00 -0.45593999997E+02  0.45594000000E+02  0.51100000000E-03 0. -1.
         23    2    1    2    0    0  0.00000000000E+00 -0.17763568394E-14  0.00000000000E+00  0.91188000000E+02  0.91188000000E+02 0.  0.
    9900012    2    3    3    0    0  0.26434379850E+02 -0.11113635489E+02  0.23097390200E+02  0.54367098791E+02  0.40000033313E+02 0.  0.
         12    1    3    3    0    0 -0.26434379850E+02  0.11113635489E+02 -0.23097390200E+02  0.36820901209E+02  0.00000000000E+00 0. -1.
         11    1    4    4    0    0  0.41807340749E+01  0.80406521189E+01 -0.26865297523E+01  0.94524106065E+01  0.51100000000E-03 0. -1.
        -11    1    4    4    0    0  0.21649515427E+02 -0.18698806768E+02  0.11856105357E+02  0.30966338616E+02  0.51100000000E-03 0.  1.
        -12    1    4    4    0    0  0.60413034770E+00 -0.45548083948E+00  0.13927814596E+02  0.13948349568E+02  0.00000000000E+00 0.  1.
</event>
<event>
 8    1  0.1253703E-006  0.9118800E+02  0.7816164E-02  0.1184000E+00
        -11   -1    0    0    0    0  0.00000000000E+00  0.00000000000E+00  0.45593999997E+02  0.45594000000E+02  0.51100000000E-03 0. -1.
         11   -1    0    0    0    0 -0.00000000000E+00 -0.00000000000E+00 -0.45593999997E+02  0.45594000000E+02  0.51100000000E-03 0.  1.
         23    2    1    2    0    0  0.00000000000E+00  0.00000000000E+00  0.00000000000E+00  0.91188000000E+02  0.91188000000E+02 0.  0.
    9900012    2    3    3    0    0  0.33383109278E+01 -0.10875771344E+02 -0.35019327582E+02  0.54367081673E+02  0.39999994290E+02 0.  0.
         12    1    3    3    0    0 -0.33383109278E+01  0.10875771344E+02  0.35019327582E+02  0.36820918327E+02  0.00000000000E+00 0. -1.
         11    1    4    4    0    0  0.50625895342E+01  0.38971944690E+00 -0.14339501569E+01  0.52761640756E+01  0.51100000000E-03 0. -1.
        -11    1    4    4    0    0  0.63758649578E+01 -0.21577941254E+02 -0.18730474750E+02  0.29276097543E+02  0.51100000000E-03 0.  1.
         12    1    4    4    0    0 -0.81001435642E+01  0.10312450463E+02 -0.14854902674E+02  0.19814820054E+02  0.00000000000E+00 0. -1.
</event>
<event>
 8    1  0.1253703E-006  0.9118800E+02  0.7816164E-02  0.1184000E+00
        -11   -1    0    0    0    0  0.00000000000E+00  0.00000000000E+00  0.45593999997E+02  0.45594000000E+02  0.51100000000E-03 0.  1.
         11   -1    0    0    0    0 -0.00000000000E+00 -0.00000000000E+00 -0.45593999997E+02  0.45594000000E+02  0.51100000000E-03 0. -1.
         23    2    1    2    0    0  0.00000000000E+00  0.00000000000E+00  0.00000000000E+00  0.91188000000E+02  0.91188000000E+02 0.  0.
    9900012    2    3    3    0    0 -0.23315639500E+02 -0.28110723672E+02  0.46850473055E+01  0.54367061678E+02  0.39999948708E+02 0.  0.
         12    1    3    3    0    0  0.23315639500E+02  0.28110723672E+02 -0.46850473055E+01  0.36820938322E+02  0.00000000000E+00 0. -1.
         11    1    4    4    0    0 -0.19398196797E+02 -0.19569902275E+02  0.39903212708E+01  0.27842301955E+02  0.51100000000E-03 0. -1.
        -11    1    4    4    0    0 -0.14030505868E+02 -0.23586924903E+01  0.27616279736E+01  0.14492933261E+02  0.51100000000E-03 0.  1.
         12    1    4    4    0    0  0.10113063165E+02 -0.61821289064E+01 -0.20669019390E+01  0.12031826462E+02  0.00000000000E+00 0. -1.
</event>
<event>
 8    1  0.1253703E-006  0.9118800E+02  0.7816164E-02  0.1184000E+00
        -11   -1    0    0    0    0  0.00000000000E+00  0.00000000000E+00  0.45593999997E+02  0.45594000000E+02  0.51100000000E-03 0. -1.
         11   -1    0    0    0    0 -0.00000000000E+00 -0.00000000000E+00 -0.45593999997E+02  0.45594000000E+02  0.51100000000E-03 0.  1.
         23    2    1    2    0    0  0.00000000000E+00  0.00000000000E+00 -0.35527136788E-14  0.91188000000E+02  0.91188000000E+02 0.  0.
    9900012    2    3    3    0    0 -0.32129040347E+02 -0.45727690050E+01  0.17394815721E+02  0.54367284853E+02  0.40000457476E+02 0.  0.
        -12    1    3    3    0    0  0.32129040347E+02  0.45727690050E+01 -0.17394815721E+02  0.36820715147E+02  0.00000000000E+00 0.  1.
         11    1    4    4    0    0 -0.37169204391E+01  0.32890633580E+01  0.68208379353E+01  0.84354766151E+01  0.51100000000E-03 0. -1.
        -11    1    4    4    0    0 -0.31815915334E+02 -0.39726917999E+01 -0.22135937228E+01  0.32139302203E+02  0.51100000000E-03 0.  1.
        -12    1    4    4    0    0  0.34037954258E+01 -0.38891405631E+01  0.12787571509E+02  0.13792506035E+02  0.00000000000E+00 0.  1.
</event>
<event>
 8    1  0.1253703E-006  0.9118800E+02  0.7816164E-02  0.1184000E+00
        -11   -1    0    0    0    0  0.00000000000E+00  0.00000000000E+00  0.45593999997E+02  0.45594000000E+02  0.51100000000E-03 0. -1.
         11   -1    0    0    0    0 -0.00000000000E+00 -0.00000000000E+00 -0.45593999997E+02  0.45594000000E+02  0.51100000000E-03 0.  1.
         23    2    1    2    0    0  0.00000000000E+00 -0.17763568394E-14  0.71054273576E-14  0.91188000000E+02  0.91188000000E+02 0.  0.
    9900012    2    3    3    0    0  0.72535620093E+01  0.12985044259E+02  0.33683125021E+02  0.54367103115E+02  0.40000043170E+02 0.  0.
        -12    1    3    3    0    0 -0.72535620093E+01 -0.12985044259E+02 -0.33683125021E+02  0.36820896885E+02  0.00000000000E+00 0.  1.
         11    1    4    4    0    0 -0.43656605079E+01  0.12631312412E+01  0.62817525349E+01  0.77533803837E+01  0.51100000000E-03 0. -1.
        -11    1    4    4    0    0 -0.86278063191E+01  0.37318155756E+00 -0.22826585624E+01  0.89324597244E+01  0.51100000000E-03 0.  1.
        -12    1    4    4    0    0  0.20247028836E+02  0.11348731460E+02  0.29684031049E+02  0.37681263007E+02  0.00000000000E+00 0.  1.
</event>
<event>
 8    1  0.1253703E-006  0.9118800E+02  0.7816164E-02  0.1184000E+00
        -11   -1    0    0    0    0  0.00000000000E+00  0.00000000000E+00  0.45593999997E+02  0.45594000000E+02  0.51100000000E-03 0.  1.
         11   -1    0    0    0    0 -0.00000000000E+00 -0.00000000000E+00 -0.45593999997E+02  0.45594000000E+02  0.51100000000E-03 0. -1.
         23    2    1    2    0    0  0.12212453271E-14  0.66613381478E-15  0.00000000000E+00  0.91188000000E+02  0.91188000000E+02 0.  0.
    9900012    2    3    3    0    0  0.66152070028E+00 -0.12848393504E+01 -0.36792540290E+02  0.54367089599E+02  0.40000012359E+02 0.  0.
        -12    1    3    3    0    0 -0.66152070028E+00  0.12848393504E+01  0.36792540290E+02  0.36820910401E+02  0.00000000000E+00 0.  1.
         11    1    4    4    0    0 -0.99462812458E+01  0.11025826786E+02 -0.13029436792E+02  0.19755090238E+02  0.51100000000E-03 0.  1.
        -11    1    4    4    0    0  0.14531620505E+02 -0.11028622812E+02 -0.24367885529E+02  0.30439979649E+02  0.51100000000E-03 0. -1.
         12    1    4    4    0    0 -0.39238185594E+01 -0.12820433241E+01  0.60478203086E+00  0.41720197119E+01  0.00000000000E+00 0. -1.
</event>
<event>
 8    1  0.1253703E-006  0.9118800E+02  0.7816164E-02  0.1184000E+00
        -11   -1    0    0    0    0  0.00000000000E+00  0.00000000000E+00  0.45593999997E+02  0.45594000000E+02  0.51100000000E-03 0.  1.
         11   -1    0    0    0    0 -0.00000000000E+00 -0.00000000000E+00 -0.45593999997E+02  0.45594000000E+02  0.51100000000E-03 0. -1.
         23    2    1    2    0    0  0.00000000000E+00  0.53290705182E-14  0.00000000000E+00  0.91188000000E+02  0.91188000000E+02 0.  0.
    9900012    2    3    3    0    0 -0.21824658701E+02 -0.11482384257E+02  0.27342620586E+02  0.54367085072E+02  0.40000002038E+02 0.  0.
         12    1    3    3    0    0  0.21824658701E+02  0.11482384257E+02 -0.27342620586E+02  0.36820914928E+02  0.00000000000E+00 0. -1.
         11    1    4    4    0    0  0.12196199620E+01 -0.18986780916E+02  0.79697708823E+01  0.20627713654E+02  0.51100000000E-03 0. -1.
        -11    1    4    4    0    0 -0.10107059361E+02  0.10002933669E+02  0.78938743088E+01  0.16264211717E+02  0.51100000000E-03 0.  1.
        -12    1    4    4    0    0 -0.12937219302E+02 -0.24985370104E+01  0.11478975395E+02  0.17475159701E+02  0.00000000000E+00 0.  1.
</event>
<event>
 8    1  0.1253703E-006  0.9118800E+02  0.7816164E-02  0.1184000E+00
        -11   -1    0    0    0    0  0.00000000000E+00  0.00000000000E+00  0.45593999997E+02  0.45594000000E+02  0.51100000000E-03 0. -1.
         11   -1    0    0    0    0 -0.00000000000E+00 -0.00000000000E+00 -0.45593999997E+02  0.45594000000E+02  0.51100000000E-03 0.  1.
         23    2    1    2    0    0  0.17763568394E-14  0.10547118734E-14 -0.71054273576E-14  0.91188000000E+02  0.91188000000E+02 0.  0.
    9900012    2    3    3    0    0  0.11485868772E+02  0.24422519964E+00  0.34982792357E+02  0.54367074040E+02  0.39999976890E+02 0.  0.
        -12    1    3    3    0    0 -0.11485868772E+02 -0.24422519964E+00 -0.34982792357E+02  0.36820925960E+02  0.00000000000E+00 0.  1.
         11    1    4    4    0    0 -0.12819476980E+01 -0.29156996019E+01  0.23506739886E+02  0.23721541147E+02  0.51100000000E-03 0. -1.
        -11    1    4    4    0    0  0.19068650744E+02  0.76587796580E+01  0.95909716073E+01  0.22677237126E+02  0.51100000000E-03 0.  1.
        -12    1    4    4    0    0 -0.63008342742E+01 -0.44988548564E+01  0.18850808645E+01  0.79682957673E+01  0.00000000000E+00 0.  1.
</event>
<event>
 8    1  0.1253703E-006  0.9118800E+02  0.7816164E-02  0.1184000E+00
        -11   -1    0    0    0    0  0.00000000000E+00  0.00000000000E+00  0.45593999997E+02  0.45594000000E+02  0.51100000000E-03 0. -1.
         11   -1    0    0    0    0 -0.00000000000E+00 -0.00000000000E+00 -0.45593999997E+02  0.45594000000E+02  0.51100000000E-03 0.  1.
         23    2    1    2    0    0  0.00000000000E+00  0.17763568394E-14  0.00000000000E+00  0.91188000000E+02  0.91188000000E+02 0.  0.
    9900012    2    3    3    0    0  0.13175528501E+02  0.48141283351E+01  0.34044289496E+02  0.54367027305E+02  0.39999870347E+02 0.  0.
        -12    1    3    3    0    0 -0.13175528501E+02 -0.48141283351E+01 -0.34044289496E+02  0.36820972695E+02  0.00000000000E+00 0.  1.
         11    1    4    4    0    0  0.11074400036E+02 -0.89278387203E+01  0.29529876059E+02  0.32777465135E+02  0.51100000000E-03 0. -1.
        -11    1    4    4    0    0 -0.49089288493E+01  0.96103979559E+01  0.72548668459E+01  0.13003477401E+02  0.51100000000E-03 0.  1.
         12    1    4    4    0    0  0.70100573140E+01  0.41315690995E+01 -0.27404534083E+01  0.85860847686E+01  0.00000000000E+00 0. -1.
</event>
<event>
 8    1  0.1253703E-006  0.9118800E+02  0.7816164E-02  0.1184000E+00
        -11   -1    0    0    0    0  0.00000000000E+00  0.00000000000E+00  0.45593999997E+02  0.45594000000E+02  0.51100000000E-03 0. -1.
         11   -1    0    0    0    0 -0.00000000000E+00 -0.00000000000E+00 -0.45593999997E+02  0.45594000000E+02  0.51100000000E-03 0.  1.
         23    2    1    2    0    0 -0.88817841970E-15  0.00000000000E+00  0.00000000000E+00  0.91188000000E+02  0.91188000000E+02 0.  0.
    9900012    2    3    3    0    0 -0.77309171683E+01 -0.50950715638E+01 -0.35637807619E+02  0.54367079772E+02  0.39999989957E+02 0.  0.
         12    1    3    3    0    0  0.77309171683E+01  0.50950715638E+01  0.35637807619E+02  0.36820920228E+02  0.00000000000E+00 0. -1.
         11    1    4    4    0    0 -0.14851689346E+01  0.72008240460E+01  0.19482059470E+01  0.76061225587E+01  0.51100000000E-03 0. -1.
        -11    1    4    4    0    0  0.34296714527E+01 -0.40737944007E+01 -0.32740382235E+02  0.33170635753E+02  0.51100000000E-03 0.  1.
         12    1    4    4    0    0 -0.96754196865E+01 -0.82221012090E+01 -0.48456313310E+01  0.13590321460E+02  0.00000000000E+00 0. -1.
</event>
<event>
 8    1  0.1253703E-006  0.9118800E+02  0.7816164E-02  0.1184000E+00
        -11   -1    0    0    0    0  0.00000000000E+00  0.00000000000E+00  0.45593999997E+02  0.45594000000E+02  0.51100000000E-03 0.  1.
         11   -1    0    0    0    0 -0.00000000000E+00 -0.00000000000E+00 -0.45593999997E+02  0.45594000000E+02  0.51100000000E-03 0. -1.
         23    2    1    2    0    0 -0.44408920985E-15  0.71054273576E-14 -0.35527136788E-14  0.91188000000E+02  0.91188000000E+02 0.  0.
    9900012    2    3    3    0    0  0.30539811504E+01 -0.22671753289E+02  0.28852108543E+02  0.54367090649E+02  0.40000014753E+02 0.  0.
         12    1    3    3    0    0 -0.30539811504E+01  0.22671753289E+02 -0.28852108543E+02  0.36820909351E+02  0.00000000000E+00 0. -1.
         11    1    4    4    0    0  0.43321757892E+01 -0.21273820330E+02  0.45993843639E+01  0.22192285040E+02  0.51100000000E-03 0. -1.
        -11    1    4    4    0    0  0.60639775872E+01 -0.56899352754E+01  0.21786974998E+02  0.23319937124E+02  0.51100000000E-03 0.  1.
        -12    1    4    4    0    0 -0.73421722260E+01  0.42920023166E+01  0.24657491806E+01  0.88548684859E+01  0.00000000000E+00 0.  1.
</event>
<event>
 8    1  0.1253703E-006  0.9118800E+02  0.7816164E-02  0.1184000E+00
        -11   -1    0    0    0    0  0.00000000000E+00  0.00000000000E+00  0.45593999997E+02  0.45594000000E+02  0.51100000000E-03 0. -1.
         11   -1    0    0    0    0 -0.00000000000E+00 -0.00000000000E+00 -0.45593999997E+02  0.45594000000E+02  0.51100000000E-03 0.  1.
         23    2    1    2    0    0  0.00000000000E+00  0.35527136788E-14  0.00000000000E+00  0.91188000000E+02  0.91188000000E+02 0.  0.
    9900012    2    3    3    0    0 -0.18216236754E+02  0.30185102126E+02 -0.10621152292E+02  0.54367074593E+02  0.39999978149E+02 0.  0.
        -12    1    3    3    0    0  0.18216236754E+02 -0.30185102126E+02  0.10621152292E+02  0.36820925407E+02  0.00000000000E+00 0.  1.
         11    1    4    4    0    0 -0.17602029252E+02  0.22442683596E+02  0.28381431739E+01  0.28662877345E+02  0.51100000000E-03 0. -1.
        -11    1    4    4    0    0 -0.28145360369E+01 -0.61902115911E+01 -0.81942524735E+01  0.10648291248E+02  0.51100000000E-03 0.  1.
        -12    1    4    4    0    0  0.22003285341E+01  0.13932630121E+02 -0.52650429922E+01  0.15055905999E+02  0.00000000000E+00 0.  1.
</event>
<event>
 8    1  0.1253703E-006  0.9118800E+02  0.7816164E-02  0.1184000E+00
        -11   -1    0    0    0    0  0.00000000000E+00  0.00000000000E+00  0.45593999997E+02  0.45594000000E+02  0.51100000000E-03 0.  1.
         11   -1    0    0    0    0 -0.00000000000E+00 -0.00000000000E+00 -0.45593999997E+02  0.45594000000E+02  0.51100000000E-03 0. -1.
         23    2    1    2    0    0  0.00000000000E+00  0.00000000000E+00 -0.22204460493E-15  0.91188000000E+02  0.91188000000E+02 0.  0.
    9900012    2    3    3    0    0 -0.17460625139E+02 -0.32399784544E+02  0.10772413000E+01  0.54367083152E+02  0.39999997661E+02 0.  0.
         12    1    3    3    0    0  0.17460625139E+02  0.32399784544E+02 -0.10772413000E+01  0.36820916848E+02  0.00000000000E+00 0. -1.
         11    1    4    4    0    0 -0.50128238523E+01 -0.17707347914E+02  0.92570286147E+00  0.18426489063E+02  0.51100000000E-03 0. -1.
        -11    1    4    4    0    0 -0.46503046843E+01 -0.16079171870E+02  0.12762709424E+02  0.21048796968E+02  0.51100000000E-03 0.  1.
         12    1    4    4    0    0 -0.77974966020E+01  0.13867352404E+01 -0.12611170985E+02  0.14891797121E+02  0.00000000000E+00 0. -1.
</event>
<event>
 8    1  0.1253703E-006  0.9118800E+02  0.7816164E-02  0.1184000E+00
        -11   -1    0    0    0    0  0.00000000000E+00  0.00000000000E+00  0.45593999997E+02  0.45594000000E+02  0.51100000000E-03 0. -1.
         11   -1    0    0    0    0 -0.00000000000E+00 -0.00000000000E+00 -0.45593999997E+02  0.45594000000E+02  0.51100000000E-03 0.  1.
         23    2    1    2    0    0  0.00000000000E+00  0.53290705182E-14  0.00000000000E+00  0.91188000000E+02  0.91188000000E+02 0.  0.
    9900012    2    3    3    0    0  0.75208554543E+01  0.13179242801E+02  0.33548859600E+02  0.54367059110E+02  0.39999942853E+02 0.  0.
        -12    1    3    3    0    0 -0.75208554543E+01 -0.13179242801E+02 -0.33548859600E+02  0.36820940890E+02  0.00000000000E+00 0.  1.
         11    1    4    4    0    0  0.64664757518E+01 -0.45423276967E+01  0.46428901413E+01  0.91653957185E+01  0.51100000000E-03 0. -1.
        -11    1    4    4    0    0  0.20493962548E+01  0.26028916540E+02  0.24213121172E+02  0.35608703408E+02  0.51100000000E-03 0.  1.
         12    1    4    4    0    0 -0.99501655233E+00 -0.83073460425E+01  0.46928482864E+01  0.95929599837E+01  0.00000000000E+00 0. -1.
</event>
<event>
 8    1  0.1253703E-006  0.9118800E+02  0.7816164E-02  0.1184000E+00
        -11   -1    0    0    0    0  0.00000000000E+00  0.00000000000E+00  0.45593999997E+02  0.45594000000E+02  0.51100000000E-03 0. -1.
         11   -1    0    0    0    0 -0.00000000000E+00 -0.00000000000E+00 -0.45593999997E+02  0.45594000000E+02  0.51100000000E-03 0.  1.
         23    2    1    2    0    0  0.00000000000E+00 -0.17763568394E-14  0.00000000000E+00  0.91188000000E+02  0.91188000000E+02 0.  0.
    9900012    2    3    3    0    0  0.20617458107E+02  0.13879476198E+02 -0.27167285133E+02  0.54367070900E+02  0.39999969730E+02 0.  0.
         12    1    3    3    0    0 -0.20617458107E+02 -0.13879476198E+02  0.27167285133E+02  0.36820929100E+02  0.00000000000E+00 0. -1.
         11    1    4    4    0    0  0.15630575841E+02 -0.22115626469E+01  0.36571347555E+01  0.16204337239E+02  0.51100000000E-03 0. -1.
        -11    1    4    4    0    0  0.70240028521E+01  0.53840241214E+01 -0.23284804616E+02  0.24909967043E+02  0.51100000000E-03 0.  1.
         12    1    4    4    0    0 -0.20371205866E+01  0.10707014724E+02 -0.75396152719E+01  0.13252766618E+02  0.00000000000E+00 0. -1.
</event>
<event>
 8    1  0.1253703E-006  0.9118800E+02  0.7816164E-02  0.1184000E+00
        -11   -1    0    0    0    0  0.00000000000E+00  0.00000000000E+00  0.45593999997E+02  0.45594000000E+02  0.51100000000E-03 0.  1.
         11   -1    0    0    0    0 -0.00000000000E+00 -0.00000000000E+00 -0.45593999997E+02  0.45594000000E+02  0.51100000000E-03 0. -1.
         23    2    1    2    0    0  0.00000000000E+00 -0.17763568394E-14 -0.88817841970E-15  0.91188000000E+02  0.91188000000E+02 0.  0.
    9900012    2    3    3    0    0  0.33320258499E+02  0.15090731612E+02  0.42202275293E+01  0.54367080301E+02  0.39999991163E+02 0.  0.
         12    1    3    3    0    0 -0.33320258499E+02 -0.15090731612E+02 -0.42202275293E+01  0.36820919699E+02  0.00000000000E+00 0. -1.
         11    1    4    4    0    0  0.14498063607E+01 -0.81002557136E+01  0.58496701930E+01  0.10096272715E+02  0.51100000000E-03 0. -1.
        -11    1    4    4    0    0  0.27607381306E+02  0.17552252888E+02  0.66505163468E+01  0.33383805235E+02  0.51100000000E-03 0.  1.
        -12    1    4    4    0    0  0.42630708326E+01  0.56387344373E+01 -0.82799590105E+01  0.10887002351E+02  0.00000000000E+00 0.  1.
</event>
<event>
 8    1  0.1253703E-006  0.9118800E+02  0.7816164E-02  0.1184000E+00
        -11   -1    0    0    0    0  0.00000000000E+00  0.00000000000E+00  0.45593999997E+02  0.45594000000E+02  0.51100000000E-03 0. -1.
         11   -1    0    0    0    0 -0.00000000000E+00 -0.00000000000E+00 -0.45593999997E+02  0.45594000000E+02  0.51100000000E-03 0.  1.
         23    2    1    2    0    0  0.35527136788E-14  0.00000000000E+00  0.35527136788E-14  0.91188000000E+02  0.91188000000E+02 0.  0.
    9900012    2    3    3    0    0  0.28009198933E+02 -0.11733457292E+02 -0.20822836811E+02  0.54367085050E+02  0.40000001988E+02 0.  0.
         12    1    3    3    0    0 -0.28009198933E+02  0.11733457292E+02  0.20822836811E+02  0.36820914950E+02  0.00000000000E+00 0. -1.
         11    1    4    4    0    0  0.21566592803E+02 -0.25953041086E+01 -0.85875434909E+01  0.23358069954E+02  0.51100000000E-03 0. -1.
        -11    1    4    4    0    0  0.96157356875E+01  0.25337694831E+01  0.40382531137E+01  0.10732653403E+02  0.51100000000E-03 0.  1.
        -12    1    4    4    0    0 -0.31731295567E+01 -0.11671922666E+02 -0.16273546434E+02  0.20276361692E+02  0.00000000000E+00 0.  1.
</event>
<event>
 8    1  0.1253703E-006  0.9118800E+02  0.7816164E-02  0.1184000E+00
        -11   -1    0    0    0    0  0.00000000000E+00  0.00000000000E+00  0.45593999997E+02  0.45594000000E+02  0.51100000000E-03 0.  1.
         11   -1    0    0    0    0 -0.00000000000E+00 -0.00000000000E+00 -0.45593999997E+02  0.45594000000E+02  0.51100000000E-03 0. -1.
         23    2    1    2    0    0  0.00000000000E+00 -0.88817841970E-15  0.00000000000E+00  0.91188000000E+02  0.91188000000E+02 0.  0.
    9900012    2    3    3    0    0 -0.12145838084E+01 -0.55091207254E+01  0.36386172104E+02  0.54367093638E+02  0.40000021566E+02 0.  0.
         12    1    3    3    0    0  0.12145838084E+01  0.55091207254E+01 -0.36386172104E+02  0.36820906362E+02  0.00000000000E+00 0. -1.
         11    1    4    4    0    0 -0.69967861549E+01 -0.93834241338E+01 -0.41667844829E+01  0.12424401722E+02  0.51100000000E-03 0. -1.
        -11    1    4    4    0    0 -0.18297880728E+01  0.26848519558E+00  0.13005314029E+02  0.13136148672E+02  0.51100000000E-03 0.  1.
         12    1    4    4    0    0  0.76119904193E+01  0.36058182128E+01  0.27547642558E+02  0.28806543243E+02  0.00000000000E+00 0. -1.
</event>
<event>
 8    1  0.1253703E-006  0.9118800E+02  0.7816164E-02  0.1184000E+00
        -11   -1    0    0    0    0  0.00000000000E+00  0.00000000000E+00  0.45593999997E+02  0.45594000000E+02  0.51100000000E-03 0.  1.
         11   -1    0    0    0    0 -0.00000000000E+00 -0.00000000000E+00 -0.45593999997E+02  0.45594000000E+02  0.51100000000E-03 0. -1.
         23    2    1    2    0    0  0.00000000000E+00 -0.35527136788E-14  0.00000000000E+00  0.91188000000E+02  0.91188000000E+02 0.  0.
    9900012    2    3    3    0    0 -0.41065370531E+01 -0.83171009015E+01 -0.35633449899E+02  0.54367074351E+02  0.39999977597E+02 0.  0.
        -12    1    3    3    0    0  0.41065370531E+01  0.83171009015E+01  0.35633449899E+02  0.36820925649E+02  0.00000000000E+00 0.  1.
         11    1    4    4    0    0  0.31293441428E+00  0.11180102044E+02 -0.61665790383E+01  0.12771816901E+02  0.51100000000E-03 0. -1.
        -11    1    4    4    0    0 -0.37311792749E-01 -0.65525996600E+01  0.23549158798E+01  0.69630154055E+01  0.51100000000E-03 0.  1.
         12    1    4    4    0    0 -0.43821596747E+01 -0.12944603286E+02 -0.31821786740E+02  0.34632242044E+02  0.00000000000E+00 0. -1.
</event>
<event>
 8    1  0.1253703E-006  0.9118800E+02  0.7816164E-02  0.1184000E+00
        -11   -1    0    0    0    0  0.00000000000E+00  0.00000000000E+00  0.45593999997E+02  0.45594000000E+02  0.51100000000E-03 0.  1.
         11   -1    0    0    0    0 -0.00000000000E+00 -0.00000000000E+00 -0.45593999997E+02  0.45594000000E+02  0.51100000000E-03 0. -1.
         23    2    1    2    0    0 -0.44408920985E-15  0.00000000000E+00  0.00000000000E+00  0.91188000000E+02  0.91188000000E+02 0.  0.
    9900012    2    3    3    0    0  0.16806240805E+01 -0.10278559890E+02  0.35317261302E+02  0.54367051661E+02  0.39999925871E+02 0.  0.
         12    1    3    3    0    0 -0.16806240805E+01  0.10278559890E+02 -0.35317261302E+02  0.36820948339E+02  0.00000000000E+00 0. -1.
         11    1    4    4    0    0 -0.20110592028E+01 -0.90786346337E+01 -0.43034935227E+01  0.10246268720E+02  0.51100000000E-03 0. -1.
        -11    1    4    4    0    0  0.56098209694E+01 -0.75546252485E+01  0.98627879999E+01  0.13631472457E+02  0.51100000000E-03 0.  1.
         12    1    4    4    0    0 -0.19181376861E+01  0.63546999925E+01  0.29757966825E+02  0.30489310483E+02  0.00000000000E+00 0. -1.
</event>
<event>
 8    1  0.1253703E-006  0.9118800E+02  0.7816164E-02  0.1184000E+00
        -11   -1    0    0    0    0  0.00000000000E+00  0.00000000000E+00  0.45593999997E+02  0.45594000000E+02  0.51100000000E-03 0. -1.
         11   -1    0    0    0    0 -0.00000000000E+00 -0.00000000000E+00 -0.45593999997E+02  0.45594000000E+02  0.51100000000E-03 0.  1.
         23    2    1    2    0    0 -0.88817841970E-15 -0.13322676296E-14  0.00000000000E+00  0.91188000000E+02  0.91188000000E+02 0.  0.
    9900012    2    3    3    0    0  0.39871377430E+01 -0.16856380265E+01 -0.36565590194E+02  0.54367068057E+02  0.39999963250E+02 0.  0.
         12    1    3    3    0    0 -0.39871377430E+01  0.16856380265E+01  0.36565590194E+02  0.36820931943E+02  0.00000000000E+00 0. -1.
         11    1    4    4    0    0  0.12558293048E+02 -0.15601454163E+01 -0.21973348084E+02  0.25356908413E+02  0.51100000000E-03 0. -1.
        -11    1    4    4    0    0  0.71589798231E+01  0.41051839358E+01 -0.78208143880E+01  0.11369637866E+02  0.51100000000E-03 0.  1.
        -12    1    4    4    0    0 -0.15730135128E+02 -0.42306765461E+01 -0.67714277219E+01  0.17640521778E+02  0.00000000000E+00 0.  1.
</event>
<event>
 8    1  0.1253703E-006  0.9118800E+02  0.7816164E-02  0.1184000E+00
        -11   -1    0    0    0    0  0.00000000000E+00  0.00000000000E+00  0.45593999997E+02  0.45594000000E+02  0.51100000000E-03 0. -1.
         11   -1    0    0    0    0 -0.00000000000E+00 -0.00000000000E+00 -0.45593999997E+02  0.45594000000E+02  0.51100000000E-03 0.  1.
         23    2    1    2    0    0  0.00000000000E+00  0.00000000000E+00  0.00000000000E+00  0.91188000000E+02  0.91188000000E+02 0.  0.
    9900012    2    3    3    0    0 -0.23757369630E+02  0.17009301032E+02 -0.22406463564E+02  0.54367101820E+02  0.40000040220E+02 0.  0.
         12    1    3    3    0    0  0.23757369630E+02 -0.17009301032E+02  0.22406463564E+02  0.36820898180E+02  0.00000000000E+00 0. -1.
         11    1    4    4    0    0 -0.29332054960E+01 -0.51661687515E+01 -0.16209323541E+01  0.61579555055E+01  0.51100000000E-03 0. -1.
        -11    1    4    4    0    0 -0.20153258023E+02  0.29105974061E+02 -0.21146401748E+02  0.41236899037E+02  0.51100000000E-03 0.  1.
        -12    1    4    4    0    0 -0.67090611050E+00 -0.69305042783E+01  0.36087053844E+00  0.69722472780E+01  0.00000000000E+00 0.  1.
</event>
<event>
 8    1  0.1253703E-006  0.9118800E+02  0.7816164E-02  0.1184000E+00
        -11   -1    0    0    0    0  0.00000000000E+00  0.00000000000E+00  0.45593999997E+02  0.45594000000E+02  0.51100000000E-03 0. -1.
         11   -1    0    0    0    0 -0.00000000000E+00 -0.00000000000E+00 -0.45593999997E+02  0.45594000000E+02  0.51100000000E-03 0.  1.
         23    2    1    2    0    0 -0.35527136788E-14  0.00000000000E+00 -0.35527136788E-14  0.91188000000E+02  0.91188000000E+02 0.  0.
    9900012    2    3    3    0    0 -0.16085789526E+02  0.17205553206E+02 -0.28301894966E+02  0.54367069207E+02  0.39999965871E+02 0.  0.
         12    1    3    3    0    0  0.16085789526E+02 -0.17205553206E+02  0.28301894966E+02  0.36820930793E+02  0.00000000000E+00 0. -1.
         11    1    4    4    0    0 -0.12283839735E+02 -0.84724552965E+01 -0.96277314448E+01  0.17758615668E+02  0.51100000000E-03 0. -1.
        -11    1    4    4    0    0 -0.10777542680E+02  0.17455922632E+02 -0.14114758897E+02  0.24901628062E+02  0.51100000000E-03 0.  1.
         12    1    4    4    0    0  0.69755928895E+01  0.82220858708E+01 -0.45594046246E+01  0.11706825477E+02  0.00000000000E+00 0. -1.
</event>
<event>
 8    1  0.1253703E-006  0.9118800E+02  0.7816164E-02  0.1184000E+00
        -11   -1    0    0    0    0  0.00000000000E+00  0.00000000000E+00  0.45593999997E+02  0.45594000000E+02  0.51100000000E-03 0.  1.
         11   -1    0    0    0    0 -0.00000000000E+00 -0.00000000000E+00 -0.45593999997E+02  0.45594000000E+02  0.51100000000E-03 0. -1.
         23    2    1    2    0    0  0.00000000000E+00  0.00000000000E+00 -0.88817841970E-15  0.91188000000E+02  0.91188000000E+02 0.  0.
    9900012    2    3    3    0    0  0.16635077608E+02  0.32579261421E+02 -0.42007326152E+01  0.54367078823E+02  0.39999987794E+02 0.  0.
        -12    1    3    3    0    0 -0.16635077608E+02 -0.32579261421E+02  0.42007326152E+01  0.36820921177E+02  0.00000000000E+00 0.  1.
         11    1    4    4    0    0  0.26462175103E+02  0.28350379294E+02 -0.22978702920E+00  0.38781999944E+02  0.51100000000E-03 0. -1.
        -11    1    4    4    0    0 -0.11202703846E+01 -0.25968400838E+01  0.15451811950E+01  0.32227580334E+01  0.51100000000E-03 0.  1.
         12    1    4    4    0    0 -0.87068271106E+01  0.68257222115E+01 -0.55161267810E+01  0.12362320846E+02  0.00000000000E+00 0. -1.
</event>
<event>
 8    1  0.1253703E-006  0.9118800E+02  0.7816164E-02  0.1184000E+00
        -11   -1    0    0    0    0  0.00000000000E+00  0.00000000000E+00  0.45593999997E+02  0.45594000000E+02  0.51100000000E-03 0. -1.
         11   -1    0    0    0    0 -0.00000000000E+00 -0.00000000000E+00 -0.45593999997E+02  0.45594000000E+02  0.51100000000E-03 0.  1.
         23    2    1    2    0    0 -0.13322676296E-14  0.00000000000E+00  0.00000000000E+00  0.91188000000E+02  0.91188000000E+02 0.  0.
    9900012    2    3    3    0    0 -0.30934864469E+01  0.22431018001E+02  0.29035487910E+02  0.54367084950E+02  0.40000001760E+02 0.  0.
        -12    1    3    3    0    0  0.30934864469E+01 -0.22431018001E+02 -0.29035487910E+02  0.36820915050E+02  0.00000000000E+00 0.  1.
         11    1    4    4    0    0 -0.98102727917E+01  0.87700882153E+01  0.10391715739E+02  0.16767338960E+02  0.51100000000E-03 0. -1.
        -11    1    4    4    0    0 -0.71215705126E+01  0.78477081551E+01 -0.32234731741E+01  0.11076735504E+02  0.51100000000E-03 0.  1.
         12    1    4    4    0    0  0.13838356857E+02  0.58132216304E+01  0.21867245346E+02  0.26523010486E+02  0.00000000000E+00 0. -1.
</event>
<event>
 8    1  0.1253703E-006  0.9118800E+02  0.7816164E-02  0.1184000E+00
        -11   -1    0    0    0    0  0.00000000000E+00  0.00000000000E+00  0.45593999997E+02  0.45594000000E+02  0.51100000000E-03 0.  1.
         11   -1    0    0    0    0 -0.00000000000E+00 -0.00000000000E+00 -0.45593999997E+02  0.45594000000E+02  0.51100000000E-03 0. -1.
         23    2    1    2    0    0  0.00000000000E+00  0.00000000000E+00  0.35527136788E-14  0.91188000000E+02  0.91188000000E+02 0.  0.
    9900012    2    3    3    0    0 -0.21633079687E+02  0.21806926009E+02  0.20303872428E+02  0.54367090257E+02  0.40000013860E+02 0.  0.
         12    1    3    3    0    0  0.21633079687E+02 -0.21806926009E+02 -0.20303872428E+02  0.36820909743E+02  0.00000000000E+00 0. -1.
         11    1    4    4    0    0 -0.37776635750E+01 -0.74620082170E+00  0.16913877770E+02  0.17346665940E+02  0.51100000000E-03 0. -1.
        -11    1    4    4    0    0 -0.11428028633E+02 -0.18170156824E+01 -0.13015328657E+00  0.11572308524E+02  0.51100000000E-03 0.  1.
         12    1    4    4    0    0 -0.64273874786E+01  0.24370142513E+02  0.35201479451E+01  0.25448115794E+02  0.00000000000E+00 0. -1.
</event>
<event>
 8    1  0.1253703E-006  0.9118800E+02  0.7816164E-02  0.1184000E+00
        -11   -1    0    0    0    0  0.00000000000E+00  0.00000000000E+00  0.45593999997E+02  0.45594000000E+02  0.51100000000E-03 0.  1.
         11   -1    0    0    0    0 -0.00000000000E+00 -0.00000000000E+00 -0.45593999997E+02  0.45594000000E+02  0.51100000000E-03 0. -1.
         23    2    1    2    0    0  0.00000000000E+00  0.00000000000E+00  0.00000000000E+00  0.91188000000E+02  0.91188000000E+02 0.  0.
    9900012    2    3    3    0    0 -0.53267552432E+01 -0.33729292102E+02  0.13774719547E+02  0.54367049907E+02  0.39999921874E+02 0.  0.
         12    1    3    3    0    0  0.53267552432E+01  0.33729292102E+02 -0.13774719547E+02  0.36820950093E+02  0.00000000000E+00 0. -1.
         11    1    4    4    0    0  0.19250405936E+01 -0.88380567100E+00  0.34693438961E+01  0.40648789751E+01  0.51100000000E-03 0. -1.
        -11    1    4    4    0    0 -0.35910724882E+01 -0.21520658864E+02 -0.12087576015E+02  0.24942815674E+02  0.51100000000E-03 0.  1.
        -12    1    4    4    0    0 -0.36607233486E+01 -0.11324827567E+02  0.22392951665E+02  0.25359355258E+02  0.00000000000E+00 0.  1.
</event>
<event>
 8    1  0.1253703E-006  0.9118800E+02  0.7816164E-02  0.1184000E+00
        -11   -1    0    0    0    0  0.00000000000E+00  0.00000000000E+00  0.45593999997E+02  0.45594000000E+02  0.51100000000E-03 0.  1.
         11   -1    0    0    0    0 -0.00000000000E+00 -0.00000000000E+00 -0.45593999997E+02  0.45594000000E+02  0.51100000000E-03 0. -1.
         23    2    1    2    0    0 -0.35527136788E-14  0.00000000000E+00  0.00000000000E+00  0.91188000000E+02  0.91188000000E+02 0.  0.
    9900012    2    3    3    0    0  0.22260626146E+02  0.15180249120E+02  0.25095879309E+02  0.54367101069E+02  0.40000038507E+02 0.  0.
         12    1    3    3    0    0 -0.22260626146E+02 -0.15180249120E+02 -0.25095879309E+02  0.36820898931E+02  0.00000000000E+00 0. -1.
         11    1    4    4    0    0  0.28220053394E+01 -0.29063792954E+01  0.79875591857E+01  0.89561072320E+01  0.51100000000E-03 0. -1.
        -11    1    4    4    0    0 -0.16166920949E+01  0.45461313561E+01 -0.83897917480E+01  0.96783061262E+01  0.51100000000E-03 0.  1.
        -12    1    4    4    0    0  0.21055312902E+02  0.13540497060E+02  0.25498111872E+02  0.35732687711E+02  0.00000000000E+00 0.  1.
</event>
<event>
 8    1  0.1253703E-006  0.9118800E+02  0.7816164E-02  0.1184000E+00
        -11   -1    0    0    0    0  0.00000000000E+00  0.00000000000E+00  0.45593999997E+02  0.45594000000E+02  0.51100000000E-03 0.  1.
         11   -1    0    0    0    0 -0.00000000000E+00 -0.00000000000E+00 -0.45593999997E+02  0.45594000000E+02  0.51100000000E-03 0. -1.
         23    2    1    2    0    0 -0.55511151231E-15  0.88817841970E-15  0.00000000000E+00  0.91188000000E+02  0.91188000000E+02 0.  0.
    9900012    2    3    3    0    0 -0.70170991197E+00 -0.70304219076E+01 -0.36136700502E+02  0.54367077250E+02  0.39999984207E+02 0.  0.
        -12    1    3    3    0    0  0.70170991197E+00  0.70304219076E+01  0.36136700502E+02  0.36820922750E+02  0.00000000000E+00 0.  1.
         11    1    4    4    0    0  0.35087595901E+01  0.35941572221E+01 -0.93259335492E+01  0.10592563279E+02  0.51100000000E-03 0. -1.
        -11    1    4    4    0    0 -0.12588783019E+02  0.45710159772E+01 -0.22019889265E+02  0.25772993006E+02  0.51100000000E-03 0.  1.
        -12    1    4    4    0    0  0.83783135171E+01 -0.15195595107E+02 -0.47908776874E+01  0.18001520965E+02  0.00000000000E+00 0.  1.
</event>
<event>
 8    1  0.1253703E-006  0.9118800E+02  0.7816164E-02  0.1184000E+00
        -11   -1    0    0    0    0  0.00000000000E+00  0.00000000000E+00  0.45593999997E+02  0.45594000000E+02  0.51100000000E-03 0.  1.
         11   -1    0    0    0    0 -0.00000000000E+00 -0.00000000000E+00 -0.45593999997E+02  0.45594000000E+02  0.51100000000E-03 0. -1.
         23    2    1    2    0    0 -0.35527136788E-14 -0.35527136788E-14 -0.17763568394E-14  0.91188000000E+02  0.91188000000E+02 0.  0.
    9900012    2    3    3    0    0  0.25681495118E+02  0.21218828387E+02 -0.15684438032E+02  0.54367089283E+02  0.40000011640E+02 0.  0.
         12    1    3    3    0    0 -0.25681495118E+02 -0.21218828387E+02  0.15684438032E+02  0.36820910717E+02  0.00000000000E+00 0. -1.
         11    1    4    4    0    0  0.28798139687E+01  0.74556729576E+01 -0.76666712152E+01  0.11075117856E+02  0.51100000000E-03 0. -1.
        -11    1    4    4    0    0 -0.30516130540E+01  0.14672755349E+02 -0.88584450003E+01  0.17409024667E+02  0.51100000000E-03 0.  1.
         12    1    4    4    0    0  0.25853294204E+02 -0.90959991984E+00  0.84067818377E+00  0.25882946760E+02  0.00000000000E+00 0. -1.
</event>
<event>
 8    1  0.1253703E-006  0.9118800E+02  0.7816164E-02  0.1184000E+00
        -11   -1    0    0    0    0  0.00000000000E+00  0.00000000000E+00  0.45593999997E+02  0.45594000000E+02  0.51100000000E-03 0. -1.
         11   -1    0    0    0    0 -0.00000000000E+00 -0.00000000000E+00 -0.45593999997E+02  0.45594000000E+02  0.51100000000E-03 0.  1.
         23    2    1    2    0    0  0.00000000000E+00  0.00000000000E+00 -0.35527136788E-14  0.91188000000E+02  0.91188000000E+02 0.  0.
    9900012    2    3    3    0    0  0.16304113540E+02 -0.20394940119E+02 -0.25961537762E+02  0.54367093659E+02  0.40000021615E+02 0.  0.
         12    1    3    3    0    0 -0.16304113540E+02  0.20394940119E+02  0.25961537762E+02  0.36820906341E+02  0.00000000000E+00 0. -1.
         11    1    4    4    0    0  0.98824872389E+01 -0.68600686652E+00 -0.43984836517E+01  0.10838856865E+02  0.51100000000E-03 0. -1.
        -11    1    4    4    0    0  0.82195797829E+01  0.66645321575E+01 -0.23251924521E+01  0.10834389733E+02  0.51100000000E-03 0.  1.
         12    1    4    4    0    0 -0.17979534819E+01 -0.26373465410E+02 -0.19237861659E+02  0.32693847061E+02  0.00000000000E+00 0. -1.
</event>
<event>
 8    1  0.1253703E-006  0.9118800E+02  0.7816164E-02  0.1184000E+00
        -11   -1    0    0    0    0  0.00000000000E+00  0.00000000000E+00  0.45593999997E+02  0.45594000000E+02  0.51100000000E-03 0.  1.
         11   -1    0    0    0    0 -0.00000000000E+00 -0.00000000000E+00 -0.45593999997E+02  0.45594000000E+02  0.51100000000E-03 0. -1.
         23    2    1    2    0    0  0.35527136788E-14  0.00000000000E+00  0.00000000000E+00  0.91188000000E+02  0.91188000000E+02 0.  0.
    9900012    2    3    3    0    0  0.28393769326E+02 -0.52123304251E+01  0.22856165063E+02  0.54367098241E+02  0.40000032059E+02 0.  0.
         12    1    3    3    0    0 -0.28393769326E+02  0.52123304251E+01 -0.22856165063E+02  0.36820901759E+02  0.00000000000E+00 0. -1.
         11    1    4    4    0    0  0.17197815024E+02 -0.13021525653E+02 -0.54840712262E+01  0.22257583189E+02  0.51100000000E-03 0. -1.
        -11    1    4    4    0    0  0.21947741434E+01  0.30241048572E+01  0.14163991253E+02  0.14648579870E+02  0.51100000000E-03 0.  1.
         12    1    4    4    0    0  0.90011801584E+01  0.47850903705E+01  0.14176245036E+02  0.17460935181E+02  0.00000000000E+00 0. -1.
</event>
<event>
 8    1  0.1253703E-006  0.9118800E+02  0.7816164E-02  0.1184000E+00
        -11   -1    0    0    0    0  0.00000000000E+00  0.00000000000E+00  0.45593999997E+02  0.45594000000E+02  0.51100000000E-03 0.  1.
         11   -1    0    0    0    0 -0.00000000000E+00 -0.00000000000E+00 -0.45593999997E+02  0.45594000000E+02  0.51100000000E-03 0. -1.
         23    2    1    2    0    0 -0.88817841970E-15  0.00000000000E+00  0.00000000000E+00  0.91188000000E+02  0.91188000000E+02 0.  0.
    9900012    2    3    3    0    0  0.57252323005E+01 -0.21534867343E+02  0.29313047283E+02  0.54367033997E+02  0.39999885603E+02 0.  0.
         12    1    3    3    0    0 -0.57252323005E+01  0.21534867343E+02 -0.29313047283E+02  0.36820966003E+02  0.00000000000E+00 0. -1.
         11    1    4    4    0    0  0.69809413176E+01  0.73321513683E+01 -0.24634764234E+01  0.10419342672E+02  0.51100000000E-03 0.  1.
        -11    1    4    4    0    0 -0.44187519679E+01 -0.23543833924E+02  0.27220887476E+02  0.36260366794E+02  0.51100000000E-03 0. -1.
        -12    1    4    4    0    0  0.31630429508E+01 -0.53231847869E+01  0.45556362302E+01  0.76873245311E+01  0.00000000000E+00 0.  1.
</event>
<event>
 8    1  0.1253703E-006  0.9118800E+02  0.7816164E-02  0.1184000E+00
        -11   -1    0    0    0    0  0.00000000000E+00  0.00000000000E+00  0.45593999997E+02  0.45594000000E+02  0.51100000000E-03 0. -1.
         11   -1    0    0    0    0 -0.00000000000E+00 -0.00000000000E+00 -0.45593999997E+02  0.45594000000E+02  0.51100000000E-03 0.  1.
         23    2    1    2    0    0  0.00000000000E+00  0.00000000000E+00  0.00000000000E+00  0.91188000000E+02  0.91188000000E+02 0.  0.
    9900012    2    3    3    0    0 -0.21338330123E+02 -0.29917320186E+02  0.23258628494E+01  0.54367081794E+02  0.39999994566E+02 0.  0.
        -12    1    3    3    0    0  0.21338330123E+02  0.29917320186E+02 -0.23258628494E+01  0.36820918206E+02  0.00000000000E+00 0.  1.
         11    1    4    4    0    0 -0.16808527068E+02  0.16295923472E+01  0.19703433785E+01  0.17001894210E+02  0.51100000000E-03 0. -1.
        -11    1    4    4    0    0  0.70949482677E+01 -0.94306009863E+01  0.31755274516E+01  0.12221231556E+02  0.51100000000E-03 0.  1.
         12    1    4    4    0    0 -0.11624751322E+02 -0.22116311547E+02 -0.28200079808E+01  0.25143956028E+02  0.00000000000E+00 0. -1.
</event>
<event>
 8    1  0.1253703E-006  0.9118800E+02  0.7816164E-02  0.1184000E+00
        -11   -1    0    0    0    0  0.00000000000E+00  0.00000000000E+00  0.45593999997E+02  0.45594000000E+02  0.51100000000E-03 0.  1.
         11   -1    0    0    0    0 -0.00000000000E+00 -0.00000000000E+00 -0.45593999997E+02  0.45594000000E+02  0.51100000000E-03 0. -1.
         23    2    1    2    0    0  0.35527136788E-14 -0.88817841970E-15  0.35527136788E-14  0.91188000000E+02  0.91188000000E+02 0.  0.
    9900012    2    3    3    0    0 -0.29076869586E+02  0.57893056461E+01 -0.21835595503E+02  0.54367168454E+02  0.40000192123E+02 0.  0.
        -12    1    3    3    0    0  0.29076869586E+02 -0.57893056461E+01  0.21835595503E+02  0.36820831546E+02  0.00000000000E+00 0.  1.
         11    1    4    4    0    0 -0.70917012307E+01 -0.66385567987E+00 -0.87723944559E+01  0.11299904224E+02  0.51100000000E-03 0. -1.
        -11    1    4    4    0    0 -0.16289928054E+02  0.10014749536E+02 -0.23721342122E+02  0.30468984830E+02  0.51100000000E-03 0.  1.
        -12    1    4    4    0    0 -0.56952403014E+01 -0.35615882103E+01  0.10658141075E+02  0.12598279400E+02  0.00000000000E+00 0.  1.
</event>
<event>
 8    1  0.1253703E-006  0.9118800E+02  0.7816164E-02  0.1184000E+00
        -11   -1    0    0    0    0  0.00000000000E+00  0.00000000000E+00  0.45593999997E+02  0.45594000000E+02  0.51100000000E-03 0.  1.
         11   -1    0    0    0    0 -0.00000000000E+00 -0.00000000000E+00 -0.45593999997E+02  0.45594000000E+02  0.51100000000E-03 0. -1.
         23    2    1    2    0    0  0.00000000000E+00  0.00000000000E+00  0.35527136788E-14  0.91188000000E+02  0.91188000000E+02 0.  0.
    9900012    2    3    3    0    0  0.22166600342E+02 -0.92311300121E+01 -0.27914296163E+02  0.54367083902E+02  0.39999999372E+02 0.  0.
        -12    1    3    3    0    0 -0.22166600342E+02  0.92311300121E+01  0.27914296163E+02  0.36820916098E+02  0.00000000000E+00 0.  1.
         11    1    4    4    0    0  0.40629165660E+01  0.14980927175E+01 -0.42306831276E+01  0.60539452261E+01  0.51100000000E-03 0. -1.
        -11    1    4    4    0    0  0.19432664004E+01 -0.17609499418E+01  0.97579215806E+01  0.10104170566E+02  0.51100000000E-03 0.  1.
        -12    1    4    4    0    0  0.16160417375E+02 -0.89682727878E+01 -0.33441534616E+02  0.38208968110E+02  0.00000000000E+00 0.  1.
</event>
<event>
 8    1  0.1253703E-006  0.9118800E+02  0.7816164E-02  0.1184000E+00
        -11   -1    0    0    0    0  0.00000000000E+00  0.00000000000E+00  0.45593999997E+02  0.45594000000E+02  0.51100000000E-03 0.  1.
         11   -1    0    0    0    0 -0.00000000000E+00 -0.00000000000E+00 -0.45593999997E+02  0.45594000000E+02  0.51100000000E-03 0. -1.
         23    2    1    2    0    0  0.00000000000E+00 -0.35527136788E-14  0.35527136788E-14  0.91188000000E+02  0.91188000000E+02 0.  0.
    9900012    2    3    3    0    0  0.14596874843E+02 -0.25126706992E+02  0.22613327112E+02  0.54367045062E+02  0.39999910829E+02 0.  0.
         12    1    3    3    0    0 -0.14596874843E+02  0.25126706992E+02 -0.22613327112E+02  0.36820954938E+02  0.00000000000E+00 0. -1.
         11    1    4    4    0    0  0.12157797311E+02  0.53184714709E-01  0.36532302893E+01  0.12694918506E+02  0.51100000000E-03 0. -1.
        -11    1    4    4    0    0  0.11767744517E+02 -0.22241947554E+02  0.19563130685E+02  0.31873188176E+02  0.51100000000E-03 0.  1.
         12    1    4    4    0    0 -0.93286669848E+01 -0.29379441525E+01 -0.60303386206E+00  0.97989383810E+01  0.00000000000E+00 0. -1.
</event>
<event>
 8    1  0.1253703E-006  0.9118800E+02  0.7816164E-02  0.1184000E+00
        -11   -1    0    0    0    0  0.00000000000E+00  0.00000000000E+00  0.45593999997E+02  0.45594000000E+02  0.51100000000E-03 0.  1.
         11   -1    0    0    0    0 -0.00000000000E+00 -0.00000000000E+00 -0.45593999997E+02  0.45594000000E+02  0.51100000000E-03 0. -1.
         23    2    1    2    0    0  0.00000000000E+00  0.35527136788E-14  0.00000000000E+00  0.91188000000E+02  0.91188000000E+02 0.  0.
    9900012    2    3    3    0    0 -0.14869587781E+02 -0.11043213217E+02 -0.31823289648E+02  0.54367096114E+02  0.40000027211E+02 0.  0.
        -12    1    3    3    0    0  0.14869587781E+02  0.11043213217E+02  0.31823289648E+02  0.36820903886E+02  0.00000000000E+00 0.  1.
         11    1    4    4    0    0 -0.23040249685E+02  0.15099060571E+01 -0.20086991883E+02  0.30604250767E+02  0.51100000000E-03 0. -1.
        -11    1    4    4    0    0  0.18698503202E+01 -0.38832078162E+01  0.32078917769E+01  0.53727286436E+01  0.51100000000E-03 0.  1.
         12    1    4    4    0    0  0.63008115833E+01 -0.86699114578E+01 -0.14944189542E+02  0.18390116704E+02  0.00000000000E+00 0. -1.
</event>
<event>
 8    1  0.1253703E-006  0.9118800E+02  0.7816164E-02  0.1184000E+00
        -11   -1    0    0    0    0  0.00000000000E+00  0.00000000000E+00  0.45593999997E+02  0.45594000000E+02  0.51100000000E-03 0. -1.
         11   -1    0    0    0    0 -0.00000000000E+00 -0.00000000000E+00 -0.45593999997E+02  0.45594000000E+02  0.51100000000E-03 0.  1.
         23    2    1    2    0    0  0.00000000000E+00  0.71054273576E-14 -0.38857805862E-15  0.91188000000E+02  0.91188000000E+02 0.  0.
    9900012    2    3    3    0    0  0.15405783202E+02  0.33442106303E+02  0.26006150150E+00  0.54367078474E+02  0.39999986998E+02 0.  0.
        -12    1    3    3    0    0 -0.15405783202E+02 -0.33442106303E+02 -0.26006150150E+00  0.36820921526E+02  0.00000000000E+00 0.  1.
         11    1    4    4    0    0  0.37450514904E+01  0.28986980959E+02  0.69907380486E+01  0.30052302649E+02  0.51100000000E-03 0. -1.
        -11    1    4    4    0    0  0.11235520959E+02  0.10465677221E+02 -0.90901480250E+01  0.17843713803E+02  0.51100000000E-03 0.  1.
         12    1    4    4    0    0  0.42521075214E+00 -0.60105518765E+01  0.23594714779E+01  0.64710620225E+01  0.00000000000E+00 0. -1.
</event>
<event>
 8    1  0.1253703E-006  0.9118800E+02  0.7816164E-02  0.1184000E+00
        -11   -1    0    0    0    0  0.00000000000E+00  0.00000000000E+00  0.45593999997E+02  0.45594000000E+02  0.51100000000E-03 0.  1.
         11   -1    0    0    0    0 -0.00000000000E+00 -0.00000000000E+00 -0.45593999997E+02  0.45594000000E+02  0.51100000000E-03 0. -1.
         23    2    1    2    0    0  0.00000000000E+00  0.35527136788E-14  0.00000000000E+00  0.91188000000E+02  0.91188000000E+02 0.  0.
    9900012    2    3    3    0    0 -0.17399499511E+02  0.30166213366E+02 -0.11959846534E+02  0.54367069251E+02  0.39999965972E+02 0.  0.
        -12    1    3    3    0    0  0.17399499511E+02 -0.30166213366E+02  0.11959846534E+02  0.36820930749E+02  0.00000000000E+00 0.  1.
         11    1    4    4    0    0 -0.64410058770E+01  0.12444641940E+02  0.12278873443E+02  0.18631328536E+02  0.51100000000E-03 0. -1.
        -11    1    4    4    0    0 -0.73725843374E+01  0.33895013380E+01 -0.96876857531E+00  0.81720396442E+01  0.51100000000E-03 0.  1.
         12    1    4    4    0    0 -0.35859092963E+01  0.14332070088E+02 -0.23269951402E+02  0.27563701071E+02  0.00000000000E+00 0. -1.
</event>
<event>
 8    1  0.1253703E-006  0.9118800E+02  0.7816164E-02  0.1184000E+00
        -11   -1    0    0    0    0  0.00000000000E+00  0.00000000000E+00  0.45593999997E+02  0.45594000000E+02  0.51100000000E-03 0.  1.
         11   -1    0    0    0    0 -0.00000000000E+00 -0.00000000000E+00 -0.45593999997E+02  0.45594000000E+02  0.51100000000E-03 0. -1.
         23    2    1    2    0    0  0.00000000000E+00  0.00000000000E+00  0.17763568394E-14  0.91188000000E+02  0.91188000000E+02 0.  0.
    9900012    2    3    3    0    0  0.31498320566E+02  0.16980538896E+02 -0.86771146889E+01  0.54367146954E+02  0.40000143112E+02 0.  0.
        -12    1    3    3    0    0 -0.31498320566E+02 -0.16980538896E+02  0.86771146889E+01  0.36820853046E+02  0.00000000000E+00 0.  1.
         11    1    4    4    0    0  0.55196870196E+01  0.10741329990E+01  0.37313034744E+01  0.67485800264E+01  0.51100000000E-03 0. -1.
        -11    1    4    4    0    0  0.27168173806E+02 -0.24878344991E+01 -0.98680233957E+01  0.29011667902E+02  0.51100000000E-03 0.  1.
         12    1    4    4    0    0 -0.11895402597E+01  0.18394240396E+02 -0.25403947676E+01  0.18606899026E+02  0.00000000000E+00 0. -1.
</event>
<event>
 8    1  0.1253703E-006  0.9118800E+02  0.7816164E-02  0.1184000E+00
        -11   -1    0    0    0    0  0.00000000000E+00  0.00000000000E+00  0.45593999997E+02  0.45594000000E+02  0.51100000000E-03 0.  1.
         11   -1    0    0    0    0 -0.00000000000E+00 -0.00000000000E+00 -0.45593999997E+02  0.45594000000E+02  0.51100000000E-03 0. -1.
         23    2    1    2    0    0  0.00000000000E+00  0.35527136788E-14  0.00000000000E+00  0.91188000000E+02  0.91188000000E+02 0.  0.
    9900012    2    3    3    0    0  0.20256783468E+02 -0.23787586824E+02  0.19483142005E+02  0.54367090373E+02  0.40000014123E+02 0.  0.
        -12    1    3    3    0    0 -0.20256783468E+02  0.23787586824E+02 -0.19483142005E+02  0.36820909627E+02  0.00000000000E+00 0.  1.
         11    1    4    4    0    0  0.14832889083E+02 -0.30481077241E+02  0.27290580281E+01  0.34008211161E+02  0.51100000000E-03 0.  1.
        -11    1    4    4    0    0  0.34865496664E+01  0.82222539364E+00  0.14707561929E+01  0.38723645508E+01  0.51100000000E-03 0. -1.
        -12    1    4    4    0    0  0.19373447188E+01  0.58712650235E+01  0.15283327784E+02  0.16486514661E+02  0.00000000000E+00 0.  1.
</event>
<event>
 8    1  0.1253703E-006  0.9118800E+02  0.7816164E-02  0.1184000E+00
        -11   -1    0    0    0    0  0.00000000000E+00  0.00000000000E+00  0.45593999997E+02  0.45594000000E+02  0.51100000000E-03 0. -1.
         11   -1    0    0    0    0 -0.00000000000E+00 -0.00000000000E+00 -0.45593999997E+02  0.45594000000E+02  0.51100000000E-03 0.  1.
         23    2    1    2    0    0  0.00000000000E+00 -0.17763568394E-14 -0.26645352591E-14  0.91188000000E+02  0.91188000000E+02 0.  0.
    9900012    2    3    3    0    0  0.36232318997E+02 -0.54102151898E+01 -0.37030245853E+01  0.54367302568E+02  0.40000497861E+02 0.  0.
        -12    1    3    3    0    0 -0.36232318997E+02  0.54102151898E+01  0.37030245853E+01  0.36820697432E+02  0.00000000000E+00 0.  1.
         11    1    4    4    0    0 -0.17329008182E+01  0.43060041083E+01  0.42213230922E+01  0.62740884227E+01  0.51100000000E-03 0. -1.
        -11    1    4    4    0    0  0.29193236731E+01  0.74759350271E+01  0.88950899574E+00  0.80748549060E+01  0.51100000000E-03 0.  1.
         12    1    4    4    0    0  0.35045896142E+02 -0.17192154325E+02 -0.88138566732E+01  0.40018359239E+02  0.00000000000E+00 0. -1.
</event>
<event>
 8    1  0.1253703E-006  0.9118800E+02  0.7816164E-02  0.1184000E+00
        -11   -1    0    0    0    0  0.00000000000E+00  0.00000000000E+00  0.45593999997E+02  0.45594000000E+02  0.51100000000E-03 0.  1.
         11   -1    0    0    0    0 -0.00000000000E+00 -0.00000000000E+00 -0.45593999997E+02  0.45594000000E+02  0.51100000000E-03 0. -1.
         23    2    1    2    0    0  0.00000000000E+00  0.00000000000E+00  0.00000000000E+00  0.91188000000E+02  0.91188000000E+02 0.  0.
    9900012    2    3    3    0    0 -0.10851680641E+02  0.23068956521E+02  0.26567780419E+02  0.54367045584E+02  0.39999912018E+02 0.  0.
         12    1    3    3    0    0  0.10851680641E+02 -0.23068956521E+02 -0.26567780419E+02  0.36820954416E+02  0.00000000000E+00 0. -1.
         11    1    4    4    0    0 -0.99617818887E+01  0.53492590592E+01  0.52689504304E+01  0.12474514411E+02  0.51100000000E-03 0. -1.
        -11    1    4    4    0    0 -0.98159773821E+01  0.14635110546E+02  0.25947973236E+02  0.31366179047E+02  0.51100000000E-03 0.  1.
        -12    1    4    4    0    0  0.89260786300E+01  0.30845869167E+01 -0.46491432481E+01  0.10526352127E+02  0.00000000000E+00 0.  1.
</event>
<event>
 8    1  0.1253703E-006  0.9118800E+02  0.7816164E-02  0.1184000E+00
        -11   -1    0    0    0    0  0.00000000000E+00  0.00000000000E+00  0.45593999997E+02  0.45594000000E+02  0.51100000000E-03 0. -1.
         11   -1    0    0    0    0 -0.00000000000E+00 -0.00000000000E+00 -0.45593999997E+02  0.45594000000E+02  0.51100000000E-03 0.  1.
         23    2    1    2    0    0  0.00000000000E+00  0.00000000000E+00  0.00000000000E+00  0.91188000000E+02  0.91188000000E+02 0.  0.
    9900012    2    3    3    0    0  0.33021652077E+02 -0.15186383270E+02  0.58927396856E+01  0.54367080352E+02  0.39999991278E+02 0.  0.
        -12    1    3    3    0    0 -0.33021652077E+02  0.15186383270E+02 -0.58927396856E+01  0.36820919648E+02  0.00000000000E+00 0.  1.
         11    1    4    4    0    0  0.17836696215E+02 -0.40737720714E+01  0.18428747307E+02  0.25968482403E+02  0.51100000000E-03 0. -1.
        -11    1    4    4    0    0  0.18220294471E+01 -0.11501804800E+02 -0.31489071676E+01  0.12063453965E+02  0.51100000000E-03 0.  1.
        -12    1    4    4    0    0  0.13362926415E+02  0.38919360125E+00 -0.93871004539E+01  0.16335143984E+02  0.00000000000E+00 0.  1.
</event>
<event>
 8    1  0.1253703E-006  0.9118800E+02  0.7816164E-02  0.1184000E+00
        -11   -1    0    0    0    0  0.00000000000E+00  0.00000000000E+00  0.45593999997E+02  0.45594000000E+02  0.51100000000E-03 0.  1.
         11   -1    0    0    0    0 -0.00000000000E+00 -0.00000000000E+00 -0.45593999997E+02  0.45594000000E+02  0.51100000000E-03 0. -1.
         23    2    1    2    0    0  0.00000000000E+00  0.00000000000E+00  0.00000000000E+00  0.91188000000E+02  0.91188000000E+02 0.  0.
    9900012    2    3    3    0    0 -0.31153071744E+01 -0.34562815253E+02 -0.12307970065E+02  0.54367089308E+02  0.40000011696E+02 0.  0.
        -12    1    3    3    0    0  0.31153071744E+01  0.34562815253E+02  0.12307970065E+02  0.36820910692E+02  0.00000000000E+00 0.  1.
         11    1    4    4    0    0 -0.10466821613E+02 -0.43678710142E+01 -0.33560407460E+01  0.11827749643E+02  0.51100000000E-03 0. -1.
        -11    1    4    4    0    0 -0.18450982739E+01 -0.10067216393E+02 -0.16278579460E+02  0.19228764470E+02  0.51100000000E-03 0.  1.
        -12    1    4    4    0    0  0.91966127124E+01 -0.20127727846E+02  0.73266501411E+01  0.23310575195E+02  0.00000000000E+00 0.  1.
</event>
<event>
 8    1  0.1253703E-006  0.9118800E+02  0.7816164E-02  0.1184000E+00
        -11   -1    0    0    0    0  0.00000000000E+00  0.00000000000E+00  0.45593999997E+02  0.45594000000E+02  0.51100000000E-03 0. -1.
         11   -1    0    0    0    0 -0.00000000000E+00 -0.00000000000E+00 -0.45593999997E+02  0.45594000000E+02  0.51100000000E-03 0.  1.
         23    2    1    2    0    0  0.88817841970E-15  0.00000000000E+00  0.00000000000E+00  0.91188000000E+02  0.91188000000E+02 0.  0.
    9900012    2    3    3    0    0 -0.58723322017E+01  0.22501493979E+02  0.28547734303E+02  0.54367154673E+02  0.40000160707E+02 0.  0.
        -12    1    3    3    0    0  0.58723322017E+01 -0.22501493979E+02 -0.28547734303E+02  0.36820845327E+02  0.00000000000E+00 0.  1.
         11    1    4    4    0    0 -0.80625857214E+01  0.13954068585E+02  0.91437239536E+01  0.18529139392E+02  0.51100000000E-03 0. -1.
        -11    1    4    4    0    0  0.14713130003E+02 -0.42982746403E+00  0.92327195920E+01  0.17375386542E+02  0.51100000000E-03 0.  1.
        -12    1    4    4    0    0 -0.12522876484E+02  0.89772528582E+01  0.10171290757E+02  0.18462628739E+02  0.00000000000E+00 0.  1.
</event>
<event>
 8    1  0.1253703E-006  0.9118800E+02  0.7816164E-02  0.1184000E+00
        -11   -1    0    0    0    0  0.00000000000E+00  0.00000000000E+00  0.45593999997E+02  0.45594000000E+02  0.51100000000E-03 0. -1.
         11   -1    0    0    0    0 -0.00000000000E+00 -0.00000000000E+00 -0.45593999997E+02  0.45594000000E+02  0.51100000000E-03 0.  1.
         23    2    1    2    0    0 -0.35527136788E-14  0.00000000000E+00  0.00000000000E+00  0.91188000000E+02  0.91188000000E+02 0.  0.
    9900012    2    3    3    0    0  0.21471851726E+02 -0.24453256877E+02 -0.17227265784E+02  0.54367070152E+02  0.39999968027E+02 0.  0.
         12    1    3    3    0    0 -0.21471851726E+02  0.24453256877E+02  0.17227265784E+02  0.36820929848E+02  0.00000000000E+00 0. -1.
         11    1    4    4    0    0  0.23618733644E+02 -0.20625278012E+02  0.36100655276E+01  0.31563891480E+02  0.51100000000E-03 0. -1.
        -11    1    4    4    0    0 -0.20128613541E+01 -0.62387013060E+01 -0.12386730917E+02  0.14014424993E+02  0.51100000000E-03 0.  1.
         12    1    4    4    0    0 -0.13402056303E+00  0.24107224413E+01 -0.84506003945E+01  0.87887536789E+01  0.00000000000E+00 0. -1.
</event>
<event>
 8    1  0.1253703E-006  0.9118800E+02  0.7816164E-02  0.1184000E+00
        -11   -1    0    0    0    0  0.00000000000E+00  0.00000000000E+00  0.45593999997E+02  0.45594000000E+02  0.51100000000E-03 0. -1.
         11   -1    0    0    0    0 -0.00000000000E+00 -0.00000000000E+00 -0.45593999997E+02  0.45594000000E+02  0.51100000000E-03 0.  1.
         23    2    1    2    0    0  0.00000000000E+00  0.88817841970E-15 -0.17763568394E-14  0.91188000000E+02  0.91188000000E+02 0.  0.
    9900012    2    3    3    0    0 -0.33096599099E+02 -0.63091346482E+01 -0.14852269446E+02  0.54367082580E+02  0.39999996357E+02 0.  0.
        -12    1    3    3    0    0  0.33096599099E+02  0.63091346482E+01  0.14852269446E+02  0.36820917420E+02  0.00000000000E+00 0.  1.
         11    1    4    4    0    0 -0.42170823977E+01 -0.32723005708E+01 -0.52889864440E+01  0.75143271715E+01  0.51100000000E-03 0. -1.
        -11    1    4    4    0    0 -0.60439495262E+01  0.11301560751E+02 -0.14594969643E+02  0.19423381282E+02  0.51100000000E-03 0.  1.
         12    1    4    4    0    0 -0.22835567176E+02 -0.14338394828E+02  0.50316866413E+01  0.27429374126E+02  0.00000000000E+00 0. -1.
</event>
<event>
 8    1  0.1253703E-006  0.9118800E+02  0.7816164E-02  0.1184000E+00
        -11   -1    0    0    0    0  0.00000000000E+00  0.00000000000E+00  0.45593999997E+02  0.45594000000E+02  0.51100000000E-03 0. -1.
         11   -1    0    0    0    0 -0.00000000000E+00 -0.00000000000E+00 -0.45593999997E+02  0.45594000000E+02  0.51100000000E-03 0.  1.
         23    2    1    2    0    0  0.00000000000E+00  0.35527136788E-14 -0.88817841970E-15  0.91188000000E+02  0.91188000000E+02 0.  0.
    9900012    2    3    3    0    0 -0.31510143926E+02  0.18445362530E+02 -0.47600439136E+01  0.54367101217E+02  0.40000038844E+02 0.  0.
         12    1    3    3    0    0  0.31510143926E+02 -0.18445362530E+02  0.47600439136E+01  0.36820898783E+02  0.00000000000E+00 0. -1.
         11    1    4    4    0    0 -0.16118832409E+02  0.94107533954E+01  0.91718969586E+01  0.20796700021E+02  0.51100000000E-03 0. -1.
        -11    1    4    4    0    0  0.61506950763E+01 -0.49880570836E-01 -0.67067640277E+01  0.91002319738E+01  0.51100000000E-03 0.  1.
        -12    1    4    4    0    0 -0.21542006594E+02  0.90844897059E+01 -0.72251768446E+01  0.24470169222E+02  0.00000000000E+00 0.  1.
</event>
<event>
 8    1  0.1253703E-006  0.9118800E+02  0.7816164E-02  0.1184000E+00
        -11   -1    0    0    0    0  0.00000000000E+00  0.00000000000E+00  0.45593999997E+02  0.45594000000E+02  0.51100000000E-03 0.  1.
         11   -1    0    0    0    0 -0.00000000000E+00 -0.00000000000E+00 -0.45593999997E+02  0.45594000000E+02  0.51100000000E-03 0. -1.
         23    2    1    2    0    0  0.00000000000E+00  0.00000000000E+00  0.00000000000E+00  0.91188000000E+02  0.91188000000E+02 0.  0.
    9900012    2    3    3    0    0  0.15620842827E+02  0.82088392955E+01 -0.32317033616E+02  0.54366994651E+02  0.39999795904E+02 0.  0.
        -12    1    3    3    0    0 -0.15620842827E+02 -0.82088392955E+01  0.32317033616E+02  0.36821005349E+02  0.00000000000E+00 0.  1.
         11    1    4    4    0    0  0.19172351839E+02  0.87744298622E+01 -0.18878087570E+02  0.28301093354E+02  0.51100000000E-03 0. -1.
        -11    1    4    4    0    0 -0.65137597580E+01 -0.86956392012E+01 -0.13605646222E+02  0.17411399045E+02  0.51100000000E-03 0.  1.
        -12    1    4    4    0    0  0.29622507463E+01  0.81300486345E+01  0.16670017696E+00  0.86545022521E+01  0.00000000000E+00 0.  1.
</event>
<event>
 8    1  0.1253703E-006  0.9118800E+02  0.7816164E-02  0.1184000E+00
        -11   -1    0    0    0    0  0.00000000000E+00  0.00000000000E+00  0.45593999997E+02  0.45594000000E+02  0.51100000000E-03 0.  1.
         11   -1    0    0    0    0 -0.00000000000E+00 -0.00000000000E+00 -0.45593999997E+02  0.45594000000E+02  0.51100000000E-03 0. -1.
         23    2    1    2    0    0  0.00000000000E+00  0.71054273576E-14 -0.88817841970E-15  0.91188000000E+02  0.91188000000E+02 0.  0.
    9900012    2    3    3    0    0  0.80244048559E+01  0.35045293213E+02 -0.79509157811E+01  0.54367072371E+02  0.39999973085E+02 0.  0.
         12    1    3    3    0    0 -0.80244048559E+01 -0.35045293213E+02  0.79509157811E+01  0.36820927629E+02  0.00000000000E+00 0. -1.
         11    1    4    4    0    0  0.14172942959E+02  0.17184183347E-01 -0.50500977751E+01  0.15045799920E+02  0.51100000000E-03 0. -1.
        -11    1    4    4    0    0  0.48243461606E+01  0.15085635645E+02 -0.46091563404E+01  0.16495303608E+02  0.51100000000E-03 0.  1.
        -12    1    4    4    0    0 -0.10972884264E+02  0.19942473385E+02  0.17083383344E+01  0.22825968844E+02  0.00000000000E+00 0.  1.
</event>
<event>
 8    1  0.1253703E-006  0.9118800E+02  0.7816164E-02  0.1184000E+00
        -11   -1    0    0    0    0  0.00000000000E+00  0.00000000000E+00  0.45593999997E+02  0.45594000000E+02  0.51100000000E-03 0.  1.
         11   -1    0    0    0    0 -0.00000000000E+00 -0.00000000000E+00 -0.45593999997E+02  0.45594000000E+02  0.51100000000E-03 0. -1.
         23    2    1    2    0    0 -0.71054273576E-14 -0.17763568394E-14  0.00000000000E+00  0.91188000000E+02  0.91188000000E+02 0.  0.
    9900012    2    3    3    0    0  0.33111422616E+02  0.14791332469E+02  0.63740665690E+01  0.54367101743E+02  0.40000040043E+02 0.  0.
        -12    1    3    3    0    0 -0.33111422616E+02 -0.14791332469E+02 -0.63740665690E+01  0.36820898257E+02  0.00000000000E+00 0.  1.
         11    1    4    4    0    0 -0.57596074442E+01  0.13963594492E+01  0.65720697335E+01  0.88495761744E+01  0.51100000000E-03 0. -1.
        -11    1    4    4    0    0  0.30596135935E+02  0.11720982223E+02  0.80242986833E+01  0.33732689310E+02  0.51100000000E-03 0.  1.
         12    1    4    4    0    0  0.82748941246E+01  0.16739907968E+01 -0.82223018479E+01  0.11784836258E+02  0.00000000000E+00 0. -1.
</event>
<event>
 8    1  0.1253703E-006  0.9118800E+02  0.7816164E-02  0.1184000E+00
        -11   -1    0    0    0    0  0.00000000000E+00  0.00000000000E+00  0.45593999997E+02  0.45594000000E+02  0.51100000000E-03 0. -1.
         11   -1    0    0    0    0 -0.00000000000E+00 -0.00000000000E+00 -0.45593999997E+02  0.45594000000E+02  0.51100000000E-03 0.  1.
         23    2    1    2    0    0  0.00000000000E+00 -0.17763568394E-14  0.00000000000E+00  0.91188000000E+02  0.91188000000E+02 0.  0.
    9900012    2    3    3    0    0  0.33873900211E+02 -0.11665355790E+02  0.85004329565E+01  0.54367095589E+02  0.40000026013E+02 0.  0.
        -12    1    3    3    0    0 -0.33873900211E+02  0.11665355790E+02 -0.85004329565E+01  0.36820904411E+02  0.00000000000E+00 0.  1.
         11    1    4    4    0    0  0.25936713389E+01 -0.13687849791E+02  0.73163252467E+01  0.15735722999E+02  0.51100000000E-03 0.  1.
        -11    1    4    4    0    0  0.21167439100E+02 -0.68460088470E+01  0.78863311787E+01  0.23603443285E+02  0.51100000000E-03 0. -1.
        -12    1    4    4    0    0  0.10112789773E+02  0.88685028487E+01 -0.67022234689E+01  0.15027929305E+02  0.00000000000E+00 0.  1.
</event>
<event>
 8    1  0.1253703E-006  0.9118800E+02  0.7816164E-02  0.1184000E+00
        -11   -1    0    0    0    0  0.00000000000E+00  0.00000000000E+00  0.45593999997E+02  0.45594000000E+02  0.51100000000E-03 0. -1.
         11   -1    0    0    0    0 -0.00000000000E+00 -0.00000000000E+00 -0.45593999997E+02  0.45594000000E+02  0.51100000000E-03 0.  1.
         23    2    1    2    0    0  0.35527136788E-14  0.00000000000E+00  0.00000000000E+00  0.91188000000E+02  0.91188000000E+02 0.  0.
    9900012    2    3    3    0    0  0.31424248991E+02 -0.86699660043E+01  0.17121000484E+02  0.54367076699E+02  0.39999982951E+02 0.  0.
        -12    1    3    3    0    0 -0.31424248991E+02  0.86699660043E+01 -0.17121000484E+02  0.36820923301E+02  0.00000000000E+00 0.  1.
         11    1    4    4    0    0 -0.20161819193E+01  0.26418283962E+01 -0.42264643664E+01  0.53765461133E+01  0.51100000000E-03 0.  1.
        -11    1    4    4    0    0  0.43108158569E+01  0.17173045378E+01  0.15969285195E+02  0.16629802709E+02  0.51100000000E-03 0. -1.
         12    1    4    4    0    0  0.29129615054E+02 -0.13029098938E+02  0.53781796547E+01  0.32360727877E+02  0.00000000000E+00 0. -1.
</event>
<event>
 8    1  0.1253703E-006  0.9118800E+02  0.7816164E-02  0.1184000E+00
        -11   -1    0    0    0    0  0.00000000000E+00  0.00000000000E+00  0.45593999997E+02  0.45594000000E+02  0.51100000000E-03 0. -1.
         11   -1    0    0    0    0 -0.00000000000E+00 -0.00000000000E+00 -0.45593999997E+02  0.45594000000E+02  0.51100000000E-03 0.  1.
         23    2    1    2    0    0  0.00000000000E+00  0.35527136788E-14  0.00000000000E+00  0.91188000000E+02  0.91188000000E+02 0.  0.
    9900012    2    3    3    0    0 -0.22912155525E+02  0.26831779830E+02 -0.10529413797E+02  0.54367084279E+02  0.40000000230E+02 0.  0.
         12    1    3    3    0    0  0.22912155525E+02 -0.26831779830E+02  0.10529413797E+02  0.36820915721E+02  0.00000000000E+00 0. -1.
         11    1    4    4    0    0 -0.52270665921E+01  0.11097239042E+02 -0.70544594278E+01  0.14150488952E+02  0.51100000000E-03 0. -1.
        -11    1    4    4    0    0 -0.11331732521E+02 -0.81655491066E+01 -0.63062453684E+01  0.15324917130E+02  0.51100000000E-03 0.  1.
         12    1    4    4    0    0 -0.63533564111E+01  0.23900089895E+02  0.28312909994E+01  0.24891678196E+02  0.00000000000E+00 0. -1.
</event>
<event>
 8    1  0.1253703E-006  0.9118800E+02  0.7816164E-02  0.1184000E+00
        -11   -1    0    0    0    0  0.00000000000E+00  0.00000000000E+00  0.45593999997E+02  0.45594000000E+02  0.51100000000E-03 0.  1.
         11   -1    0    0    0    0 -0.00000000000E+00 -0.00000000000E+00 -0.45593999997E+02  0.45594000000E+02  0.51100000000E-03 0. -1.
         23    2    1    2    0    0  0.00000000000E+00  0.00000000000E+00  0.00000000000E+00  0.91188000000E+02  0.91188000000E+02 0.  0.
    9900012    2    3    3    0    0  0.96529238110E+01 -0.11568238554E+02 -0.33597260601E+02  0.54367095595E+02  0.40000026028E+02 0.  0.
        -12    1    3    3    0    0 -0.96529238110E+01  0.11568238554E+02  0.33597260601E+02  0.36820904405E+02  0.00000000000E+00 0.  1.
         11    1    4    4    0    0 -0.72622812866E+01  0.71297479528E+01  0.12241211919E+01  0.10250488199E+02  0.51100000000E-03 0. -1.
        -11    1    4    4    0    0  0.13809051969E+01 -0.36171800996E+01 -0.10682123741E+01  0.40164622460E+01  0.51100000000E-03 0.  1.
         12    1    4    4    0    0  0.15534299901E+02 -0.15080806407E+02 -0.33753169419E+02  0.40100145150E+02  0.00000000000E+00 0. -1.
</event>
<event>
 8    1  0.1253703E-006  0.9118800E+02  0.7816164E-02  0.1184000E+00
        -11   -1    0    0    0    0  0.00000000000E+00  0.00000000000E+00  0.45593999997E+02  0.45594000000E+02  0.51100000000E-03 0.  1.
         11   -1    0    0    0    0 -0.00000000000E+00 -0.00000000000E+00 -0.45593999997E+02  0.45594000000E+02  0.51100000000E-03 0. -1.
         23    2    1    2    0    0  0.17763568394E-14  0.00000000000E+00 -0.35527136788E-14  0.91188000000E+02  0.91188000000E+02 0.  0.
    9900012    2    3    3    0    0  0.85920908515E+01  0.32621901874E+02 -0.14756929173E+02  0.54367089287E+02  0.40000011648E+02 0.  0.
        -12    1    3    3    0    0 -0.85920908515E+01 -0.32621901874E+02  0.14756929173E+02  0.36820910713E+02  0.00000000000E+00 0.  1.
         11    1    4    4    0    0 -0.13228761607E+01 -0.73102959721E+01  0.19191613517E+01  0.76729139895E+01  0.51100000000E-03 0. -1.
        -11    1    4    4    0    0  0.99484264423E+01  0.17932650981E+02 -0.28341906007E+01  0.20702265492E+02  0.51100000000E-03 0.  1.
        -12    1    4    4    0    0 -0.33459430077E-01  0.21999546866E+02 -0.13841899924E+02  0.25991909805E+02  0.00000000000E+00 0.  1.
</event>
<event>
 8    1  0.1253703E-006  0.9118800E+02  0.7816164E-02  0.1184000E+00
        -11   -1    0    0    0    0  0.00000000000E+00  0.00000000000E+00  0.45593999997E+02  0.45594000000E+02  0.51100000000E-03 0.  1.
         11   -1    0    0    0    0 -0.00000000000E+00 -0.00000000000E+00 -0.45593999997E+02  0.45594000000E+02  0.51100000000E-03 0. -1.
         23    2    1    2    0    0  0.00000000000E+00  0.35527136788E-14  0.00000000000E+00  0.91188000000E+02  0.91188000000E+02 0.  0.
    9900012    2    3    3    0    0 -0.17629178617E+02 -0.31204834937E+02  0.84409687431E+01  0.54367087253E+02  0.40000007012E+02 0.  0.
         12    1    3    3    0    0  0.17629178617E+02  0.31204834937E+02 -0.84409687431E+01  0.36820912747E+02  0.00000000000E+00 0. -1.
         11    1    4    4    0    0  0.44665607640E+01  0.64173393334E+01  0.43731622588E+00  0.78309421478E+01  0.51100000000E-03 0. -1.
        -11    1    4    4    0    0 -0.10497990299E+02 -0.27086482029E+02  0.24275354295E+00  0.29050718383E+02  0.51100000000E-03 0.  1.
         12    1    4    4    0    0 -0.11597749082E+02 -0.10535692241E+02  0.77608989743E+01  0.17485426722E+02  0.00000000000E+00 0. -1.
</event>
<event>
 8    1  0.1253703E-006  0.9118800E+02  0.7816164E-02  0.1184000E+00
        -11   -1    0    0    0    0  0.00000000000E+00  0.00000000000E+00  0.45593999997E+02  0.45594000000E+02  0.51100000000E-03 0. -1.
         11   -1    0    0    0    0 -0.00000000000E+00 -0.00000000000E+00 -0.45593999997E+02  0.45594000000E+02  0.51100000000E-03 0.  1.
         23    2    1    2    0    0  0.00000000000E+00  0.00000000000E+00  0.00000000000E+00  0.91188000000E+02  0.91188000000E+02 0.  0.
    9900012    2    3    3    0    0  0.10440561700E+02 -0.12954813067E+02 -0.32847337103E+02  0.54367081150E+02  0.39999993097E+02 0.  0.
         12    1    3    3    0    0 -0.10440561700E+02  0.12954813067E+02  0.32847337103E+02  0.36820918850E+02  0.00000000000E+00 0. -1.
         11    1    4    4    0    0  0.41007440918E+01  0.70721283144E+01  0.44438366321E+00  0.81870982712E+01  0.51100000000E-03 0. -1.
        -11    1    4    4    0    0  0.12239186687E+02 -0.10713485959E+02 -0.70718329070E+01  0.17736608838E+02  0.51100000000E-03 0.  1.
        -12    1    4    4    0    0 -0.58993690792E+01 -0.93134554225E+01 -0.26219887859E+02  0.28443374040E+02  0.00000000000E+00 0.  1.
</event>
<event>
 8    1  0.1253703E-006  0.9118800E+02  0.7816164E-02  0.1184000E+00
        -11   -1    0    0    0    0  0.00000000000E+00  0.00000000000E+00  0.45593999997E+02  0.45594000000E+02  0.51100000000E-03 0.  1.
         11   -1    0    0    0    0 -0.00000000000E+00 -0.00000000000E+00 -0.45593999997E+02  0.45594000000E+02  0.51100000000E-03 0. -1.
         23    2    1    2    0    0  0.35527136788E-14  0.00000000000E+00 -0.88817841970E-15  0.91188000000E+02  0.91188000000E+02 0.  0.
    9900012    2    3    3    0    0  0.22261693724E+02 -0.28395371242E+02 -0.73416559649E+01  0.54367081655E+02  0.39999994250E+02 0.  0.
        -12    1    3    3    0    0 -0.22261693724E+02  0.28395371242E+02  0.73416559649E+01  0.36820918345E+02  0.00000000000E+00 0.  1.
         11    1    4    4    0    0 -0.12807114989E+01  0.63847018350E+01  0.76537751306E+00  0.65567097285E+01  0.51100000000E-03 0. -1.
        -11    1    4    4    0    0  0.29769033027E+01 -0.23448786222E+02 -0.39639727108E+01  0.23967073423E+02  0.51100000000E-03 0.  1.
         12    1    4    4    0    0  0.20565501920E+02 -0.11331286855E+02 -0.41430607672E+01  0.23843298504E+02  0.00000000000E+00 0. -1.
</event>
<event>
 8    1  0.1253703E-006  0.9118800E+02  0.7816164E-02  0.1184000E+00
        -11   -1    0    0    0    0  0.00000000000E+00  0.00000000000E+00  0.45593999997E+02  0.45594000000E+02  0.51100000000E-03 0. -1.
         11   -1    0    0    0    0 -0.00000000000E+00 -0.00000000000E+00 -0.45593999997E+02  0.45594000000E+02  0.51100000000E-03 0.  1.
         23    2    1    2    0    0 -0.17763568394E-14 -0.17763568394E-14  0.71054273576E-14  0.91188000000E+02  0.91188000000E+02 0.  0.
    9900012    2    3    3    0    0 -0.15323947848E+02 -0.72330017789E+01  0.32690079980E+02  0.54367068161E+02  0.39999963486E+02 0.  0.
        -12    1    3    3    0    0  0.15323947848E+02  0.72330017789E+01 -0.32690079980E+02  0.36820931839E+02  0.00000000000E+00 0.  1.
         11    1    4    4    0    0 -0.11767260950E+02  0.37044438800E+00 -0.37168474056E+00  0.11778956198E+02  0.51100000000E-03 0. -1.
        -11    1    4    4    0    0  0.51198883059E+01 -0.14264182638E+02  0.14113301854E+02  0.20709066905E+02  0.51100000000E-03 0.  1.
         12    1    4    4    0    0 -0.86765752040E+01  0.66607364712E+01  0.18948462867E+02  0.21879045057E+02  0.00000000000E+00 0. -1.
</event>
<event>
 8    1  0.1253703E-006  0.9118800E+02  0.7816164E-02  0.1184000E+00
        -11   -1    0    0    0    0  0.00000000000E+00  0.00000000000E+00  0.45593999997E+02  0.45594000000E+02  0.51100000000E-03 0.  1.
         11   -1    0    0    0    0 -0.00000000000E+00 -0.00000000000E+00 -0.45593999997E+02  0.45594000000E+02  0.51100000000E-03 0. -1.
         23    2    1    2    0    0 -0.35527136788E-14  0.35527136788E-14 -0.71054273576E-14  0.91188000000E+02  0.91188000000E+02 0.  0.
    9900012    2    3    3    0    0 -0.15892204517E+02 -0.20038747562E+02 -0.26489001660E+02  0.54367071478E+02  0.39999971049E+02 0.  0.
        -12    1    3    3    0    0  0.15892204517E+02  0.20038747562E+02  0.26489001660E+02  0.36820928522E+02  0.00000000000E+00 0.  1.
         11    1    4    4    0    0 -0.11672025220E+01  0.81703535901E+01 -0.14637391269E+01  0.83820983058E+01  0.51100000000E-03 0. -1.
        -11    1    4    4    0    0  0.34404981794E+01 -0.60494758624E+01  0.12934340979E+01  0.70785703330E+01  0.51100000000E-03 0.  1.
         12    1    4    4    0    0 -0.18165500175E+02 -0.22159625289E+02 -0.26318696631E+02  0.38906402840E+02  0.00000000000E+00 0. -1.
</event>
<event>
 8    1  0.1253703E-006  0.9118800E+02  0.7816164E-02  0.1184000E+00
        -11   -1    0    0    0    0  0.00000000000E+00  0.00000000000E+00  0.45593999997E+02  0.45594000000E+02  0.51100000000E-03 0. -1.
         11   -1    0    0    0    0 -0.00000000000E+00 -0.00000000000E+00 -0.45593999997E+02  0.45594000000E+02  0.51100000000E-03 0.  1.
         23    2    1    2    0    0  0.35527136788E-14  0.17763568394E-14  0.35527136788E-14  0.91188000000E+02  0.91188000000E+02 0.  0.
    9900012    2    3    3    0    0  0.26903543275E+02  0.11491981233E+02  0.22358700890E+02  0.54367112193E+02  0.40000063867E+02 0.  0.
        -12    1    3    3    0    0 -0.26903543275E+02 -0.11491981233E+02 -0.22358700890E+02  0.36820887807E+02  0.00000000000E+00 0.  1.
         11    1    4    4    0    0 -0.90605887992E+00  0.32650761119E+01  0.11799435306E+02  0.12276332453E+02  0.51100000000E-03 0.  1.
        -11    1    4    4    0    0  0.22153642651E+02 -0.25190813600E+01 -0.44993024670E+01  0.22745843061E+02  0.51100000000E-03 0. -1.
         12    1    4    4    0    0  0.56559595037E+01  0.10745986482E+02  0.15058568051E+02  0.19344936679E+02  0.00000000000E+00 0. -1.
</event>
<event>
 8    1  0.1253703E-006  0.9118800E+02  0.7816164E-02  0.1184000E+00
        -11   -1    0    0    0    0  0.00000000000E+00  0.00000000000E+00  0.45593999997E+02  0.45594000000E+02  0.51100000000E-03 0.  1.
         11   -1    0    0    0    0 -0.00000000000E+00 -0.00000000000E+00 -0.45593999997E+02  0.45594000000E+02  0.51100000000E-03 0. -1.
         23    2    1    2    0    0  0.35527136788E-14  0.17763568394E-14  0.35527136788E-14  0.91188000000E+02  0.91188000000E+02 0.  0.
    9900012    2    3    3    0    0 -0.26526114918E+02 -0.13651124552E+02 -0.21582253430E+02  0.54367059799E+02  0.39999944424E+02 0.  0.
        -12    1    3    3    0    0  0.26526114918E+02  0.13651124552E+02  0.21582253430E+02  0.36820940201E+02  0.00000000000E+00 0.  1.
         11    1    4    4    0    0 -0.66568735201E+01 -0.77747897041E+01 -0.26854801814E+01  0.10581735400E+02  0.51100000000E-03 0. -1.
        -11    1    4    4    0    0 -0.23663611318E+02 -0.14670580643E+02 -0.73751133952E+01  0.28802512648E+02  0.51100000000E-03 0.  1.
        -12    1    4    4    0    0  0.37943699197E+01  0.87942457952E+01 -0.11521659853E+02  0.14982811751E+02  0.00000000000E+00 0.  1.
</event>
<event>
 8    1  0.1253703E-006  0.9118800E+02  0.7816164E-02  0.1184000E+00
        -11   -1    0    0    0    0  0.00000000000E+00  0.00000000000E+00  0.45593999997E+02  0.45594000000E+02  0.51100000000E-03 0. -1.
         11   -1    0    0    0    0 -0.00000000000E+00 -0.00000000000E+00 -0.45593999997E+02  0.45594000000E+02  0.51100000000E-03 0.  1.
         23    2    1    2    0    0 -0.35527136788E-14  0.35527136788E-14  0.35527136788E-14  0.91188000000E+02  0.91188000000E+02 0.  0.
    9900012    2    3    3    0    0  0.14057165697E+02  0.22058990232E+02 -0.25914800674E+02  0.54367084049E+02  0.39999999707E+02 0.  0.
         12    1    3    3    0    0 -0.14057165697E+02 -0.22058990232E+02  0.25914800674E+02  0.36820915951E+02  0.00000000000E+00 0. -1.
         11    1    4    4    0    0 -0.87060645615E+01  0.67736807843E+01  0.21140654800E+01  0.11231544178E+02  0.51100000000E-03 0. -1.
        -11    1    4    4    0    0  0.17083400909E+02  0.17458440845E+02 -0.27860355128E+02  0.37051843833E+02  0.51100000000E-03 0.  1.
        -12    1    4    4    0    0  0.56798293499E+01 -0.21731313964E+01 -0.16851102576E+00  0.60836960374E+01  0.00000000000E+00 0.  1.
</event>
<event>
 8    1  0.1253703E-006  0.9118800E+02  0.7816164E-02  0.1184000E+00
        -11   -1    0    0    0    0  0.00000000000E+00  0.00000000000E+00  0.45593999997E+02  0.45594000000E+02  0.51100000000E-03 0.  1.
         11   -1    0    0    0    0 -0.00000000000E+00 -0.00000000000E+00 -0.45593999997E+02  0.45594000000E+02  0.51100000000E-03 0. -1.
         23    2    1    2    0    0  0.00000000000E+00  0.00000000000E+00  0.19984014443E-14  0.91188000000E+02  0.91188000000E+02 0.  0.
    9900012    2    3    3    0    0  0.21195461682E+02  0.30074615741E+02 -0.14316451167E+01  0.54367085893E+02  0.40000003911E+02 0.  0.
         12    1    3    3    0    0 -0.21195461682E+02 -0.30074615741E+02  0.14316451167E+01  0.36820914107E+02  0.00000000000E+00 0. -1.
         11    1    4    4    0    0  0.93018726384E+01  0.12058522358E+02  0.84742842805E+01  0.17428318633E+02  0.51100000000E-03 0. -1.
        -11    1    4    4    0    0  0.15692088523E+02  0.17533401363E+02  0.27743132332E+01  0.23693007824E+02  0.51100000000E-03 0.  1.
         12    1    4    4    0    0 -0.37984994798E+01  0.48269202030E+00 -0.12680242630E+02  0.13245759436E+02  0.00000000000E+00 0. -1.
</event>
<event>
 8    1  0.1253703E-006  0.9118800E+02  0.7816164E-02  0.1184000E+00
        -11   -1    0    0    0    0  0.00000000000E+00  0.00000000000E+00  0.45593999997E+02  0.45594000000E+02  0.51100000000E-03 0.  1.
         11   -1    0    0    0    0 -0.00000000000E+00 -0.00000000000E+00 -0.45593999997E+02  0.45594000000E+02  0.51100000000E-03 0. -1.
         23    2    1    2    0    0 -0.35527136788E-14  0.17763568394E-14  0.35527136788E-14  0.91188000000E+02  0.91188000000E+02 0.  0.
    9900012    2    3    3    0    0  0.15111064979E+02  0.15083344103E+02 -0.29998727089E+02  0.54367147469E+02  0.40000144285E+02 0.  0.
        -12    1    3    3    0    0 -0.15111064979E+02 -0.15083344103E+02  0.29998727089E+02  0.36820852531E+02  0.00000000000E+00 0.  1.
         11    1    4    4    0    0  0.10582270128E+01 -0.12487236148E+01 -0.22782375971E+01  0.28052668120E+01  0.51100000000E-03 0. -1.
        -11    1    4    4    0    0 -0.60001705285E+01  0.21821695072E+02 -0.13162592260E+02  0.26180952187E+02  0.51100000000E-03 0.  1.
        -12    1    4    4    0    0  0.20053008495E+02 -0.54896273537E+01 -0.14557897232E+02  0.25380928470E+02  0.00000000000E+00 0.  1.
</event>
<event>
 8    1  0.1253703E-006  0.9118800E+02  0.7816164E-02  0.1184000E+00
        -11   -1    0    0    0    0  0.00000000000E+00  0.00000000000E+00  0.45593999997E+02  0.45594000000E+02  0.51100000000E-03 0.  1.
         11   -1    0    0    0    0 -0.00000000000E+00 -0.00000000000E+00 -0.45593999997E+02  0.45594000000E+02  0.51100000000E-03 0. -1.
         23    2    1    2    0    0  0.00000000000E+00 -0.22204460493E-15  0.35527136788E-14  0.91188000000E+02  0.91188000000E+02 0.  0.
    9900012    2    3    3    0    0  0.31289916585E+02  0.86420122742E+00 -0.19389918329E+02  0.54367154593E+02  0.40000160526E+02 0.  0.
         12    1    3    3    0    0 -0.31289916585E+02 -0.86420122742E+00  0.19389918329E+02  0.36820845407E+02  0.00000000000E+00 0. -1.
         11    1    4    4    0    0  0.47310150892E+01 -0.89542734777E+01  0.47082984437E+00  0.10138204885E+02  0.51100000000E-03 0. -1.
        -11    1    4    4    0    0  0.23622283788E+02 -0.37078245753E+01 -0.60263920925E+01  0.24659230652E+02  0.51100000000E-03 0.  1.
         12    1    4    4    0    0  0.29366177082E+01  0.13526299280E+02 -0.13834356080E+02  0.19569719056E+02  0.00000000000E+00 0. -1.
</event>
<event>
 8    1  0.1253703E-006  0.9118800E+02  0.7816164E-02  0.1184000E+00
        -11   -1    0    0    0    0  0.00000000000E+00  0.00000000000E+00  0.45593999997E+02  0.45594000000E+02  0.51100000000E-03 0.  1.
         11   -1    0    0    0    0 -0.00000000000E+00 -0.00000000000E+00 -0.45593999997E+02  0.45594000000E+02  0.51100000000E-03 0. -1.
         23    2    1    2    0    0  0.00000000000E+00 -0.17763568394E-14  0.71054273576E-14  0.91188000000E+02  0.91188000000E+02 0.  0.
    9900012    2    3    3    0    0  0.25091336366E+02 -0.11193328183E+02  0.24513525231E+02  0.54367100015E+02  0.40000036103E+02 0.  0.
         12    1    3    3    0    0 -0.25091336366E+02  0.11193328183E+02 -0.24513525231E+02  0.36820899985E+02  0.00000000000E+00 0. -1.
         11    1    4    4    0    0 -0.87712470506E+01  0.13878854816E+01  0.60365023011E+00  0.89008648341E+01  0.51100000000E-03 0. -1.
        -11    1    4    4    0    0  0.11316935811E+02 -0.40292354983E+01  0.75606615975E+00  0.12036586358E+02  0.51100000000E-03 0.  1.
         12    1    4    4    0    0  0.22545647606E+02 -0.85519781662E+01  0.23153808842E+02  0.33429648822E+02  0.00000000000E+00 0. -1.
</event>
<event>
 8    1  0.1253703E-006  0.9118800E+02  0.7816164E-02  0.1184000E+00
        -11   -1    0    0    0    0  0.00000000000E+00  0.00000000000E+00  0.45593999997E+02  0.45594000000E+02  0.51100000000E-03 0.  1.
         11   -1    0    0    0    0 -0.00000000000E+00 -0.00000000000E+00 -0.45593999997E+02  0.45594000000E+02  0.51100000000E-03 0. -1.
         23    2    1    2    0    0  0.00000000000E+00  0.00000000000E+00 -0.88817841970E-15  0.91188000000E+02  0.91188000000E+02 0.  0.
    9900012    2    3    3    0    0  0.53094227734E+01  0.35680311233E+02  0.73831100181E+01  0.54367015583E+02  0.39999843625E+02 0.  0.
         12    1    3    3    0    0 -0.53094227734E+01 -0.35680311233E+02 -0.73831100181E+01  0.36820984417E+02  0.00000000000E+00 0. -1.
         11    1    4    4    0    0  0.64930846709E+01  0.55501345611E+01 -0.86164311448E+01  0.12132890345E+02  0.51100000000E-03 0. -1.
        -11    1    4    4    0    0  0.53364231906E+01  0.96339414367E+01  0.17496178890E+02  0.20673812326E+02  0.51100000000E-03 0.  1.
        -12    1    4    4    0    0 -0.65200850880E+01  0.20496235235E+02 -0.14966377276E+01  0.21560312912E+02  0.00000000000E+00 0.  1.
</event>
<event>
 8    1  0.1253703E-006  0.9118800E+02  0.7816164E-02  0.1184000E+00
        -11   -1    0    0    0    0  0.00000000000E+00  0.00000000000E+00  0.45593999997E+02  0.45594000000E+02  0.51100000000E-03 0. -1.
         11   -1    0    0    0    0 -0.00000000000E+00 -0.00000000000E+00 -0.45593999997E+02  0.45594000000E+02  0.51100000000E-03 0.  1.
         23    2    1    2    0    0 -0.35527136788E-14  0.35527136788E-14  0.00000000000E+00  0.91188000000E+02  0.91188000000E+02 0.  0.
    9900012    2    3    3    0    0  0.23288223383E+02 -0.17722502700E+02 -0.22346164623E+02  0.54367088501E+02  0.40000009855E+02 0.  0.
         12    1    3    3    0    0 -0.23288223383E+02  0.17722502700E+02  0.22346164623E+02  0.36820911499E+02  0.00000000000E+00 0. -1.
         11    1    4    4    0    0  0.59208339604E+01 -0.12618234196E+02 -0.44044982120E+01  0.14617650761E+02  0.51100000000E-03 0. -1.
        -11    1    4    4    0    0 -0.24636355313E+01  0.21480759170E+01  0.66055086682E+01  0.73699711806E+01  0.51100000000E-03 0.  1.
        -12    1    4    4    0    0  0.19831024954E+02 -0.72523444211E+01 -0.24547175079E+02  0.32379466560E+02  0.00000000000E+00 0.  1.
</event>
<event>
 8    1  0.1253703E-006  0.9118800E+02  0.7816164E-02  0.1184000E+00
        -11   -1    0    0    0    0  0.00000000000E+00  0.00000000000E+00  0.45593999997E+02  0.45594000000E+02  0.51100000000E-03 0.  1.
         11   -1    0    0    0    0 -0.00000000000E+00 -0.00000000000E+00 -0.45593999997E+02  0.45594000000E+02  0.51100000000E-03 0. -1.
         23    2    1    2    0    0 -0.35527136788E-14  0.22204460493E-15  0.35527136788E-14  0.91188000000E+02  0.91188000000E+02 0.  0.
    9900012    2    3    3    0    0 -0.25317421497E+02  0.57458973000E+00  0.26729748239E+02  0.54367062674E+02  0.39999950979E+02 0.  0.
         12    1    3    3    0    0  0.25317421497E+02 -0.57458973000E+00 -0.26729748239E+02  0.36820937326E+02  0.00000000000E+00 0. -1.
         11    1    4    4    0    0 -0.52402817071E+01 -0.12409398280E+02 -0.32843757456E+01  0.13865094387E+02  0.51100000000E-03 0. -1.
        -11    1    4    4    0    0 -0.62323762348E+01  0.44079891981E+01  0.19942321059E+02  0.21353431850E+02  0.51100000000E-03 0.  1.
        -12    1    4    4    0    0 -0.13844763555E+02  0.85759988124E+01  0.10071802926E+02  0.19148536438E+02  0.00000000000E+00 0.  1.
</event>
<event>
 8    1  0.1253703E-006  0.9118800E+02  0.7816164E-02  0.1184000E+00
        -11   -1    0    0    0    0  0.00000000000E+00  0.00000000000E+00  0.45593999997E+02  0.45594000000E+02  0.51100000000E-03 0.  1.
         11   -1    0    0    0    0 -0.00000000000E+00 -0.00000000000E+00 -0.45593999997E+02  0.45594000000E+02  0.51100000000E-03 0. -1.
         23    2    1    2    0    0  0.00000000000E+00 -0.17763568394E-14  0.00000000000E+00  0.91188000000E+02  0.91188000000E+02 0.  0.
    9900012    2    3    3    0    0 -0.19368341005E+02  0.14103806374E+02 -0.27959466774E+02  0.54367057999E+02  0.39999940320E+02 0.  0.
        -12    1    3    3    0    0  0.19368341005E+02 -0.14103806374E+02  0.27959466774E+02  0.36820942001E+02  0.00000000000E+00 0.  1.
         11    1    4    4    0    0 -0.64072200101E+01 -0.12637326006E+02 -0.89516411036E+01  0.16759664542E+02  0.51100000000E-03 0. -1.
        -11    1    4    4    0    0 -0.10840689755E+02  0.26887304647E+02 -0.20041830155E+02  0.35243760607E+02  0.51100000000E-03 0.  1.
        -12    1    4    4    0    0 -0.21204312404E+01 -0.14617226640E+00  0.10340044843E+01  0.23636328501E+01  0.00000000000E+00 0.  1.
</event>
<event>
 8    1  0.1253703E-006  0.9118800E+02  0.7816164E-02  0.1184000E+00
        -11   -1    0    0    0    0  0.00000000000E+00  0.00000000000E+00  0.45593999997E+02  0.45594000000E+02  0.51100000000E-03 0. -1.
         11   -1    0    0    0    0 -0.00000000000E+00 -0.00000000000E+00 -0.45593999997E+02  0.45594000000E+02  0.51100000000E-03 0.  1.
         23    2    1    2    0    0  0.00000000000E+00  0.00000000000E+00  0.00000000000E+00  0.91188000000E+02  0.91188000000E+02 0.  0.
    9900012    2    3    3    0    0  0.23662564055E+02  0.22921683746E+01  0.28117763412E+02  0.54367087561E+02  0.40000007714E+02 0.  0.
        -12    1    3    3    0    0 -0.23662564055E+02 -0.22921683746E+01 -0.28117763412E+02  0.36820912439E+02  0.00000000000E+00 0.  1.
         11    1    4    4    0    0 -0.16544512026E+01  0.43152798431E+01  0.10948224440E+01  0.47494721129E+01  0.51100000000E-03 0. -1.
        -11    1    4    4    0    0  0.85555166779E+01  0.15270474506E+02  0.10511214563E+02  0.20417391830E+02  0.51100000000E-03 0.  1.
         12    1    4    4    0    0  0.16761498580E+02 -0.17293585975E+02  0.16511726405E+02  0.29200223619E+02  0.00000000000E+00 0. -1.
</event>
<event>
 8    1  0.1253703E-006  0.9118800E+02  0.7816164E-02  0.1184000E+00
        -11   -1    0    0    0    0  0.00000000000E+00  0.00000000000E+00  0.45593999997E+02  0.45594000000E+02  0.51100000000E-03 0.  1.
         11   -1    0    0    0    0 -0.00000000000E+00 -0.00000000000E+00 -0.45593999997E+02  0.45594000000E+02  0.51100000000E-03 0. -1.
         23    2    1    2    0    0  0.88817841970E-15  0.00000000000E+00  0.00000000000E+00  0.91188000000E+02  0.91188000000E+02 0.  0.
    9900012    2    3    3    0    0  0.38777249534E+01  0.32495433626E+02  0.16875653924E+02  0.54367113906E+02  0.40000067771E+02 0.  0.
        -12    1    3    3    0    0 -0.38777249534E+01 -0.32495433626E+02 -0.16875653924E+02  0.36820886094E+02  0.00000000000E+00 0.  1.
         11    1    4    4    0    0 -0.11759522970E+02  0.96807291776E+01  0.81205526904E-01  0.15231857815E+02  0.51100000000E-03 0. -1.
        -11    1    4    4    0    0 -0.32337516702E+01  0.11007741132E+02  0.11520385523E+02  0.16258745264E+02  0.51100000000E-03 0.  1.
        -12    1    4    4    0    0  0.18870999594E+02  0.11806963317E+02  0.52740628744E+01  0.22876510828E+02  0.00000000000E+00 0.  1.
</event>
<event>
 8    1  0.1253703E-006  0.9118800E+02  0.7816164E-02  0.1184000E+00
        -11   -1    0    0    0    0  0.00000000000E+00  0.00000000000E+00  0.45593999997E+02  0.45594000000E+02  0.51100000000E-03 0. -1.
         11   -1    0    0    0    0 -0.00000000000E+00 -0.00000000000E+00 -0.45593999997E+02  0.45594000000E+02  0.51100000000E-03 0.  1.
         23    2    1    2    0    0  0.00000000000E+00  0.00000000000E+00  0.00000000000E+00  0.91188000000E+02  0.91188000000E+02 0.  0.
    9900012    2    3    3    0    0 -0.34080055434E+02  0.84761673349E+01  0.11067318718E+02  0.54367066624E+02  0.39999959983E+02 0.  0.
        -12    1    3    3    0    0  0.34080055434E+02 -0.84761673349E+01 -0.11067318718E+02  0.36820933376E+02  0.00000000000E+00 0.  1.
         11    1    4    4    0    0 -0.24278618886E+02 -0.19829637281E+01  0.17160218812E+02  0.29796922494E+02  0.51100000000E-03 0. -1.
        -11    1    4    4    0    0 -0.48716878935E+01 -0.23161116948E+01  0.46843971063E+01  0.71443189196E+01  0.51100000000E-03 0.  1.
        -12    1    4    4    0    0 -0.49297486545E+01  0.12775242758E+02 -0.10777297201E+02  0.17425825211E+02  0.00000000000E+00 0.  1.
</event>
<event>
 8    1  0.1253703E-006  0.9118800E+02  0.7816164E-02  0.1184000E+00
        -11   -1    0    0    0    0  0.00000000000E+00  0.00000000000E+00  0.45593999997E+02  0.45594000000E+02  0.51100000000E-03 0.  1.
         11   -1    0    0    0    0 -0.00000000000E+00 -0.00000000000E+00 -0.45593999997E+02  0.45594000000E+02  0.51100000000E-03 0. -1.
         23    2    1    2    0    0  0.00000000000E+00 -0.71054273576E-14 -0.17763568394E-14  0.91188000000E+02  0.91188000000E+02 0.  0.
    9900012    2    3    3    0    0  0.10254916323E+02  0.32658598622E+02  0.13565833047E+02  0.54367092909E+02  0.40000019904E+02 0.  0.
        -12    1    3    3    0    0 -0.10254916323E+02 -0.32658598622E+02 -0.13565833047E+02  0.36820907091E+02  0.00000000000E+00 0.  1.
         11    1    4    4    0    0  0.30747497376E+01 -0.82021959927E+01  0.21054529677E+01  0.90090530863E+01  0.51100000000E-03 0. -1.
        -11    1    4    4    0    0 -0.11552263310E+01 -0.51662585144E+00 -0.68202406216E+00  0.14375699039E+01  0.51100000000E-03 0.  1.
         12    1    4    4    0    0  0.83353929168E+01  0.41377420466E+02  0.12142404142E+02  0.43920469918E+02  0.00000000000E+00 0. -1.
</event>
<event>
 8    1  0.1253703E-006  0.9118800E+02  0.7816164E-02  0.1184000E+00
        -11   -1    0    0    0    0  0.00000000000E+00  0.00000000000E+00  0.45593999997E+02  0.45594000000E+02  0.51100000000E-03 0. -1.
         11   -1    0    0    0    0 -0.00000000000E+00 -0.00000000000E+00 -0.45593999997E+02  0.45594000000E+02  0.51100000000E-03 0.  1.
         23    2    1    2    0    0  0.00000000000E+00 -0.35527136788E-14  0.00000000000E+00  0.91188000000E+02  0.91188000000E+02 0.  0.
    9900012    2    3    3    0    0 -0.11147161413E+02 -0.29748022381E+02  0.18616562309E+02  0.54367076120E+02  0.39999981631E+02 0.  0.
        -12    1    3    3    0    0  0.11147161413E+02  0.29748022381E+02 -0.18616562309E+02  0.36820923880E+02  0.00000000000E+00 0.  1.
         11    1    4    4    0    0  0.10263329046E+02 -0.94891708837E+01  0.97260330773E+01  0.17028681888E+02  0.51100000000E-03 0. -1.
        -11    1    4    4    0    0 -0.12487850336E+01 -0.12544600452E+02  0.94319742221E+01  0.15744478478E+02  0.51100000000E-03 0.  1.
        -12    1    4    4    0    0 -0.20161705426E+02 -0.77142510454E+01 -0.54144499052E+00  0.21593915753E+02  0.00000000000E+00 0.  1.
</event>
<event>
 8    1  0.1253703E-006  0.9118800E+02  0.7816164E-02  0.1184000E+00
        -11   -1    0    0    0    0  0.00000000000E+00  0.00000000000E+00  0.45593999997E+02  0.45594000000E+02  0.51100000000E-03 0.  1.
         11   -1    0    0    0    0 -0.00000000000E+00 -0.00000000000E+00 -0.45593999997E+02  0.45594000000E+02  0.51100000000E-03 0. -1.
         23    2    1    2    0    0 -0.17763568394E-14  0.35527136788E-14  0.00000000000E+00  0.91188000000E+02  0.91188000000E+02 0.  0.
    9900012    2    3    3    0    0 -0.15238358406E+02  0.29295303939E+02  0.16289834727E+02  0.54367066888E+02  0.39999960585E+02 0.  0.
         12    1    3    3    0    0  0.15238358406E+02 -0.29295303939E+02 -0.16289834727E+02  0.36820933112E+02  0.00000000000E+00 0. -1.
         11    1    4    4    0    0 -0.53727872900E+01  0.85554319702E+00 -0.66798993362E+01  0.86150944759E+01  0.51100000000E-03 0. -1.
        -11    1    4    4    0    0 -0.18159549211E+02  0.19336810734E+02  0.19606162536E+02  0.32986104447E+02  0.51100000000E-03 0.  1.
        -12    1    4    4    0    0  0.82939780954E+01  0.91029500076E+01  0.33635715267E+01  0.12765867965E+02  0.00000000000E+00 0.  1.
</event>
<event>
 8    1  0.1253703E-006  0.9118800E+02  0.7816164E-02  0.1184000E+00
        -11   -1    0    0    0    0  0.00000000000E+00  0.00000000000E+00  0.45593999997E+02  0.45594000000E+02  0.51100000000E-03 0. -1.
         11   -1    0    0    0    0 -0.00000000000E+00 -0.00000000000E+00 -0.45593999997E+02  0.45594000000E+02  0.51100000000E-03 0.  1.
         23    2    1    2    0    0 -0.35527136788E-14 -0.17763568394E-14  0.71054273576E-14  0.91188000000E+02  0.91188000000E+02 0.  0.
    9900012    2    3    3    0    0 -0.19304030334E+02 -0.15740599601E+02  0.27117667823E+02  0.54367082425E+02  0.39999996004E+02 0.  0.
        -12    1    3    3    0    0  0.19304030334E+02  0.15740599601E+02 -0.27117667823E+02  0.36820917575E+02  0.00000000000E+00 0.  1.
         11    1    4    4    0    0 -0.47267126245E+01  0.24391549053E+01 -0.16795780454E+01  0.55778375342E+01  0.51100000000E-03 0. -1.
        -11    1    4    4    0    0 -0.42957099396E+01  0.78130842075E+01  0.37362780110E+00  0.89239568977E+01  0.51100000000E-03 0.  1.
         12    1    4    4    0    0 -0.10281607770E+02 -0.25992838713E+02  0.28423618068E+02  0.39865287993E+02  0.00000000000E+00 0. -1.
</event>
<event>
 8    1  0.1253703E-006  0.9118800E+02  0.7816164E-02  0.1184000E+00
        -11   -1    0    0    0    0  0.00000000000E+00  0.00000000000E+00  0.45593999997E+02  0.45594000000E+02  0.51100000000E-03 0. -1.
         11   -1    0    0    0    0 -0.00000000000E+00 -0.00000000000E+00 -0.45593999997E+02  0.45594000000E+02  0.51100000000E-03 0.  1.
         23    2    1    2    0    0  0.35527136788E-14 -0.13322676296E-14  0.35527136788E-14  0.91188000000E+02  0.91188000000E+02 0.  0.
    9900012    2    3    3    0    0 -0.22456415151E+02  0.19616035277E+01 -0.29114285957E+02  0.54367080448E+02  0.39999991498E+02 0.  0.
         12    1    3    3    0    0  0.22456415151E+02 -0.19616035277E+01  0.29114285957E+02  0.36820919552E+02  0.00000000000E+00 0. -1.
         11    1    4    4    0    0 -0.46813579818E+01  0.77385453033E+01 -0.12816092048E+02  0.15686057874E+02  0.51100000000E-03 0. -1.
        -11    1    4    4    0    0 -0.55219895044E+00 -0.14831538186E+02 -0.11121079235E+02  0.18546100729E+02  0.51100000000E-03 0.  1.
         12    1    4    4    0    0 -0.17222858218E+02  0.90545964108E+01 -0.51771146745E+01  0.20134921846E+02  0.00000000000E+00 0. -1.
</event>
<event>
 8    1  0.1253703E-006  0.9118800E+02  0.7816164E-02  0.1184000E+00
        -11   -1    0    0    0    0  0.00000000000E+00  0.00000000000E+00  0.45593999997E+02  0.45594000000E+02  0.51100000000E-03 0.  1.
         11   -1    0    0    0    0 -0.00000000000E+00 -0.00000000000E+00 -0.45593999997E+02  0.45594000000E+02  0.51100000000E-03 0. -1.
         23    2    1    2    0    0  0.00000000000E+00  0.35527136788E-14  0.00000000000E+00  0.91188000000E+02  0.91188000000E+02 0.  0.
    9900012    2    3    3    0    0 -0.16729720470E+02 -0.19894120835E+02  0.26079113461E+02  0.54367085431E+02  0.40000002857E+02 0.  0.
         12    1    3    3    0    0  0.16729720470E+02  0.19894120835E+02 -0.26079113461E+02  0.36820914569E+02  0.00000000000E+00 0. -1.
         11    1    4    4    0    0 -0.10764964422E+00 -0.27341472550E+01  0.14016456405E+02  0.14281043382E+02  0.51100000000E-03 0. -1.
        -11    1    4    4    0    0  0.38480546426E+01 -0.94165802994E+01  0.14874630830E+02  0.18020381563E+02  0.51100000000E-03 0.  1.
         12    1    4    4    0    0 -0.20470125468E+02 -0.77433932807E+01 -0.28119737751E+01  0.22065660486E+02  0.00000000000E+00 0. -1.
</event>
<event>
 8    1  0.1253703E-006  0.9118800E+02  0.7816164E-02  0.1184000E+00
        -11   -1    0    0    0    0  0.00000000000E+00  0.00000000000E+00  0.45593999997E+02  0.45594000000E+02  0.51100000000E-03 0. -1.
         11   -1    0    0    0    0 -0.00000000000E+00 -0.00000000000E+00 -0.45593999997E+02  0.45594000000E+02  0.51100000000E-03 0.  1.
         23    2    1    2    0    0 -0.10547118734E-14 -0.17763568394E-14  0.00000000000E+00  0.91188000000E+02  0.91188000000E+02 0.  0.
    9900012    2    3    3    0    0 -0.28023618168E+00  0.99961121157E+01  0.35436977352E+02  0.54367079946E+02  0.39999990354E+02 0.  0.
        -12    1    3    3    0    0  0.28023618168E+00 -0.99961121157E+01 -0.35436977352E+02  0.36820920054E+02  0.00000000000E+00 0.  1.
         11    1    4    4    0    0 -0.83590188751E+01  0.16176676469E+02  0.97581613954E+01  0.20658648848E+02  0.51100000000E-03 0. -1.
        -11    1    4    4    0    0  0.24657910301E+01 -0.84562812162E+01  0.26188572180E+02  0.27630239422E+02  0.51100000000E-03 0.  1.
        -12    1    4    4    0    0  0.56129916633E+01  0.22757168631E+01 -0.50975622366E+00  0.60781916769E+01  0.00000000000E+00 0.  1.
</event>
<event>
 8    1  0.1253703E-006  0.9118800E+02  0.7816164E-02  0.1184000E+00
        -11   -1    0    0    0    0  0.00000000000E+00  0.00000000000E+00  0.45593999997E+02  0.45594000000E+02  0.51100000000E-03 0. -1.
         11   -1    0    0    0    0 -0.00000000000E+00 -0.00000000000E+00 -0.45593999997E+02  0.45594000000E+02  0.51100000000E-03 0.  1.
         23    2    1    2    0    0 -0.88817841970E-15  0.00000000000E+00 -0.17763568394E-14  0.91188000000E+02  0.91188000000E+02 0.  0.
    9900012    2    3    3    0    0 -0.66790075724E+01 -0.36129234738E+02 -0.24186474809E+01  0.54367073878E+02  0.39999976519E+02 0.  0.
         12    1    3    3    0    0  0.66790075724E+01  0.36129234738E+02  0.24186474809E+01  0.36820926122E+02  0.00000000000E+00 0. -1.
         11    1    4    4    0    0 -0.20931454157E+01  0.48006609119E+00  0.65249598772E+00  0.22444314332E+01  0.51100000000E-03 0. -1.
        -11    1    4    4    0    0  0.68601568638E+01 -0.25269542888E+01  0.11254613401E+02  0.13420639822E+02  0.51100000000E-03 0.  1.
        -12    1    4    4    0    0 -0.11446019020E+02 -0.34082346540E+02 -0.14325756869E+02  0.38702002622E+02  0.00000000000E+00 0.  1.
</event>
<event>
 8    1  0.1253703E-006  0.9118800E+02  0.7816164E-02  0.1184000E+00
        -11   -1    0    0    0    0  0.00000000000E+00  0.00000000000E+00  0.45593999997E+02  0.45594000000E+02  0.51100000000E-03 0. -1.
         11   -1    0    0    0    0 -0.00000000000E+00 -0.00000000000E+00 -0.45593999997E+02  0.45594000000E+02  0.51100000000E-03 0.  1.
         23    2    1    2    0    0  0.71054273576E-14  0.44408920985E-15  0.35527136788E-14  0.91188000000E+02  0.91188000000E+02 0.  0.
    9900012    2    3    3    0    0  0.23574890569E+02  0.26783694400E+01  0.28157252030E+02  0.54367082438E+02  0.39999996035E+02 0.  0.
        -12    1    3    3    0    0 -0.23574890569E+02 -0.26783694400E+01 -0.28157252030E+02  0.36820917562E+02  0.00000000000E+00 0.  1.
         11    1    4    4    0    0  0.31277066066E+02  0.42319970957E+01  0.89174912361E+01  0.32797657101E+02  0.51100000000E-03 0.  1.
        -11    1    4    4    0    0 -0.28061109151E+01 -0.34741809908E+01  0.96130694306E+01  0.10599778119E+02  0.51100000000E-03 0. -1.
        -12    1    4    4    0    0 -0.48960645818E+01  0.19205533352E+01  0.96266913632E+01  0.10969647219E+02  0.00000000000E+00 0.  1.
</event>
<event>
 8    1  0.1253703E-006  0.9118800E+02  0.7816164E-02  0.1184000E+00
        -11   -1    0    0    0    0  0.00000000000E+00  0.00000000000E+00  0.45593999997E+02  0.45594000000E+02  0.51100000000E-03 0. -1.
         11   -1    0    0    0    0 -0.00000000000E+00 -0.00000000000E+00 -0.45593999997E+02  0.45594000000E+02  0.51100000000E-03 0.  1.
         23    2    1    2    0    0 -0.88817841970E-15  0.00000000000E+00  0.00000000000E+00  0.91188000000E+02  0.91188000000E+02 0.  0.
    9900012    2    3    3    0    0 -0.35831532690E+01 -0.14291068920E+02 -0.33744742414E+02  0.54367064666E+02  0.39999955520E+02 0.  0.
         12    1    3    3    0    0  0.35831532690E+01  0.14291068920E+02  0.33744742414E+02  0.36820935334E+02  0.00000000000E+00 0. -1.
         11    1    4    4    0    0  0.77425658305E+01 -0.20087429278E+01  0.12084271556E+01  0.80896644085E+01  0.51100000000E-03 0. -1.
        -11    1    4    4    0    0 -0.21089027010E+01 -0.12098579631E+02 -0.34964660773E+02  0.37058745296E+02  0.51100000000E-03 0.  1.
        -12    1    4    4    0    0 -0.92168163985E+01 -0.18374636170E+00  0.11491203412E-01  0.92186549613E+01  0.00000000000E+00 0.  1.
</event>
<event>
 8    1  0.1253703E-006  0.9118800E+02  0.7816164E-02  0.1184000E+00
        -11   -1    0    0    0    0  0.00000000000E+00  0.00000000000E+00  0.45593999997E+02  0.45594000000E+02  0.51100000000E-03 0.  1.
         11   -1    0    0    0    0 -0.00000000000E+00 -0.00000000000E+00 -0.45593999997E+02  0.45594000000E+02  0.51100000000E-03 0. -1.
         23    2    1    2    0    0  0.00000000000E+00  0.00000000000E+00 -0.88817841970E-15  0.91188000000E+02  0.91188000000E+02 0.  0.
    9900012    2    3    3    0    0  0.90220134763E+01 -0.35423019754E+02 -0.44262713892E+01  0.54367096507E+02  0.40000028107E+02 0.  0.
        -12    1    3    3    0    0 -0.90220134763E+01  0.35423019754E+02  0.44262713892E+01  0.36820903493E+02  0.00000000000E+00 0.  1.
         11    1    4    4    0    0  0.81596343670E+01 -0.10247697917E+02 -0.12125022397E+02  0.17849681061E+02  0.51100000000E-03 0. -1.
        -11    1    4    4    0    0 -0.17317116727E+01 -0.25616831739E+02 -0.26758003459E+01  0.25814352624E+02  0.51100000000E-03 0.  1.
        -12    1    4    4    0    0  0.25940907820E+01  0.44150990237E+00  0.10374551353E+02  0.10703062822E+02  0.00000000000E+00 0.  1.
</event>
<event>
 8    1  0.1253703E-006  0.9118800E+02  0.7816164E-02  0.1184000E+00
        -11   -1    0    0    0    0  0.00000000000E+00  0.00000000000E+00  0.45593999997E+02  0.45594000000E+02  0.51100000000E-03 0.  1.
         11   -1    0    0    0    0 -0.00000000000E+00 -0.00000000000E+00 -0.45593999997E+02  0.45594000000E+02  0.51100000000E-03 0. -1.
         23    2    1    2    0    0  0.00000000000E+00  0.00000000000E+00 -0.35527136788E-14  0.91188000000E+02  0.91188000000E+02 0.  0.
    9900012    2    3    3    0    0  0.14270707616E+02  0.23582607053E+02  0.24412850394E+02  0.54367085893E+02  0.40000003911E+02 0.  0.
         12    1    3    3    0    0 -0.14270707616E+02 -0.23582607053E+02 -0.24412850394E+02  0.36820914107E+02  0.00000000000E+00 0. -1.
         11    1    4    4    0    0  0.11539679839E+01 -0.10945381274E+01 -0.37515641174E+01  0.40747870384E+01  0.51100000000E-03 0. -1.
        -11    1    4    4    0    0  0.10708772672E+01  0.28821646388E+02  0.18025099869E+02  0.34010855681E+02  0.51100000000E-03 0.  1.
        -12    1    4    4    0    0  0.12045862365E+02 -0.41445012079E+01  0.10139314643E+02  0.16281443174E+02  0.00000000000E+00 0.  1.
</event>
<event>
 8    1  0.1253703E-006  0.9118800E+02  0.7816164E-02  0.1184000E+00
        -11   -1    0    0    0    0  0.00000000000E+00  0.00000000000E+00  0.45593999997E+02  0.45594000000E+02  0.51100000000E-03 0.  1.
         11   -1    0    0    0    0 -0.00000000000E+00 -0.00000000000E+00 -0.45593999997E+02  0.45594000000E+02  0.51100000000E-03 0. -1.
         23    2    1    2    0    0 -0.22204460493E-14  0.35527136788E-14 -0.35527136788E-14  0.91188000000E+02  0.91188000000E+02 0.  0.
    9900012    2    3    3    0    0 -0.23857901497E+01 -0.26737202362E+02  0.25203362492E+02  0.54367089288E+02  0.40000011649E+02 0.  0.
         12    1    3    3    0    0  0.23857901497E+01  0.26737202362E+02 -0.25203362492E+02  0.36820910712E+02  0.00000000000E+00 0. -1.
         11    1    4    4    0    0 -0.17171056724E+02 -0.14932221513E+02  0.16961320895E+02  0.28381381839E+02  0.51100000000E-03 0. -1.
        -11    1    4    4    0    0  0.16779423851E+02 -0.10209108887E+02  0.26257047466E+01  0.19815884909E+02  0.51100000000E-03 0.  1.
        -12    1    4    4    0    0 -0.19941572764E+01 -0.15958719629E+01  0.56163368497E+01  0.61698225400E+01  0.00000000000E+00 0.  1.
</event>
<event>
 8    1  0.1253703E-006  0.9118800E+02  0.7816164E-02  0.1184000E+00
        -11   -1    0    0    0    0  0.00000000000E+00  0.00000000000E+00  0.45593999997E+02  0.45594000000E+02  0.51100000000E-03 0.  1.
         11   -1    0    0    0    0 -0.00000000000E+00 -0.00000000000E+00 -0.45593999997E+02  0.45594000000E+02  0.51100000000E-03 0. -1.
         23    2    1    2    0    0  0.00000000000E+00  0.17763568394E-14  0.00000000000E+00  0.91188000000E+02  0.91188000000E+02 0.  0.
    9900012    2    3    3    0    0 -0.29087403670E+02  0.15177039618E+02  0.16714129892E+02  0.54367058650E+02  0.39999941805E+02 0.  0.
         12    1    3    3    0    0  0.29087403670E+02 -0.15177039618E+02 -0.16714129892E+02  0.36820941350E+02  0.00000000000E+00 0. -1.
         11    1    4    4    0    0 -0.97517626172E+01 -0.81566210181E+01 -0.22489286448E+01  0.12910655324E+02  0.51100000000E-03 0. -1.
        -11    1    4    4    0    0  0.82160665459E+00  0.10832472191E+02  0.13109417785E+02  0.17025696056E+02  0.51100000000E-03 0.  1.
         12    1    4    4    0    0 -0.20157247708E+02  0.12501188445E+02  0.58536407517E+01  0.24430707270E+02  0.00000000000E+00 0. -1.
</event>
<event>
 8    1  0.1253703E-006  0.9118800E+02  0.7816164E-02  0.1184000E+00
        -11   -1    0    0    0    0  0.00000000000E+00  0.00000000000E+00  0.45593999997E+02  0.45594000000E+02  0.51100000000E-03 0.  1.
         11   -1    0    0    0    0 -0.00000000000E+00 -0.00000000000E+00 -0.45593999997E+02  0.45594000000E+02  0.51100000000E-03 0. -1.
         23    2    1    2    0    0  0.17763568394E-14  0.00000000000E+00  0.00000000000E+00  0.91188000000E+02  0.91188000000E+02 0.  0.
    9900012    2    3    3    0    0  0.15334160811E+02 -0.38271853650E+01  0.33256527733E+02  0.54367075617E+02  0.39999980484E+02 0.  0.
         12    1    3    3    0    0 -0.15334160811E+02  0.38271853650E+01 -0.33256527733E+02  0.36820924383E+02  0.00000000000E+00 0. -1.
         11    1    4    4    0    0  0.51558986703E+01  0.11735945115E+02  0.16937592435E+02  0.21241415598E+02  0.51100000000E-03 0.  1.
        -11    1    4    4    0    0  0.16997352916E+02 -0.13392522321E+02  0.11586936633E+02  0.24546420535E+02  0.51100000000E-03 0. -1.
        -12    1    4    4    0    0 -0.68190907748E+01 -0.21706081581E+01  0.47319986641E+01  0.85792394843E+01  0.00000000000E+00 0.  1.
</event>
<event>
 8    1  0.1253703E-006  0.9118800E+02  0.7816164E-02  0.1184000E+00
        -11   -1    0    0    0    0  0.00000000000E+00  0.00000000000E+00  0.45593999997E+02  0.45594000000E+02  0.51100000000E-03 0.  1.
         11   -1    0    0    0    0 -0.00000000000E+00 -0.00000000000E+00 -0.45593999997E+02  0.45594000000E+02  0.51100000000E-03 0. -1.
         23    2    1    2    0    0 -0.35527136788E-14 -0.35527136788E-14 -0.35527136788E-14  0.91188000000E+02  0.91188000000E+02 0.  0.
    9900012    2    3    3    0    0  0.17951518947E+02  0.21683639542E+02 -0.23734831732E+02  0.54367088908E+02  0.40000010784E+02 0.  0.
        -12    1    3    3    0    0 -0.17951518947E+02 -0.21683639542E+02  0.23734831732E+02  0.36820911092E+02  0.00000000000E+00 0.  1.
         11    1    4    4    0    0 -0.92725719990E+01 -0.89874912672E+00 -0.27116984037E+01  0.97026620039E+01  0.51100000000E-03 0. -1.
        -11    1    4    4    0    0  0.29634685652E+01  0.21777365337E+01  0.31153846905E+01  0.48197826069E+01  0.51100000000E-03 0.  1.
         12    1    4    4    0    0  0.24260622381E+02  0.20404652135E+02 -0.24138518018E+02  0.39844644297E+02  0.00000000000E+00 0. -1.
</event>
<event>
 8    1  0.1253703E-006  0.9118800E+02  0.7816164E-02  0.1184000E+00
        -11   -1    0    0    0    0  0.00000000000E+00  0.00000000000E+00  0.45593999997E+02  0.45594000000E+02  0.51100000000E-03 0.  1.
         11   -1    0    0    0    0 -0.00000000000E+00 -0.00000000000E+00 -0.45593999997E+02  0.45594000000E+02  0.51100000000E-03 0. -1.
         23    2    1    2    0    0  0.00000000000E+00  0.88817841970E-15  0.00000000000E+00  0.91188000000E+02  0.91188000000E+02 0.  0.
    9900012    2    3    3    0    0  0.25771076647E+02  0.58006667776E+01 -0.25651196647E+02  0.54367081814E+02  0.39999994612E+02 0.  0.
        -12    1    3    3    0    0 -0.25771076647E+02 -0.58006667776E+01  0.25651196647E+02  0.36820918186E+02  0.00000000000E+00 0.  1.
         11    1    4    4    0    0  0.31818659320E+02 -0.26824418108E+01 -0.24792008504E+02  0.40426059181E+02  0.51100000000E-03 0. -1.
        -11    1    4    4    0    0 -0.23989798202E+01 -0.10034246654E+01 -0.25445795012E+01  0.36382482510E+01  0.51100000000E-03 0.  1.
         12    1    4    4    0    0 -0.36486028524E+01  0.94865332537E+01  0.16853913580E+01  0.10302774383E+02  0.00000000000E+00 0. -1.
</event>
<event>
 8    1  0.1253703E-006  0.9118800E+02  0.7816164E-02  0.1184000E+00
        -11   -1    0    0    0    0  0.00000000000E+00  0.00000000000E+00  0.45593999997E+02  0.45594000000E+02  0.51100000000E-03 0. -1.
         11   -1    0    0    0    0 -0.00000000000E+00 -0.00000000000E+00 -0.45593999997E+02  0.45594000000E+02  0.51100000000E-03 0.  1.
         23    2    1    2    0    0  0.00000000000E+00  0.00000000000E+00 -0.35527136788E-14  0.91188000000E+02  0.91188000000E+02 0.  0.
    9900012    2    3    3    0    0 -0.14015058020E+02  0.23694273428E+02 -0.24452820383E+02  0.54367070228E+02  0.39999968199E+02 0.  0.
         12    1    3    3    0    0  0.14015058020E+02 -0.23694273428E+02  0.24452820383E+02  0.36820929772E+02  0.00000000000E+00 0. -1.
         11    1    4    4    0    0 -0.71461945369E+01  0.17980423290E+02  0.41754461140E+01  0.19793889677E+02  0.51100000000E-03 0. -1.
        -11    1    4    4    0    0  0.23618727646E+01 -0.18357283307E+01 -0.19034665562E+02  0.19268285725E+02  0.51100000000E-03 0.  1.
         12    1    4    4    0    0 -0.92307362475E+01  0.75495784686E+01 -0.95936009352E+01  0.15304894826E+02  0.00000000000E+00 0. -1.
</event>
<event>
 8    1  0.1253703E-006  0.9118800E+02  0.7816164E-02  0.1184000E+00
        -11   -1    0    0    0    0  0.00000000000E+00  0.00000000000E+00  0.45593999997E+02  0.45594000000E+02  0.51100000000E-03 0.  1.
         11   -1    0    0    0    0 -0.00000000000E+00 -0.00000000000E+00 -0.45593999997E+02  0.45594000000E+02  0.51100000000E-03 0. -1.
         23    2    1    2    0    0 -0.35527136788E-14 -0.17763568394E-14  0.00000000000E+00  0.91188000000E+02  0.91188000000E+02 0.  0.
    9900012    2    3    3    0    0 -0.21273440592E+02  0.11370500480E+02  0.27819665912E+02  0.54367063466E+02  0.39999952783E+02 0.  0.
         12    1    3    3    0    0  0.21273440592E+02 -0.11370500480E+02 -0.27819665912E+02  0.36820936534E+02  0.00000000000E+00 0. -1.
         11    1    4    4    0    0 -0.91428423757E+01 -0.69890540679E+01  0.11681565820E+02  0.16398092076E+02  0.51100000000E-03 0. -1.
        -11    1    4    4    0    0  0.59062148684E+01 -0.68308741835E+00 -0.17773909014E+01  0.62055701728E+01  0.51100000000E-03 0.  1.
         12    1    4    4    0    0 -0.18036813085E+02  0.19042641966E+02  0.17915490993E+02  0.31763401216E+02  0.00000000000E+00 0. -1.
</event>
<event>
 8    1  0.1253703E-006  0.9118800E+02  0.7816164E-02  0.1184000E+00
        -11   -1    0    0    0    0  0.00000000000E+00  0.00000000000E+00  0.45593999997E+02  0.45594000000E+02  0.51100000000E-03 0. -1.
         11   -1    0    0    0    0 -0.00000000000E+00 -0.00000000000E+00 -0.45593999997E+02  0.45594000000E+02  0.51100000000E-03 0.  1.
         23    2    1    2    0    0 -0.17763568394E-14 -0.35527136788E-14  0.00000000000E+00  0.91188000000E+02  0.91188000000E+02 0.  0.
    9900012    2    3    3    0    0  0.15612501671E+02  0.21141191191E+02  0.25789199317E+02  0.54367041636E+02  0.39999903019E+02 0.  0.
        -12    1    3    3    0    0 -0.15612501671E+02 -0.21141191191E+02 -0.25789199317E+02  0.36820958364E+02  0.00000000000E+00 0.  1.
         11    1    4    4    0    0  0.15209814216E+01  0.40487757217E+01 -0.66010366161E+01  0.78917459410E+01  0.51100000000E-03 0. -1.
        -11    1    4    4    0    0 -0.47188504187E+01 -0.47342820814E+00 -0.43604609936E+00  0.47625434386E+01  0.51100000000E-03 0.  1.
         12    1    4    4    0    0  0.18810370668E+02  0.17565843678E+02  0.32826282032E+02  0.41712752257E+02  0.00000000000E+00 0. -1.
</event>
<event>
 8    1  0.1253703E-006  0.9118800E+02  0.7816164E-02  0.1184000E+00
        -11   -1    0    0    0    0  0.00000000000E+00  0.00000000000E+00  0.45593999997E+02  0.45594000000E+02  0.51100000000E-03 0. -1.
         11   -1    0    0    0    0 -0.00000000000E+00 -0.00000000000E+00 -0.45593999997E+02  0.45594000000E+02  0.51100000000E-03 0.  1.
         23    2    1    2    0    0  0.88817841970E-15  0.00000000000E+00  0.88817841970E-15  0.91188000000E+02  0.91188000000E+02 0.  0.
    9900012    2    3    3    0    0  0.46919316936E+01  0.36388687107E+02 -0.31030072978E+01  0.54367089818E+02  0.40000012858E+02 0.  0.
         12    1    3    3    0    0 -0.46919316936E+01 -0.36388687107E+02  0.31030072978E+01  0.36820910182E+02  0.00000000000E+00 0. -1.
         11    1    4    4    0    0 -0.32671940881E+01 -0.15794294258E+00 -0.10679225474E+02  0.11168946242E+02  0.51100000000E-03 0. -1.
        -11    1    4    4    0    0 -0.43218756235E+01  0.10745634169E+02 -0.41607464185E+01  0.12306870992E+02  0.51100000000E-03 0.  1.
         12    1    4    4    0    0  0.12281001405E+02  0.25800995880E+02  0.11736964595E+02  0.30891272583E+02  0.00000000000E+00 0. -1.
</event>
<event>
 8    1  0.1253703E-006  0.9118800E+02  0.7816164E-02  0.1184000E+00
        -11   -1    0    0    0    0  0.00000000000E+00  0.00000000000E+00  0.45593999997E+02  0.45594000000E+02  0.51100000000E-03 0.  1.
         11   -1    0    0    0    0 -0.00000000000E+00 -0.00000000000E+00 -0.45593999997E+02  0.45594000000E+02  0.51100000000E-03 0. -1.
         23    2    1    2    0    0 -0.44408920985E-15 -0.71054273576E-14  0.17763568394E-14  0.91188000000E+02  0.91188000000E+02 0.  0.
    9900012    2    3    3    0    0  0.11827414877E+01 -0.33288074202E+02  0.15693492788E+02  0.54367075549E+02  0.39999980329E+02 0.  0.
         12    1    3    3    0    0 -0.11827414877E+01  0.33288074202E+02 -0.15693492788E+02  0.36820924451E+02  0.00000000000E+00 0. -1.
         11    1    4    4    0    0  0.56749453456E+01 -0.68919456163E+01 -0.10713050428E+02  0.13945370873E+02  0.51100000000E-03 0. -1.
        -11    1    4    4    0    0 -0.52397460569E+01 -0.27394755261E+02  0.21107753526E+02  0.34978061892E+02  0.51100000000E-03 0.  1.
        -12    1    4    4    0    0  0.74754219907E+00  0.99862667467E+00  0.52987896904E+01  0.54436427838E+01  0.00000000000E+00 0.  1.
</event>
<event>
 8    1  0.1253703E-006  0.9118800E+02  0.7816164E-02  0.1184000E+00
        -11   -1    0    0    0    0  0.00000000000E+00  0.00000000000E+00  0.45593999997E+02  0.45594000000E+02  0.51100000000E-03 0. -1.
         11   -1    0    0    0    0 -0.00000000000E+00 -0.00000000000E+00 -0.45593999997E+02  0.45594000000E+02  0.51100000000E-03 0.  1.
         23    2    1    2    0    0 -0.17763568394E-14  0.00000000000E+00  0.35527136788E-14  0.91188000000E+02  0.91188000000E+02 0.  0.
    9900012    2    3    3    0    0  0.15327516451E+02  0.22973794269E+02 -0.24352664957E+02  0.54367078309E+02  0.39999986621E+02 0.  0.
        -12    1    3    3    0    0 -0.15327516451E+02 -0.22973794269E+02  0.24352664957E+02  0.36820921691E+02  0.00000000000E+00 0.  1.
         11    1    4    4    0    0  0.86318533000E+01  0.21624239157E+02 -0.17330279020E+02  0.29025078496E+02  0.51100000000E-03 0. -1.
        -11    1    4    4    0    0  0.89059633749E+01 -0.90684533230E+01 -0.23387594761E+00  0.12712502803E+02  0.51100000000E-03 0.  1.
        -12    1    4    4    0    0 -0.22103002239E+01  0.10418008435E+02 -0.67885099888E+01  0.12629497009E+02  0.00000000000E+00 0.  1.
</event>
<event>
 8    1  0.1253703E-006  0.9118800E+02  0.7816164E-02  0.1184000E+00
        -11   -1    0    0    0    0  0.00000000000E+00  0.00000000000E+00  0.45593999997E+02  0.45594000000E+02  0.51100000000E-03 0. -1.
         11   -1    0    0    0    0 -0.00000000000E+00 -0.00000000000E+00 -0.45593999997E+02  0.45594000000E+02  0.51100000000E-03 0.  1.
         23    2    1    2    0    0  0.00000000000E+00  0.00000000000E+00  0.35527136788E-14  0.91188000000E+02  0.91188000000E+02 0.  0.
    9900012    2    3    3    0    0  0.90256117225E+01 -0.30660260613E+02 -0.18282923429E+02  0.54367101900E+02  0.40000040401E+02 0.  0.
         12    1    3    3    0    0 -0.90256117225E+01  0.30660260613E+02  0.18282923429E+02  0.36820898100E+02  0.00000000000E+00 0. -1.
         11    1    4    4    0    0  0.14602720504E+02  0.66899270754E+00 -0.41506033390E+00  0.14623928088E+02  0.51100000000E-03 0. -1.
        -11    1    4    4    0    0 -0.50283514306E+01 -0.71909645646E+01  0.13579789838E+01  0.88790988654E+01  0.51100000000E-03 0.  1.
        -12    1    4    4    0    0 -0.54875735130E+00 -0.24138288756E+02 -0.19225842078E+02  0.30864074947E+02  0.00000000000E+00 0.  1.
</event>
<event>
 8    1  0.1253703E-006  0.9118800E+02  0.7816164E-02  0.1184000E+00
        -11   -1    0    0    0    0  0.00000000000E+00  0.00000000000E+00  0.45593999997E+02  0.45594000000E+02  0.51100000000E-03 0.  1.
         11   -1    0    0    0    0 -0.00000000000E+00 -0.00000000000E+00 -0.45593999997E+02  0.45594000000E+02  0.51100000000E-03 0. -1.
         23    2    1    2    0    0 -0.35527136788E-14  0.35527136788E-14  0.00000000000E+00  0.91188000000E+02  0.91188000000E+02 0.  0.
    9900012    2    3    3    0    0 -0.13576751851E+02  0.24944561709E+02  0.23435453478E+02  0.54367084349E+02  0.40000000390E+02 0.  0.
        -12    1    3    3    0    0  0.13576751851E+02 -0.24944561709E+02 -0.23435453478E+02  0.36820915651E+02  0.00000000000E+00 0.  1.
         11    1    4    4    0    0 -0.17752170833E+02  0.12706563206E+02 -0.18797614325E+00  0.21831895316E+02  0.51100000000E-03 0. -1.
        -11    1    4    4    0    0  0.65502295784E+01 -0.12902825716E+01  0.20925961604E+01  0.69963773195E+01  0.51100000000E-03 0.  1.
         12    1    4    4    0    0 -0.23748105958E+01  0.13528281074E+02  0.21530833461E+02  0.25538811713E+02  0.00000000000E+00 0. -1.
</event>
<event>
 8    1  0.1253703E-006  0.9118800E+02  0.7816164E-02  0.1184000E+00
        -11   -1    0    0    0    0  0.00000000000E+00  0.00000000000E+00  0.45593999997E+02  0.45594000000E+02  0.51100000000E-03 0.  1.
         11   -1    0    0    0    0 -0.00000000000E+00 -0.00000000000E+00 -0.45593999997E+02  0.45594000000E+02  0.51100000000E-03 0. -1.
         23    2    1    2    0    0  0.00000000000E+00  0.00000000000E+00  0.00000000000E+00  0.91188000000E+02  0.91188000000E+02 0.  0.
    9900012    2    3    3    0    0  0.24026647131E+02  0.12557891266E+02  0.24915828642E+02  0.54367096666E+02  0.40000028470E+02 0.  0.
         12    1    3    3    0    0 -0.24026647131E+02 -0.12557891266E+02 -0.24915828642E+02  0.36820903334E+02  0.00000000000E+00 0. -1.
         11    1    4    4    0    0 -0.22017385741E+01  0.75581158215E+01  0.23037422345E+02  0.24345340336E+02  0.51100000000E-03 0. -1.
        -11    1    4    4    0    0  0.28591434875E+01  0.12311327561E+00  0.51838752592E+01  0.59213529978E+01  0.51100000000E-03 0.  1.
         12    1    4    4    0    0  0.23369242218E+02  0.48766621686E+01 -0.33054689617E+01  0.24100403333E+02  0.00000000000E+00 0. -1.
</event>
<event>
 8    1  0.1253703E-006  0.9118800E+02  0.7816164E-02  0.1184000E+00
        -11   -1    0    0    0    0  0.00000000000E+00  0.00000000000E+00  0.45593999997E+02  0.45594000000E+02  0.51100000000E-03 0. -1.
         11   -1    0    0    0    0 -0.00000000000E+00 -0.00000000000E+00 -0.45593999997E+02  0.45594000000E+02  0.51100000000E-03 0.  1.
         23    2    1    2    0    0  0.00000000000E+00  0.00000000000E+00 -0.71054273576E-14  0.91188000000E+02  0.91188000000E+02 0.  0.
    9900012    2    3    3    0    0  0.18551789289E+01 -0.28314347538E+02  0.23465561437E+02  0.54367129031E+02  0.40000102251E+02 0.  0.
        -12    1    3    3    0    0 -0.18551789289E+01  0.28314347538E+02 -0.23465561437E+02  0.36820870969E+02  0.00000000000E+00 0.  1.
         11    1    4    4    0    0  0.12666918897E+02 -0.98208798119E+00  0.11551597758E+02  0.17171334898E+02  0.51100000000E-03 0. -1.
        -11    1    4    4    0    0  0.10550915081E+01 -0.21530870800E+02  0.44068171971E+01  0.22002537435E+02  0.51100000000E-03 0.  1.
        -12    1    4    4    0    0 -0.11866831476E+02 -0.58013887568E+01  0.75071464815E+01  0.15193256698E+02  0.00000000000E+00 0.  1.
</event>
<event>
 8    1  0.1253703E-006  0.9118800E+02  0.7816164E-02  0.1184000E+00
        -11   -1    0    0    0    0  0.00000000000E+00  0.00000000000E+00  0.45593999997E+02  0.45594000000E+02  0.51100000000E-03 0. -1.
         11   -1    0    0    0    0 -0.00000000000E+00 -0.00000000000E+00 -0.45593999997E+02  0.45594000000E+02  0.51100000000E-03 0.  1.
         23    2    1    2    0    0  0.17763568394E-14  0.00000000000E+00 -0.35527136788E-14  0.91188000000E+02  0.91188000000E+02 0.  0.
    9900012    2    3    3    0    0  0.15127617538E+02 -0.13792170319E+02  0.30605726759E+02  0.54367091742E+02  0.40000017244E+02 0.  0.
        -12    1    3    3    0    0 -0.15127617538E+02  0.13792170319E+02 -0.30605726759E+02  0.36820908258E+02  0.00000000000E+00 0.  1.
         11    1    4    4    0    0 -0.36254757467E+01 -0.95937400375E+01  0.57249033161E+01  0.11745571103E+02  0.51100000000E-03 0. -1.
        -11    1    4    4    0    0  0.75493010714E+00 -0.12762319285E+02  0.16806421682E+02  0.21116404122E+02  0.51100000000E-03 0.  1.
        -12    1    4    4    0    0  0.17998163177E+02  0.85638890035E+01  0.80744017609E+01  0.21505116517E+02  0.00000000000E+00 0.  1.
</event>
<event>
 8    1  0.1253703E-006  0.9118800E+02  0.7816164E-02  0.1184000E+00
        -11   -1    0    0    0    0  0.00000000000E+00  0.00000000000E+00  0.45593999997E+02  0.45594000000E+02  0.51100000000E-03 0.  1.
         11   -1    0    0    0    0 -0.00000000000E+00 -0.00000000000E+00 -0.45593999997E+02  0.45594000000E+02  0.51100000000E-03 0. -1.
         23    2    1    2    0    0  0.17763568394E-14  0.00000000000E+00 -0.88817841970E-15  0.91188000000E+02  0.91188000000E+02 0.  0.
    9900012    2    3    3    0    0  0.50957378419E+00 -0.36350940272E+02 -0.58420073852E+01  0.54367087812E+02  0.40000008284E+02 0.  0.
        -12    1    3    3    0    0 -0.50957378419E+00  0.36350940272E+02  0.58420073852E+01  0.36820912188E+02  0.00000000000E+00 0.  1.
         11    1    4    4    0    0  0.15794242442E+02 -0.84020186660E+01 -0.96616473943E+01  0.20332226701E+02  0.51100000000E-03 0. -1.
        -11    1    4    4    0    0 -0.74960482804E+01 -0.23403243018E+02  0.45314577766E+01  0.24988730128E+02  0.51100000000E-03 0.  1.
         12    1    4    4    0    0 -0.77886203777E+01 -0.45456785879E+01 -0.71181776741E+00  0.90461309822E+01  0.00000000000E+00 0. -1.
</event>
<event>
 8    1  0.1253703E-006  0.9118800E+02  0.7816164E-02  0.1184000E+00
        -11   -1    0    0    0    0  0.00000000000E+00  0.00000000000E+00  0.45593999997E+02  0.45594000000E+02  0.51100000000E-03 0.  1.
         11   -1    0    0    0    0 -0.00000000000E+00 -0.00000000000E+00 -0.45593999997E+02  0.45594000000E+02  0.51100000000E-03 0. -1.
         23    2    1    2    0    0  0.35527136788E-14  0.35527136788E-14  0.17763568394E-14  0.91188000000E+02  0.91188000000E+02 0.  0.
    9900012    2    3    3    0    0  0.20268140764E+02 -0.28678484914E+02  0.11069214679E+02  0.54367074691E+02  0.39999978374E+02 0.  0.
         12    1    3    3    0    0 -0.20268140764E+02  0.28678484914E+02 -0.11069214679E+02  0.36820925309E+02  0.00000000000E+00 0. -1.
         11    1    4    4    0    0 -0.37337285189E+00  0.60433869883E+01  0.29386981458E+01  0.67303700218E+01  0.51100000000E-03 0. -1.
        -11    1    4    4    0    0  0.24389916760E+02 -0.25013573713E+02  0.86942908781E+00  0.34947143183E+02  0.51100000000E-03 0.  1.
         12    1    4    4    0    0 -0.37484031432E+01 -0.97082981889E+01  0.72610874449E+01  0.12689561487E+02  0.00000000000E+00 0. -1.
</event>
<event>
 8    1  0.1253703E-006  0.9118800E+02  0.7816164E-02  0.1184000E+00
        -11   -1    0    0    0    0  0.00000000000E+00  0.00000000000E+00  0.45593999997E+02  0.45594000000E+02  0.51100000000E-03 0. -1.
         11   -1    0    0    0    0 -0.00000000000E+00 -0.00000000000E+00 -0.45593999997E+02  0.45594000000E+02  0.51100000000E-03 0.  1.
         23    2    1    2    0    0  0.00000000000E+00 -0.35527136788E-14  0.00000000000E+00  0.91188000000E+02  0.91188000000E+02 0.  0.
    9900012    2    3    3    0    0  0.21516689624E+02 -0.27765024785E+02  0.11041518730E+02  0.54367086519E+02  0.40000005338E+02 0.  0.
        -12    1    3    3    0    0 -0.21516689624E+02  0.27765024785E+02 -0.11041518730E+02  0.36820913481E+02  0.00000000000E+00 0.  1.
         11    1    4    4    0    0  0.19281425157E+02 -0.18075032925E+02 -0.28810510531E+00  0.26430345743E+02  0.51100000000E-03 0. -1.
        -11    1    4    4    0    0 -0.43900937499E+01 -0.10129348234E+02  0.16269049896E+02  0.19661093651E+02  0.51100000000E-03 0.  1.
         12    1    4    4    0    0  0.66253582173E+01  0.43935637370E+00 -0.49394260603E+01  0.82756471249E+01  0.00000000000E+00 0. -1.
</event>
<event>
 8    1  0.1253703E-006  0.9118800E+02  0.7816164E-02  0.1184000E+00
        -11   -1    0    0    0    0  0.00000000000E+00  0.00000000000E+00  0.45593999997E+02  0.45594000000E+02  0.51100000000E-03 0.  1.
         11   -1    0    0    0    0 -0.00000000000E+00 -0.00000000000E+00 -0.45593999997E+02  0.45594000000E+02  0.51100000000E-03 0. -1.
         23    2    1    2    0    0 -0.35527136788E-14  0.00000000000E+00  0.00000000000E+00  0.91188000000E+02  0.91188000000E+02 0.  0.
    9900012    2    3    3    0    0 -0.19517468030E+02  0.24006485840E+01 -0.31130087972E+02  0.54367122103E+02  0.40000086459E+02 0.  0.
        -12    1    3    3    0    0  0.19517468030E+02 -0.24006485840E+01  0.31130087972E+02  0.36820877897E+02  0.00000000000E+00 0.  1.
         11    1    4    4    0    0 -0.91148200355E+01  0.11492783587E+01 -0.36406565455E+01  0.98820628094E+01  0.51100000000E-03 0. -1.
        -11    1    4    4    0    0 -0.20114316488E+02 -0.39569153414E+00 -0.62402820896E+01  0.21063794065E+02  0.51100000000E-03 0.  1.
        -12    1    4    4    0    0  0.97116684940E+01  0.16470617595E+01 -0.21249149337E+02  0.23421265229E+02  0.00000000000E+00 0.  1.
</event>
<event>
 8    1  0.1253703E-006  0.9118800E+02  0.7816164E-02  0.1184000E+00
        -11   -1    0    0    0    0  0.00000000000E+00  0.00000000000E+00  0.45593999997E+02  0.45594000000E+02  0.51100000000E-03 0.  1.
         11   -1    0    0    0    0 -0.00000000000E+00 -0.00000000000E+00 -0.45593999997E+02  0.45594000000E+02  0.51100000000E-03 0. -1.
         23    2    1    2    0    0  0.00000000000E+00 -0.88817841970E-15  0.35527136788E-14  0.91188000000E+02  0.91188000000E+02 0.  0.
    9900012    2    3    3    0    0  0.19648800655E+02 -0.59615776957E+01  0.30564079809E+02  0.54367099001E+02  0.40000033792E+02 0.  0.
         12    1    3    3    0    0 -0.19648800655E+02  0.59615776957E+01 -0.30564079809E+02  0.36820900999E+02  0.00000000000E+00 0. -1.
         11    1    4    4    0    0  0.44871277692E+00  0.28983714394E+00  0.22306004389E+02  0.22312399709E+02  0.51100000000E-03 0. -1.
        -11    1    4    4    0    0  0.15370690382E+02 -0.12975828252E+01 -0.59460842770E+01  0.16531719889E+02  0.51100000000E-03 0.  1.
        -12    1    4    4    0    0  0.38293974964E+01 -0.49538320145E+01  0.14204159697E+02  0.15522979402E+02  0.00000000000E+00 0.  1.
</event>
<event>
 8    1  0.1253703E-006  0.9118800E+02  0.7816164E-02  0.1184000E+00
        -11   -1    0    0    0    0  0.00000000000E+00  0.00000000000E+00  0.45593999997E+02  0.45594000000E+02  0.51100000000E-03 0. -1.
         11   -1    0    0    0    0 -0.00000000000E+00 -0.00000000000E+00 -0.45593999997E+02  0.45594000000E+02  0.51100000000E-03 0.  1.
         23    2    1    2    0    0  0.17763568394E-14  0.33306690739E-15  0.71054273576E-14  0.91188000000E+02  0.91188000000E+02 0.  0.
    9900012    2    3    3    0    0 -0.10617062617E+02 -0.95998550963E+00 -0.35243950079E+02  0.54367087356E+02  0.40000007245E+02 0.  0.
         12    1    3    3    0    0  0.10617062617E+02  0.95998550963E+00  0.35243950079E+02  0.36820912644E+02  0.00000000000E+00 0. -1.
         11    1    4    4    0    0 -0.27737002046E+01 -0.26177708973E+01  0.65009847727E+01  0.75371705946E+01  0.51100000000E-03 0. -1.
        -11    1    4    4    0    0 -0.90037901862E+01 -0.23191734595E+01 -0.65050544237E+01  0.11347358132E+02  0.51100000000E-03 0.  1.
        -12    1    4    4    0    0  0.11604277742E+01  0.39769588472E+01 -0.35239880428E+02  0.35482558629E+02  0.00000000000E+00 0.  1.
</event>
<event>
 8    1  0.1253703E-006  0.9118800E+02  0.7816164E-02  0.1184000E+00
        -11   -1    0    0    0    0  0.00000000000E+00  0.00000000000E+00  0.45593999997E+02  0.45594000000E+02  0.51100000000E-03 0. -1.
         11   -1    0    0    0    0 -0.00000000000E+00 -0.00000000000E+00 -0.45593999997E+02  0.45594000000E+02  0.51100000000E-03 0.  1.
         23    2    1    2    0    0  0.00000000000E+00  0.17763568394E-14  0.00000000000E+00  0.91188000000E+02  0.91188000000E+02 0.  0.
    9900012    2    3    3    0    0  0.28802226526E+02  0.15070493245E+02  0.17294273831E+02  0.54367083025E+02  0.39999997373E+02 0.  0.
         12    1    3    3    0    0 -0.28802226526E+02 -0.15070493245E+02 -0.17294273831E+02  0.36820916975E+02  0.00000000000E+00 0. -1.
         11    1    4    4    0    0  0.23695799673E+02  0.21297889724E+02  0.11735772231E+02  0.33953193943E+02  0.51100000000E-03 0.  1.
        -11    1    4    4    0    0  0.10646896428E+02  0.58724618257E+00  0.44770911530E+01  0.11564843582E+02  0.51100000000E-03 0. -1.
        -12    1    4    4    0    0 -0.55404695744E+01 -0.68146426614E+01  0.10814104472E+01  0.88490455001E+01  0.00000000000E+00 0.  1.
</event>
<event>
 8    1  0.1253703E-006  0.9118800E+02  0.7816164E-02  0.1184000E+00
        -11   -1    0    0    0    0  0.00000000000E+00  0.00000000000E+00  0.45593999997E+02  0.45594000000E+02  0.51100000000E-03 0.  1.
         11   -1    0    0    0    0 -0.00000000000E+00 -0.00000000000E+00 -0.45593999997E+02  0.45594000000E+02  0.51100000000E-03 0. -1.
         23    2    1    2    0    0 -0.11102230246E-15  0.35527136788E-14  0.00000000000E+00  0.91188000000E+02  0.91188000000E+02 0.  0.
    9900012    2    3    3    0    0 -0.79000605080E+00 -0.30587429272E+02  0.20483244124E+02  0.54367106083E+02  0.40000049936E+02 0.  0.
        -12    1    3    3    0    0  0.79000605080E+00  0.30587429272E+02 -0.20483244124E+02  0.36820893917E+02  0.00000000000E+00 0.  1.
         11    1    4    4    0    0 -0.27695867005E+01 -0.98730745890E+01 -0.76074284357E+01  0.12767974781E+02  0.51100000000E-03 0. -1.
        -11    1    4    4    0    0 -0.13107412869E+01 -0.20019880471E+02  0.86131785560E+01  0.21833472053E+02  0.51100000000E-03 0.  1.
         12    1    4    4    0    0  0.32903219366E+01 -0.69447421221E+00  0.19477494004E+02  0.19765659249E+02  0.00000000000E+00 0. -1.
</event>
<event>
 8    1  0.1253703E-006  0.9118800E+02  0.7816164E-02  0.1184000E+00
        -11   -1    0    0    0    0  0.00000000000E+00  0.00000000000E+00  0.45593999997E+02  0.45594000000E+02  0.51100000000E-03 0. -1.
         11   -1    0    0    0    0 -0.00000000000E+00 -0.00000000000E+00 -0.45593999997E+02  0.45594000000E+02  0.51100000000E-03 0.  1.
         23    2    1    2    0    0  0.00000000000E+00  0.00000000000E+00  0.00000000000E+00  0.91188000000E+02  0.91188000000E+02 0.  0.
    9900012    2    3    3    0    0  0.35184028388E+02  0.43074009344E+01  0.99654483311E+01  0.54367085877E+02  0.40000003874E+02 0.  0.
        -12    1    3    3    0    0 -0.35184028388E+02 -0.43074009344E+01 -0.99654483311E+01  0.36820914123E+02  0.00000000000E+00 0.  1.
         11    1    4    4    0    0  0.11822636232E+02  0.14185310986E+02  0.52867835545E+01  0.19208015406E+02  0.51100000000E-03 0. -1.
        -11    1    4    4    0    0  0.21525699990E+00 -0.32377234226E+01  0.99871777464E+01  0.10501090807E+02  0.51100000000E-03 0.  1.
        -12    1    4    4    0    0  0.23146135156E+02 -0.66401866288E+01 -0.53085129698E+01  0.24657979664E+02  0.00000000000E+00 0.  1.
</event>
<event>
 8    1  0.1253703E-006  0.9118800E+02  0.7816164E-02  0.1184000E+00
        -11   -1    0    0    0    0  0.00000000000E+00  0.00000000000E+00  0.45593999997E+02  0.45594000000E+02  0.51100000000E-03 0. -1.
         11   -1    0    0    0    0 -0.00000000000E+00 -0.00000000000E+00 -0.45593999997E+02  0.45594000000E+02  0.51100000000E-03 0.  1.
         23    2    1    2    0    0  0.00000000000E+00  0.00000000000E+00  0.00000000000E+00  0.91188000000E+02  0.91188000000E+02 0.  0.
    9900012    2    3    3    0    0  0.34428172862E+02  0.82031867877E+01 -0.10158201058E+02  0.54367076481E+02  0.39999982453E+02 0.  0.
        -12    1    3    3    0    0 -0.34428172862E+02 -0.82031867877E+01  0.10158201058E+02  0.36820923519E+02  0.00000000000E+00 0.  1.
         11    1    4    4    0    0  0.38477163267E+02 -0.22759040819E+01 -0.49071411270E+01  0.38855525563E+02  0.51100000000E-03 0. -1.
        -11    1    4    4    0    0 -0.30257241988E+00  0.24792328012E+00 -0.45786166609E+01  0.45952961613E+01  0.51100000000E-03 0.  1.
        -12    1    4    4    0    0 -0.37464179852E+01  0.10231167589E+02 -0.67244327049E+00  0.10916254757E+02  0.00000000000E+00 0.  1.
</event>
<event>
 8    1  0.1253703E-006  0.9118800E+02  0.7816164E-02  0.1184000E+00
        -11   -1    0    0    0    0  0.00000000000E+00  0.00000000000E+00  0.45593999997E+02  0.45594000000E+02  0.51100000000E-03 0. -1.
         11   -1    0    0    0    0 -0.00000000000E+00 -0.00000000000E+00 -0.45593999997E+02  0.45594000000E+02  0.51100000000E-03 0.  1.
         23    2    1    2    0    0  0.71054273576E-14 -0.22204460493E-15 -0.35527136788E-14  0.91188000000E+02  0.91188000000E+02 0.  0.
    9900012    2    3    3    0    0  0.30034415153E+02 -0.12668916748E+01 -0.21262852571E+02  0.54367081930E+02  0.39999994875E+02 0.  0.
         12    1    3    3    0    0 -0.30034415153E+02  0.12668916748E+01  0.21262852571E+02  0.36820918070E+02  0.00000000000E+00 0. -1.
         11    1    4    4    0    0 -0.56919013183E+01  0.24921983303E+01 -0.17060035744E+02  0.18156365633E+02  0.51100000000E-03 0. -1.
        -11    1    4    4    0    0  0.10447462632E+02 -0.16749715131E+01 -0.17951448769E+01  0.10732080433E+02  0.51100000000E-03 0.  1.
         12    1    4    4    0    0  0.25278853839E+02 -0.20841184920E+01 -0.24076719505E+01  0.25478635864E+02  0.00000000000E+00 0. -1.
</event>
<event>
 8    1  0.1253703E-006  0.9118800E+02  0.7816164E-02  0.1184000E+00
        -11   -1    0    0    0    0  0.00000000000E+00  0.00000000000E+00  0.45593999997E+02  0.45594000000E+02  0.51100000000E-03 0.  1.
         11   -1    0    0    0    0 -0.00000000000E+00 -0.00000000000E+00 -0.45593999997E+02  0.45594000000E+02  0.51100000000E-03 0. -1.
         23    2    1    2    0    0  0.17763568394E-14  0.00000000000E+00  0.00000000000E+00  0.91188000000E+02  0.91188000000E+02 0.  0.
    9900012    2    3    3    0    0 -0.90265090993E+01 -0.96148199737E+01 -0.34378160080E+02  0.54367074970E+02  0.39999979008E+02 0.  0.
        -12    1    3    3    0    0  0.90265090993E+01  0.96148199737E+01  0.34378160080E+02  0.36820925030E+02  0.00000000000E+00 0.  1.
         11    1    4    4    0    0  0.10456630784E+01 -0.77859436556E+01  0.26949223888E+01  0.83052355069E+01  0.51100000000E-03 0. -1.
        -11    1    4    4    0    0  0.53052525956E+00 -0.11906357190E+02 -0.11281096502E+02  0.16410543475E+02  0.51100000000E-03 0.  1.
        -12    1    4    4    0    0 -0.10602697437E+02  0.10077480872E+02 -0.25791985966E+02  0.29651295988E+02  0.00000000000E+00 0.  1.
</event>
<event>
 8    1  0.1253703E-006  0.9118800E+02  0.7816164E-02  0.1184000E+00
        -11   -1    0    0    0    0  0.00000000000E+00  0.00000000000E+00  0.45593999997E+02  0.45594000000E+02  0.51100000000E-03 0. -1.
         11   -1    0    0    0    0 -0.00000000000E+00 -0.00000000000E+00 -0.45593999997E+02  0.45594000000E+02  0.51100000000E-03 0.  1.
         23    2    1    2    0    0 -0.71054273576E-14 -0.44408920985E-14  0.88817841970E-15  0.91188000000E+02  0.91188000000E+02 0.  0.
    9900012    2    3    3    0    0 -0.35840762328E+02 -0.51437579733E+01  0.66904002652E+01  0.54367082764E+02  0.39999996778E+02 0.  0.
         12    1    3    3    0    0  0.35840762328E+02  0.51437579733E+01 -0.66904002652E+01  0.36820917236E+02  0.00000000000E+00 0. -1.
         11    1    4    4    0    0 -0.10803107662E+02  0.12795892112E+02  0.14807910721E+02  0.22354333143E+02  0.51100000000E-03 0. -1.
        -11    1    4    4    0    0 -0.15843925832E+02 -0.11793882892E+02 -0.67332716250E+01  0.20867740810E+02  0.51100000000E-03 0.  1.
         12    1    4    4    0    0 -0.91937288341E+01 -0.61457671933E+01 -0.13842388305E+01  0.11145008811E+02  0.00000000000E+00 0. -1.
</event>
<event>
 8    1  0.1253703E-006  0.9118800E+02  0.7816164E-02  0.1184000E+00
        -11   -1    0    0    0    0  0.00000000000E+00  0.00000000000E+00  0.45593999997E+02  0.45594000000E+02  0.51100000000E-03 0. -1.
         11   -1    0    0    0    0 -0.00000000000E+00 -0.00000000000E+00 -0.45593999997E+02  0.45594000000E+02  0.51100000000E-03 0.  1.
         23    2    1    2    0    0  0.00000000000E+00  0.00000000000E+00  0.00000000000E+00  0.91188000000E+02  0.91188000000E+02 0.  0.
    9900012    2    3    3    0    0  0.31878748614E+02 -0.43546179963E+01 -0.17904242399E+02  0.54367092801E+02  0.40000019658E+02 0.  0.
         12    1    3    3    0    0 -0.31878748614E+02  0.43546179963E+01  0.17904242399E+02  0.36820907199E+02  0.00000000000E+00 0. -1.
         11    1    4    4    0    0  0.12761935894E+02  0.18889598678E+01  0.33203833818E+01  0.13321415961E+02  0.51100000000E-03 0. -1.
        -11    1    4    4    0    0 -0.46573438807E+01 -0.55221863098E+01  0.23108108675E+01  0.75845395898E+01  0.51100000000E-03 0.  1.
        -12    1    4    4    0    0  0.23774156600E+02 -0.72139155423E+00 -0.23535436648E+02  0.33461137250E+02  0.00000000000E+00 0.  1.
</event>
<event>
 8    1  0.1253703E-006  0.9118800E+02  0.7816164E-02  0.1184000E+00
        -11   -1    0    0    0    0  0.00000000000E+00  0.00000000000E+00  0.45593999997E+02  0.45594000000E+02  0.51100000000E-03 0.  1.
         11   -1    0    0    0    0 -0.00000000000E+00 -0.00000000000E+00 -0.45593999997E+02  0.45594000000E+02  0.51100000000E-03 0. -1.
         23    2    1    2    0    0  0.00000000000E+00  0.17763568394E-14  0.35527136788E-14  0.91188000000E+02  0.91188000000E+02 0.  0.
    9900012    2    3    3    0    0  0.24280276546E+02 -0.85838503831E+01 -0.26316700972E+02  0.54367040390E+02  0.39999900178E+02 0.  0.
        -12    1    3    3    0    0 -0.24280276546E+02  0.85838503831E+01  0.26316700972E+02  0.36820959610E+02  0.00000000000E+00 0.  1.
         11    1    4    4    0    0  0.16588874812E+02 -0.10156337987E+02 -0.16667859795E+02  0.25615610850E+02  0.51100000000E-03 0. -1.
        -11    1    4    4    0    0  0.42769885934E+00 -0.21661353951E+01 -0.17370529411E+02  0.17510293006E+02  0.51100000000E-03 0.  1.
        -12    1    4    4    0    0  0.72637028751E+01  0.37386229992E+01  0.77216882346E+01  0.11241136534E+02  0.00000000000E+00 0.  1.
</event>
<event>
 8    1  0.1253703E-006  0.9118800E+02  0.7816164E-02  0.1184000E+00
        -11   -1    0    0    0    0  0.00000000000E+00  0.00000000000E+00  0.45593999997E+02  0.45594000000E+02  0.51100000000E-03 0.  1.
         11   -1    0    0    0    0 -0.00000000000E+00 -0.00000000000E+00 -0.45593999997E+02  0.45594000000E+02  0.51100000000E-03 0. -1.
         23    2    1    2    0    0  0.88817841970E-15 -0.71054273576E-14 -0.35527136788E-14  0.91188000000E+02  0.91188000000E+02 0.  0.
    9900012    2    3    3    0    0  0.77729075339E+01  0.33185095546E+02 -0.13932267575E+02  0.54367126332E+02  0.40000096098E+02 0.  0.
        -12    1    3    3    0    0 -0.77729075339E+01 -0.33185095546E+02  0.13932267575E+02  0.36820873668E+02  0.00000000000E+00 0.  1.
         11    1    4    4    0    0  0.99130564549E+01 -0.51812316045E+01 -0.58531831986E+01  0.12624325845E+02  0.51100000000E-03 0. -1.
        -11    1    4    4    0    0  0.22446867268E+01  0.11728069449E+02  0.33870154723E+01  0.12412014566E+02  0.51100000000E-03 0.  1.
        -12    1    4    4    0    0 -0.43848356478E+01  0.26638257701E+02 -0.11466099849E+02  0.29330785921E+02  0.00000000000E+00 0.  1.
</event>
<event>
 8    1  0.1253703E-006  0.9118800E+02  0.7816164E-02  0.1184000E+00
        -11   -1    0    0    0    0  0.00000000000E+00  0.00000000000E+00  0.45593999997E+02  0.45594000000E+02  0.51100000000E-03 0.  1.
         11   -1    0    0    0    0 -0.00000000000E+00 -0.00000000000E+00 -0.45593999997E+02  0.45594000000E+02  0.51100000000E-03 0. -1.
         23    2    1    2    0    0 -0.88817841970E-15 -0.44408920985E-15  0.00000000000E+00  0.91188000000E+02  0.91188000000E+02 0.  0.
    9900012    2    3    3    0    0 -0.13193792100E+01  0.34900363155E+01  0.36631399216E+02  0.54367074924E+02  0.39999978903E+02 0.  0.
         12    1    3    3    0    0  0.13193792100E+01 -0.34900363155E+01 -0.36631399216E+02  0.36820925076E+02  0.00000000000E+00 0. -1.
         11    1    4    4    0    0 -0.16787429786E+02 -0.66043320905E+01  0.10495110941E+02  0.20870609841E+02  0.51100000000E-03 0. -1.
        -11    1    4    4    0    0  0.14874880144E+01  0.51273830778E+01  0.11384558324E+02  0.12574213547E+02  0.51100000000E-03 0.  1.
         12    1    4    4    0    0  0.13980562562E+02  0.49669853283E+01  0.14751729951E+02  0.20922251536E+02  0.00000000000E+00 0. -1.
</event>
<event>
 8    1  0.1253703E-006  0.9118800E+02  0.7816164E-02  0.1184000E+00
        -11   -1    0    0    0    0  0.00000000000E+00  0.00000000000E+00  0.45593999997E+02  0.45594000000E+02  0.51100000000E-03 0.  1.
         11   -1    0    0    0    0 -0.00000000000E+00 -0.00000000000E+00 -0.45593999997E+02  0.45594000000E+02  0.51100000000E-03 0. -1.
         23    2    1    2    0    0  0.00000000000E+00  0.00000000000E+00  0.00000000000E+00  0.91188000000E+02  0.91188000000E+02 0.  0.
    9900012    2    3    3    0    0  0.19739346518E+02  0.78873909157E+01  0.30065362516E+02  0.54367098875E+02  0.40000033506E+02 0.  0.
         12    1    3    3    0    0 -0.19739346518E+02 -0.78873909157E+01 -0.30065362516E+02  0.36820901125E+02  0.00000000000E+00 0. -1.
         11    1    4    4    0    0  0.11985054128E+02  0.19706272394E+02  0.17290139091E+02  0.28825814892E+02  0.51100000000E-03 0. -1.
        -11    1    4    4    0    0  0.10861067110E+02 -0.99022100776E+01  0.15211934812E+02  0.21152293119E+02  0.51100000000E-03 0.  1.
         12    1    4    4    0    0 -0.31067747203E+01 -0.19166714012E+01 -0.24367113874E+01  0.43889908645E+01  0.00000000000E+00 0. -1.
</event>
<event>
 8    1  0.1253703E-006  0.9118800E+02  0.7816164E-02  0.1184000E+00
        -11   -1    0    0    0    0  0.00000000000E+00  0.00000000000E+00  0.45593999997E+02  0.45594000000E+02  0.51100000000E-03 0.  1.
         11   -1    0    0    0    0 -0.00000000000E+00 -0.00000000000E+00 -0.45593999997E+02  0.45594000000E+02  0.51100000000E-03 0. -1.
         23    2    1    2    0    0 -0.71054273576E-14  0.22204460493E-15  0.00000000000E+00  0.91188000000E+02  0.91188000000E+02 0.  0.
    9900012    2    3    3    0    0  0.35391896825E+02  0.74742219256E+00 -0.10130884534E+02  0.54367084446E+02  0.40000000611E+02 0.  0.
        -12    1    3    3    0    0 -0.35391896825E+02 -0.74742219256E+00  0.10130884534E+02  0.36820915554E+02  0.00000000000E+00 0.  1.
         11    1    4    4    0    0  0.18367572122E+02 -0.11011692127E+02 -0.21817452450E+01  0.21526381064E+02  0.51100000000E-03 0. -1.
        -11    1    4    4    0    0  0.13310581425E+01 -0.58811103672E+01 -0.69610506594E+01  0.92095277552E+01  0.51100000000E-03 0.  1.
        -12    1    4    4    0    0  0.15693266561E+02  0.17640224687E+02 -0.98808862960E+00  0.23631175626E+02  0.00000000000E+00 0.  1.
</event>
<event>
 8    1  0.1253703E-006  0.9118800E+02  0.7816164E-02  0.1184000E+00
        -11   -1    0    0    0    0  0.00000000000E+00  0.00000000000E+00  0.45593999997E+02  0.45594000000E+02  0.51100000000E-03 0.  1.
         11   -1    0    0    0    0 -0.00000000000E+00 -0.00000000000E+00 -0.45593999997E+02  0.45594000000E+02  0.51100000000E-03 0. -1.
         23    2    1    2    0    0  0.00000000000E+00  0.88817841970E-15  0.00000000000E+00  0.91188000000E+02  0.91188000000E+02 0.  0.
    9900012    2    3    3    0    0 -0.22716920516E+02  0.29048096187E+01 -0.28831976667E+02  0.54367091875E+02  0.40000017546E+02 0.  0.
        -12    1    3    3    0    0  0.22716920516E+02 -0.29048096187E+01  0.28831976667E+02  0.36820908125E+02  0.00000000000E+00 0.  1.
         11    1    4    4    0    0 -0.92762525097E+01  0.82474272251E+01 -0.32272312267E+02  0.34577030754E+02  0.51100000000E-03 0. -1.
        -11    1    4    4    0    0 -0.13434304934E+02 -0.38741354761E+01  0.72194727210E+01  0.15735636669E+02  0.51100000000E-03 0.  1.
        -12    1    4    4    0    0 -0.63630727876E-02 -0.14684821303E+01 -0.37791371208E+01  0.40544244516E+01  0.00000000000E+00 0.  1.
</event>
<event>
 8    1  0.1253703E-006  0.9118800E+02  0.7816164E-02  0.1184000E+00
        -11   -1    0    0    0    0  0.00000000000E+00  0.00000000000E+00  0.45593999997E+02  0.45594000000E+02  0.51100000000E-03 0. -1.
         11   -1    0    0    0    0 -0.00000000000E+00 -0.00000000000E+00 -0.45593999997E+02  0.45594000000E+02  0.51100000000E-03 0.  1.
         23    2    1    2    0    0  0.00000000000E+00  0.00000000000E+00  0.00000000000E+00  0.91188000000E+02  0.91188000000E+02 0.  0.
    9900012    2    3    3    0    0 -0.74414917195E+01  0.95788217438E+01 -0.34765651259E+02  0.54367080234E+02  0.39999991008E+02 0.  0.
         12    1    3    3    0    0  0.74414917195E+01 -0.95788217438E+01  0.34765651259E+02  0.36820919766E+02  0.00000000000E+00 0. -1.
         11    1    4    4    0    0 -0.17604703658E+02  0.44453092741E+01 -0.55600254338E+01  0.18989477310E+02  0.51100000000E-03 0. -1.
        -11    1    4    4    0    0 -0.29318156242E+00 -0.73001237677E+00 -0.20613023930E+02  0.20628030184E+02  0.51100000000E-03 0.  1.
         12    1    4    4    0    0  0.10456393501E+02  0.58635248465E+01 -0.85926018953E+01  0.14749572739E+02  0.00000000000E+00 0. -1.
</event>
<event>
 8    1  0.1253703E-006  0.9118800E+02  0.7816164E-02  0.1184000E+00
        -11   -1    0    0    0    0  0.00000000000E+00  0.00000000000E+00  0.45593999997E+02  0.45594000000E+02  0.51100000000E-03 0.  1.
         11   -1    0    0    0    0 -0.00000000000E+00 -0.00000000000E+00 -0.45593999997E+02  0.45594000000E+02  0.51100000000E-03 0. -1.
         23    2    1    2    0    0  0.00000000000E+00 -0.88817841970E-15  0.00000000000E+00  0.91188000000E+02  0.91188000000E+02 0.  0.
    9900012    2    3    3    0    0 -0.35939615442E+02 -0.60215365756E+01 -0.52787676703E+01  0.54367078652E+02  0.39999987402E+02 0.  0.
        -12    1    3    3    0    0  0.35939615442E+02  0.60215365756E+01  0.52787676703E+01  0.36820921348E+02  0.00000000000E+00 0.  1.
         11    1    4    4    0    0 -0.96125657681E+01  0.29605840579E+01 -0.23737598122E+01  0.10334467307E+02  0.51100000000E-03 0. -1.
        -11    1    4    4    0    0 -0.17920707486E+02  0.11700417137E+02 -0.35660419451E+01  0.21697192754E+02  0.51100000000E-03 0.  1.
        -12    1    4    4    0    0 -0.84063421874E+01 -0.20682537770E+02  0.66103408702E+00  0.22335418591E+02  0.00000000000E+00 0.  1.
</event>
<event>
 8    1  0.1253703E-006  0.9118800E+02  0.7816164E-02  0.1184000E+00
        -11   -1    0    0    0    0  0.00000000000E+00  0.00000000000E+00  0.45593999997E+02  0.45594000000E+02  0.51100000000E-03 0.  1.
         11   -1    0    0    0    0 -0.00000000000E+00 -0.00000000000E+00 -0.45593999997E+02  0.45594000000E+02  0.51100000000E-03 0. -1.
         23    2    1    2    0    0  0.00000000000E+00  0.17763568394E-14  0.00000000000E+00  0.91188000000E+02  0.91188000000E+02 0.  0.
    9900012    2    3    3    0    0  0.17903312618E+02 -0.12991549792E+02 -0.29435879977E+02  0.54367082049E+02  0.39999995148E+02 0.  0.
        -12    1    3    3    0    0 -0.17903312618E+02  0.12991549792E+02  0.29435879977E+02  0.36820917951E+02  0.00000000000E+00 0.  1.
         11    1    4    4    0    0  0.61936538373E+01  0.35840431805E+01 -0.12571929679E+02  0.14465826264E+02  0.51100000000E-03 0. -1.
        -11    1    4    4    0    0  0.78827811433E+01 -0.24063504508E+02 -0.57533013633E+01  0.25967113136E+02  0.51100000000E-03 0.  1.
        -12    1    4    4    0    0  0.38268776378E+01  0.74879115361E+01 -0.11110648935E+02  0.13934142650E+02  0.00000000000E+00 0.  1.
</event>
<event>
 8    1  0.1253703E-006  0.9118800E+02  0.7816164E-02  0.1184000E+00
        -11   -1    0    0    0    0  0.00000000000E+00  0.00000000000E+00  0.45593999997E+02  0.45594000000E+02  0.51100000000E-03 0.  1.
         11   -1    0    0    0    0 -0.00000000000E+00 -0.00000000000E+00 -0.45593999997E+02  0.45594000000E+02  0.51100000000E-03 0. -1.
         23    2    1    2    0    0  0.00000000000E+00  0.00000000000E+00  0.00000000000E+00  0.91188000000E+02  0.91188000000E+02 0.  0.
    9900012    2    3    3    0    0  0.15570738125E+02 -0.24568767037E+02  0.22576701949E+02  0.54367086509E+02  0.40000005314E+02 0.  0.
         12    1    3    3    0    0 -0.15570738125E+02  0.24568767037E+02 -0.22576701949E+02  0.36820913491E+02  0.00000000000E+00 0. -1.
         11    1    4    4    0    0  0.16742549654E+01  0.70442576576E+01  0.12323663210E+01  0.73446186181E+01  0.51100000000E-03 0. -1.
        -11    1    4    4    0    0  0.13910403582E+02 -0.10252987870E+02  0.18760917878E+02  0.25506766318E+02  0.51100000000E-03 0.  1.
        -12    1    4    4    0    0 -0.13920423166E-01 -0.21360036824E+02  0.25834177493E+01  0.21515701573E+02  0.00000000000E+00 0.  1.
</event>
<event>
 8    1  0.1253703E-006  0.9118800E+02  0.7816164E-02  0.1184000E+00
        -11   -1    0    0    0    0  0.00000000000E+00  0.00000000000E+00  0.45593999997E+02  0.45594000000E+02  0.51100000000E-03 0.  1.
         11   -1    0    0    0    0 -0.00000000000E+00 -0.00000000000E+00 -0.45593999997E+02  0.45594000000E+02  0.51100000000E-03 0. -1.
         23    2    1    2    0    0  0.00000000000E+00  0.00000000000E+00  0.35527136788E-14  0.91188000000E+02  0.91188000000E+02 0.  0.
    9900012    2    3    3    0    0 -0.24414408629E+02  0.74618602670E+01 -0.26533698150E+02  0.54367084139E+02  0.39999999911E+02 0.  0.
        -12    1    3    3    0    0  0.24414408629E+02 -0.74618602670E+01  0.26533698150E+02  0.36820915861E+02  0.00000000000E+00 0.  1.
         11    1    4    4    0    0 -0.12737932166E+02  0.16046624932E+02 -0.11529168802E+02  0.23508951935E+02  0.51100000000E-03 0. -1.
        -11    1    4    4    0    0  0.26106325577E+01 -0.19275445834E+01  0.46460519049E+01  0.56671535215E+01  0.51100000000E-03 0.  1.
        -12    1    4    4    0    0 -0.14287109020E+02 -0.66572200812E+01 -0.19650581253E+02  0.25190978682E+02  0.00000000000E+00 0.  1.
</event>
<event>
 8    1  0.1253703E-006  0.9118800E+02  0.7816164E-02  0.1184000E+00
        -11   -1    0    0    0    0  0.00000000000E+00  0.00000000000E+00  0.45593999997E+02  0.45594000000E+02  0.51100000000E-03 0. -1.
         11   -1    0    0    0    0 -0.00000000000E+00 -0.00000000000E+00 -0.45593999997E+02  0.45594000000E+02  0.51100000000E-03 0.  1.
         23    2    1    2    0    0  0.00000000000E+00  0.00000000000E+00  0.00000000000E+00  0.91188000000E+02  0.91188000000E+02 0.  0.
    9900012    2    3    3    0    0  0.33644491028E+02 -0.61655842363E+01 -0.13631341594E+02  0.54367086388E+02  0.40000005040E+02 0.  0.
         12    1    3    3    0    0 -0.33644491028E+02  0.61655842363E+01  0.13631341594E+02  0.36820913612E+02  0.00000000000E+00 0. -1.
         11    1    4    4    0    0  0.24524857437E+02  0.17551035029E+01  0.31009319039E+01  0.24782348547E+02  0.51100000000E-03 0. -1.
        -11    1    4    4    0    0  0.13110989691E+02  0.10105822631E+01 -0.14453459950E+02  0.19540261819E+02  0.51100000000E-03 0.  1.
         12    1    4    4    0    0 -0.39913560990E+01 -0.89312700023E+01 -0.22788135483E+01  0.10044476022E+02  0.00000000000E+00 0. -1.
</event>
<event>
 8    1  0.1253703E-006  0.9118800E+02  0.7816164E-02  0.1184000E+00
        -11   -1    0    0    0    0  0.00000000000E+00  0.00000000000E+00  0.45593999997E+02  0.45594000000E+02  0.51100000000E-03 0.  1.
         11   -1    0    0    0    0 -0.00000000000E+00 -0.00000000000E+00 -0.45593999997E+02  0.45594000000E+02  0.51100000000E-03 0. -1.
         23    2    1    2    0    0  0.00000000000E+00  0.17763568394E-14 -0.35527136788E-14  0.91188000000E+02  0.91188000000E+02 0.  0.
    9900012    2    3    3    0    0  0.25974870707E+02  0.47010002605E+01 -0.25670740307E+02  0.54367079050E+02  0.39999988310E+02 0.  0.
        -12    1    3    3    0    0 -0.25974870707E+02 -0.47010002605E+01  0.25670740307E+02  0.36820920950E+02  0.00000000000E+00 0.  1.
         11    1    4    4    0    0 -0.10488792249E+00  0.31727602876E+01 -0.59832535788E+01  0.67732365209E+01  0.51100000000E-03 0. -1.
        -11    1    4    4    0    0 -0.49597185133E+01 -0.57770123948E+01  0.32856791032E+01  0.82926694961E+01  0.51100000000E-03 0.  1.
        -12    1    4    4    0    0  0.31039477143E+02  0.73052523677E+01 -0.22973165831E+02  0.39301173033E+02  0.00000000000E+00 0.  1.
</event>
<event>
 8    1  0.1253703E-006  0.9118800E+02  0.7816164E-02  0.1184000E+00
        -11   -1    0    0    0    0  0.00000000000E+00  0.00000000000E+00  0.45593999997E+02  0.45594000000E+02  0.51100000000E-03 0.  1.
         11   -1    0    0    0    0 -0.00000000000E+00 -0.00000000000E+00 -0.45593999997E+02  0.45594000000E+02  0.51100000000E-03 0. -1.
         23    2    1    2    0    0  0.00000000000E+00  0.17763568394E-14 -0.17763568394E-14  0.91188000000E+02  0.91188000000E+02 0.  0.
    9900012    2    3    3    0    0 -0.31425910070E+02 -0.15714284645E+02 -0.11011486970E+02  0.54367090031E+02  0.40000013344E+02 0.  0.
        -12    1    3    3    0    0  0.31425910070E+02  0.15714284645E+02  0.11011486970E+02  0.36820909969E+02  0.00000000000E+00 0.  1.
         11    1    4    4    0    0 -0.35670871991E+02 -0.22873784896E+02 -0.14508471374E+02  0.44789696203E+02  0.51100000000E-03 0. -1.
        -11    1    4    4    0    0  0.27400956312E+01  0.55799205125E+01  0.39281790182E+01  0.73535180461E+01  0.51100000000E-03 0.  1.
         12    1    4    4    0    0  0.15048662894E+01  0.15795797387E+01 -0.43119461479E+00  0.22238757824E+01  0.00000000000E+00 0. -1.
</event>
<event>
 8    1  0.1253703E-006  0.9118800E+02  0.7816164E-02  0.1184000E+00
        -11   -1    0    0    0    0  0.00000000000E+00  0.00000000000E+00  0.45593999997E+02  0.45594000000E+02  0.51100000000E-03 0.  1.
         11   -1    0    0    0    0 -0.00000000000E+00 -0.00000000000E+00 -0.45593999997E+02  0.45594000000E+02  0.51100000000E-03 0. -1.
         23    2    1    2    0    0  0.00000000000E+00 -0.35527136788E-14  0.13322676296E-14  0.91188000000E+02  0.91188000000E+02 0.  0.
    9900012    2    3    3    0    0 -0.24519358079E+02 -0.27275186440E+02  0.32623144619E+01  0.54367117180E+02  0.40000075236E+02 0.  0.
         12    1    3    3    0    0  0.24519358079E+02  0.27275186440E+02 -0.32623144619E+01  0.36820882820E+02  0.00000000000E+00 0. -1.
         11    1    4    4    0    0 -0.27452650649E+02 -0.14057084157E+02 -0.11712776006E+02  0.32991495339E+02  0.51100000000E-03 0.  1.
        -11    1    4    4    0    0 -0.20807841378E+01 -0.53195501571E+01  0.41064358596E+01  0.70349194901E+01  0.51100000000E-03 0. -1.
         12    1    4    4    0    0  0.50140767083E+01 -0.78985521261E+01  0.10868654609E+02  0.14340702351E+02  0.00000000000E+00 0. -1.
</event>
<event>
 8    1  0.1253703E-006  0.9118800E+02  0.7816164E-02  0.1184000E+00
        -11   -1    0    0    0    0  0.00000000000E+00  0.00000000000E+00  0.45593999997E+02  0.45594000000E+02  0.51100000000E-03 0.  1.
         11   -1    0    0    0    0 -0.00000000000E+00 -0.00000000000E+00 -0.45593999997E+02  0.45594000000E+02  0.51100000000E-03 0. -1.
         23    2    1    2    0    0  0.00000000000E+00  0.17763568394E-14  0.00000000000E+00  0.91188000000E+02  0.91188000000E+02 0.  0.
    9900012    2    3    3    0    0  0.23829687126E+02 -0.10824865234E+02 -0.25898807419E+02  0.54367083097E+02  0.39999997536E+02 0.  0.
        -12    1    3    3    0    0 -0.23829687126E+02  0.10824865234E+02  0.25898807419E+02  0.36820916903E+02  0.00000000000E+00 0.  1.
         11    1    4    4    0    0  0.21587316707E+02 -0.17464219887E+02 -0.23927307658E+02  0.36654157621E+02  0.51100000000E-03 0. -1.
        -11    1    4    4    0    0  0.20872846557E+01 -0.48013357238E+01  0.19957473818E+01  0.56029090515E+01  0.51100000000E-03 0.  1.
         12    1    4    4    0    0  0.15508576292E+00  0.11440690377E+02 -0.39672471432E+01  0.12110016424E+02  0.00000000000E+00 0. -1.
</event>
<event>
 8    1  0.1253703E-006  0.9118800E+02  0.7816164E-02  0.1184000E+00
        -11   -1    0    0    0    0  0.00000000000E+00  0.00000000000E+00  0.45593999997E+02  0.45594000000E+02  0.51100000000E-03 0.  1.
         11   -1    0    0    0    0 -0.00000000000E+00 -0.00000000000E+00 -0.45593999997E+02  0.45594000000E+02  0.51100000000E-03 0. -1.
         23    2    1    2    0    0  0.00000000000E+00  0.00000000000E+00  0.00000000000E+00  0.91188000000E+02  0.91188000000E+02 0.  0.
    9900012    2    3    3    0    0  0.21829107545E+02 -0.15781095570E+02 -0.25104316901E+02  0.54367086912E+02  0.40000006233E+02 0.  0.
        -12    1    3    3    0    0 -0.21829107545E+02  0.15781095570E+02  0.25104316901E+02  0.36820913088E+02  0.00000000000E+00 0.  1.
         11    1    4    4    0    0 -0.15075859907E+01 -0.22347237319E+01 -0.13559869393E+02  0.13825225636E+02  0.51100000000E-03 0.  1.
        -11    1    4    4    0    0  0.11693983726E+02 -0.21658777550E+02 -0.83948522072E+01  0.26006257789E+02  0.51100000000E-03 0. -1.
        -12    1    4    4    0    0  0.11642709809E+02  0.81124057129E+01 -0.31495953012E+01  0.14535603487E+02  0.00000000000E+00 0.  1.
</event>
<event>
 8    1  0.1253703E-006  0.9118800E+02  0.7816164E-02  0.1184000E+00
        -11   -1    0    0    0    0  0.00000000000E+00  0.00000000000E+00  0.45593999997E+02  0.45594000000E+02  0.51100000000E-03 0. -1.
         11   -1    0    0    0    0 -0.00000000000E+00 -0.00000000000E+00 -0.45593999997E+02  0.45594000000E+02  0.51100000000E-03 0.  1.
         23    2    1    2    0    0  0.00000000000E+00  0.00000000000E+00 -0.35527136788E-14  0.91188000000E+02  0.91188000000E+02 0.  0.
    9900012    2    3    3    0    0  0.25479010587E+02 -0.18753277232E+02 -0.18839157101E+02  0.54367092519E+02  0.40000019015E+02 0.  0.
        -12    1    3    3    0    0 -0.25479010587E+02  0.18753277232E+02  0.18839157101E+02  0.36820907481E+02  0.00000000000E+00 0.  1.
         11    1    4    4    0    0  0.64773565498E+01 -0.24996728201E+02 -0.62837459551E+01  0.26575891934E+02  0.51100000000E-03 0. -1.
        -11    1    4    4    0    0  0.51887436039E+01  0.92659015206E+01 -0.61065343352E+01  0.12250296038E+02  0.51100000000E-03 0.  1.
         12    1    4    4    0    0  0.13812910434E+02 -0.30224505524E+01 -0.64488768111E+01  0.15540904546E+02  0.00000000000E+00 0. -1.
</event>
<event>
 8    1  0.1253703E-006  0.9118800E+02  0.7816164E-02  0.1184000E+00
        -11   -1    0    0    0    0  0.00000000000E+00  0.00000000000E+00  0.45593999997E+02  0.45594000000E+02  0.51100000000E-03 0. -1.
         11   -1    0    0    0    0 -0.00000000000E+00 -0.00000000000E+00 -0.45593999997E+02  0.45594000000E+02  0.51100000000E-03 0.  1.
         23    2    1    2    0    0  0.35527136788E-14 -0.17763568394E-14  0.71054273576E-14  0.91188000000E+02  0.91188000000E+02 0.  0.
    9900012    2    3    3    0    0 -0.24809992251E+02  0.10856348212E+02 -0.24947840210E+02  0.54366936149E+02  0.39999662537E+02 0.  0.
         12    1    3    3    0    0  0.24809992251E+02 -0.10856348212E+02  0.24947840210E+02  0.36821063851E+02  0.00000000000E+00 0. -1.
         11    1    4    4    0    0 -0.11022143156E+02  0.83192609417E+01 -0.89097937485E+01  0.16434176805E+02  0.51100000000E-03 0. -1.
        -11    1    4    4    0    0  0.42258011744E+01 -0.85051616324E+01  0.25040592056E+01  0.98216843121E+01  0.51100000000E-03 0.  1.
        -12    1    4    4    0    0 -0.18013650270E+02  0.11042248902E+02 -0.18542105667E+02  0.28111075032E+02  0.00000000000E+00 0.  1.
</event>
<event>
 8    1  0.1253703E-006  0.9118800E+02  0.7816164E-02  0.1184000E+00
        -11   -1    0    0    0    0  0.00000000000E+00  0.00000000000E+00  0.45593999997E+02  0.45594000000E+02  0.51100000000E-03 0.  1.
         11   -1    0    0    0    0 -0.00000000000E+00 -0.00000000000E+00 -0.45593999997E+02  0.45594000000E+02  0.51100000000E-03 0. -1.
         23    2    1    2    0    0  0.35527136788E-14  0.00000000000E+00  0.00000000000E+00  0.91188000000E+02  0.91188000000E+02 0.  0.
    9900012    2    3    3    0    0 -0.21005286217E+02 -0.24127774066E+02  0.18232099982E+02  0.54367068451E+02  0.39999964147E+02 0.  0.
         12    1    3    3    0    0  0.21005286217E+02  0.24127774066E+02 -0.18232099982E+02  0.36820931549E+02  0.00000000000E+00 0. -1.
         11    1    4    4    0    0 -0.40894931634E+01 -0.10990319520E+02  0.22722840112E+02  0.25570266727E+02  0.51100000000E-03 0. -1.
        -11    1    4    4    0    0 -0.18614438306E+02 -0.16000430881E+02 -0.57959511530E+01  0.25221105286E+02  0.51100000000E-03 0.  1.
         12    1    4    4    0    0  0.16986452527E+01  0.28629763357E+01  0.13052110229E+01  0.35756964367E+01  0.00000000000E+00 0. -1.
</event>
<event>
 8    1  0.1253703E-006  0.9118800E+02  0.7816164E-02  0.1184000E+00
        -11   -1    0    0    0    0  0.00000000000E+00  0.00000000000E+00  0.45593999997E+02  0.45594000000E+02  0.51100000000E-03 0.  1.
         11   -1    0    0    0    0 -0.00000000000E+00 -0.00000000000E+00 -0.45593999997E+02  0.45594000000E+02  0.51100000000E-03 0. -1.
         23    2    1    2    0    0  0.35527136788E-14  0.00000000000E+00 -0.35527136788E-14  0.91188000000E+02  0.91188000000E+02 0.  0.
    9900012    2    3    3    0    0 -0.23396362552E+02  0.16870779343E+02  0.22885937394E+02  0.54367094162E+02  0.40000022761E+02 0.  0.
         12    1    3    3    0    0  0.23396362552E+02 -0.16870779343E+02 -0.22885937394E+02  0.36820905838E+02  0.00000000000E+00 0. -1.
         11    1    4    4    0    0  0.80137910812E+01  0.57228143229E+01 -0.33587440527E+00  0.98531346862E+01  0.51100000000E-03 0. -1.
        -11    1    4    4    0    0 -0.77653161487E+01  0.90382629250E+01  0.93471598462E+00  0.11952574025E+02  0.51100000000E-03 0.  1.
        -12    1    4    4    0    0 -0.23644837485E+02  0.21097020952E+01  0.22287095815E+02  0.32561385451E+02  0.00000000000E+00 0.  1.
</event>
<event>
 8    1  0.1253703E-006  0.9118800E+02  0.7816164E-02  0.1184000E+00
        -11   -1    0    0    0    0  0.00000000000E+00  0.00000000000E+00  0.45593999997E+02  0.45594000000E+02  0.51100000000E-03 0.  1.
         11   -1    0    0    0    0 -0.00000000000E+00 -0.00000000000E+00 -0.45593999997E+02  0.45594000000E+02  0.51100000000E-03 0. -1.
         23    2    1    2    0    0 -0.35527136788E-14  0.00000000000E+00 -0.71054273576E-14  0.91188000000E+02  0.91188000000E+02 0.  0.
    9900012    2    3    3    0    0  0.16353462117E+02  0.76785582753E+01  0.32083968509E+02  0.54367122557E+02  0.40000087493E+02 0.  0.
         12    1    3    3    0    0 -0.16353462117E+02 -0.76785582753E+01 -0.32083968509E+02  0.36820877443E+02  0.00000000000E+00 0. -1.
         11    1    4    4    0    0  0.58855334247E+01  0.14804178160E+02  0.12183211054E+01  0.15977718900E+02  0.51100000000E-03 0. -1.
        -11    1    4    4    0    0  0.14285111481E+02 -0.76696079625E+01  0.15089974070E+02  0.22149370511E+02  0.51100000000E-03 0.  1.
         12    1    4    4    0    0 -0.38171827887E+01  0.54398807807E+00  0.15775673333E+02  0.16240033146E+02  0.00000000000E+00 0. -1.
</event>
<event>
 8    1  0.1253703E-006  0.9118800E+02  0.7816164E-02  0.1184000E+00
        -11   -1    0    0    0    0  0.00000000000E+00  0.00000000000E+00  0.45593999997E+02  0.45594000000E+02  0.51100000000E-03 0.  1.
         11   -1    0    0    0    0 -0.00000000000E+00 -0.00000000000E+00 -0.45593999997E+02  0.45594000000E+02  0.51100000000E-03 0. -1.
         23    2    1    2    0    0  0.00000000000E+00  0.00000000000E+00  0.35527136788E-14  0.91188000000E+02  0.91188000000E+02 0.  0.
    9900012    2    3    3    0    0  0.18033404641E+02 -0.23102047729E+02 -0.22290651696E+02  0.54367062407E+02  0.39999950369E+02 0.  0.
        -12    1    3    3    0    0 -0.18033404641E+02  0.23102047729E+02  0.22290651696E+02  0.36820937593E+02  0.00000000000E+00 0.  1.
         11    1    4    4    0    0 -0.51556051864E+01 -0.91356456361E+01 -0.11585099687E+02  0.15628653847E+02  0.51100000000E-03 0. -1.
        -11    1    4    4    0    0  0.29945393737E+01 -0.16546106142E+02 -0.59039412769E+01  0.17821263070E+02  0.51100000000E-03 0.  1.
        -12    1    4    4    0    0  0.20194470453E+02  0.25797040492E+01 -0.48016107312E+01  0.20917145491E+02  0.00000000000E+00 0.  1.
</event>
<event>
 8    1  0.1253703E-006  0.9118800E+02  0.7816164E-02  0.1184000E+00
        -11   -1    0    0    0    0  0.00000000000E+00  0.00000000000E+00  0.45593999997E+02  0.45594000000E+02  0.51100000000E-03 0.  1.
         11   -1    0    0    0    0 -0.00000000000E+00 -0.00000000000E+00 -0.45593999997E+02  0.45594000000E+02  0.51100000000E-03 0. -1.
         23    2    1    2    0    0  0.00000000000E+00  0.00000000000E+00  0.35527136788E-14  0.91188000000E+02  0.91188000000E+02 0.  0.
    9900012    2    3    3    0    0 -0.11126682408E+02  0.28444081458E+02  0.20564805019E+02  0.54367081531E+02  0.39999993966E+02 0.  0.
        -12    1    3    3    0    0  0.11126682408E+02 -0.28444081458E+02 -0.20564805019E+02  0.36820918469E+02  0.00000000000E+00 0.  1.
         11    1    4    4    0    0 -0.34352967956E+01  0.58153958155E+01  0.25659447534E+02  0.26533513536E+02  0.51100000000E-03 0. -1.
        -11    1    4    4    0    0 -0.42132872897E+01  0.96475685248E+00  0.20152122679E+01  0.47690278166E+01  0.51100000000E-03 0.  1.
         12    1    4    4    0    0 -0.34780983228E+01  0.21663928791E+02 -0.71098547831E+01  0.23064540178E+02  0.00000000000E+00 0. -1.
</event>
<event>
 8    1  0.1253703E-006  0.9118800E+02  0.7816164E-02  0.1184000E+00
        -11   -1    0    0    0    0  0.00000000000E+00  0.00000000000E+00  0.45593999997E+02  0.45594000000E+02  0.51100000000E-03 0.  1.
         11   -1    0    0    0    0 -0.00000000000E+00 -0.00000000000E+00 -0.45593999997E+02  0.45594000000E+02  0.51100000000E-03 0. -1.
         23    2    1    2    0    0 -0.35527136788E-14  0.35527136788E-14  0.00000000000E+00  0.91188000000E+02  0.91188000000E+02 0.  0.
    9900012    2    3    3    0    0  0.21703706132E+02 -0.28251198058E+02 -0.93058407345E+01  0.54367085789E+02  0.40000003673E+02 0.  0.
        -12    1    3    3    0    0 -0.21703706132E+02  0.28251198058E+02  0.93058407345E+01  0.36820914211E+02  0.00000000000E+00 0.  1.
         11    1    4    4    0    0  0.24621468581E+02 -0.32914420666E+02 -0.88378139634E+01  0.42043819508E+02  0.51100000000E-03 0. -1.
        -11    1    4    4    0    0 -0.51350606803E+01  0.38487375175E+01  0.37907328265E+01  0.74532733944E+01  0.51100000000E-03 0.  1.
        -12    1    4    4    0    0  0.22172982312E+01  0.81448509081E+00 -0.42587595976E+01  0.48699928870E+01  0.00000000000E+00 0.  1.
</event>
<event>
 8    1  0.1253703E-006  0.9118800E+02  0.7816164E-02  0.1184000E+00
        -11   -1    0    0    0    0  0.00000000000E+00  0.00000000000E+00  0.45593999997E+02  0.45594000000E+02  0.51100000000E-03 0.  1.
         11   -1    0    0    0    0 -0.00000000000E+00 -0.00000000000E+00 -0.45593999997E+02  0.45594000000E+02  0.51100000000E-03 0. -1.
         23    2    1    2    0    0  0.00000000000E+00 -0.35527136788E-14 -0.35527136788E-14  0.91188000000E+02  0.91188000000E+02 0.  0.
    9900012    2    3    3    0    0  0.87851076382E+01 -0.21445398686E+02 -0.28612876251E+02  0.54367083004E+02  0.39999997325E+02 0.  0.
        -12    1    3    3    0    0 -0.87851076382E+01  0.21445398686E+02  0.28612876251E+02  0.36820916996E+02  0.00000000000E+00 0.  1.
         11    1    4    4    0    0  0.80797200088E+01 -0.63991248055E+01  0.70569545058E-01  0.10307068158E+02  0.51100000000E-03 0. -1.
        -11    1    4    4    0    0  0.86649361784E+01 -0.23267775034E+00  0.21572370594E+01  0.89324649399E+01  0.51100000000E-03 0.  1.
         12    1    4    4    0    0 -0.79595485490E+01 -0.14813596130E+02 -0.30840682856E+02  0.35127549906E+02  0.00000000000E+00 0. -1.
</event>
<event>
 8    1  0.1253703E-006  0.9118800E+02  0.7816164E-02  0.1184000E+00
        -11   -1    0    0    0    0  0.00000000000E+00  0.00000000000E+00  0.45593999997E+02  0.45594000000E+02  0.51100000000E-03 0.  1.
         11   -1    0    0    0    0 -0.00000000000E+00 -0.00000000000E+00 -0.45593999997E+02  0.45594000000E+02  0.51100000000E-03 0. -1.
         23    2    1    2    0    0  0.11102230246E-15 -0.35527136788E-14  0.35527136788E-14  0.91188000000E+02  0.91188000000E+02 0.  0.
    9900012    2    3    3    0    0  0.73384252773E+00 -0.26555358249E+02  0.25496167263E+02  0.54367080379E+02  0.39999991341E+02 0.  0.
         12    1    3    3    0    0 -0.73384252773E+00  0.26555358249E+02 -0.25496167263E+02  0.36820919621E+02  0.00000000000E+00 0. -1.
         11    1    4    4    0    0  0.30532354246E-01  0.89394941629E+01  0.58137269837E+01  0.10663719324E+02  0.51100000000E-03 0. -1.
        -11    1    4    4    0    0 -0.96302071460E+00 -0.14908516945E+01  0.72427725544E+01  0.74570639133E+01  0.51100000000E-03 0.  1.
         12    1    4    4    0    0  0.16663308881E+01 -0.34004000717E+02  0.12439667725E+02  0.36246297142E+02  0.00000000000E+00 0. -1.
</event>
<event>
 8    1  0.1253703E-006  0.9118800E+02  0.7816164E-02  0.1184000E+00
        -11   -1    0    0    0    0  0.00000000000E+00  0.00000000000E+00  0.45593999997E+02  0.45594000000E+02  0.51100000000E-03 0.  1.
         11   -1    0    0    0    0 -0.00000000000E+00 -0.00000000000E+00 -0.45593999997E+02  0.45594000000E+02  0.51100000000E-03 0. -1.
         23    2    1    2    0    0  0.00000000000E+00 -0.88817841970E-15  0.00000000000E+00  0.91188000000E+02  0.91188000000E+02 0.  0.
    9900012    2    3    3    0    0  0.64231988942E+01  0.46945746270E+01  0.35951123023E+02  0.54367085270E+02  0.40000002489E+02 0.  0.
         12    1    3    3    0    0 -0.64231988942E+01 -0.46945746270E+01 -0.35951123023E+02  0.36820914730E+02  0.00000000000E+00 0. -1.
         11    1    4    4    0    0  0.63670797276E+01 -0.33366962918E+01 -0.22808935342E+01  0.75415994309E+01  0.51100000000E-03 0. -1.
        -11    1    4    4    0    0 -0.10332943677E+02 -0.39473873881E+01  0.17894210372E+02  0.21036975955E+02  0.51100000000E-03 0.  1.
         12    1    4    4    0    0  0.10389062844E+02  0.11978658307E+02  0.20337806186E+02  0.25788509884E+02  0.00000000000E+00 0. -1.
</event>
<event>
 8    1  0.1253703E-006  0.9118800E+02  0.7816164E-02  0.1184000E+00
        -11   -1    0    0    0    0  0.00000000000E+00  0.00000000000E+00  0.45593999997E+02  0.45594000000E+02  0.51100000000E-03 0.  1.
         11   -1    0    0    0    0 -0.00000000000E+00 -0.00000000000E+00 -0.45593999997E+02  0.45594000000E+02  0.51100000000E-03 0. -1.
         23    2    1    2    0    0 -0.22204460493E-15  0.00000000000E+00 -0.17763568394E-14  0.91188000000E+02  0.91188000000E+02 0.  0.
    9900012    2    3    3    0    0 -0.17960318375E+01  0.36380934140E+02  0.53835474242E+01  0.54367072769E+02  0.39999973991E+02 0.  0.
         12    1    3    3    0    0  0.17960318375E+01 -0.36380934140E+02 -0.53835474242E+01  0.36820927231E+02  0.00000000000E+00 0. -1.
         11    1    4    4    0    0  0.44897005316E+01  0.14512187560E+02  0.17928698754E+02  0.23498919931E+02  0.51100000000E-03 0.  1.
        -11    1    4    4    0    0 -0.59557381159E+01  0.24270880143E+02 -0.13324648934E+02  0.28321241302E+02  0.51100000000E-03 0. -1.
         12    1    4    4    0    0 -0.32999425322E+00 -0.24021335621E+01  0.77949760408E+00  0.25469115360E+01  0.00000000000E+00 0. -1.
</event>
<event>
 8    1  0.1253703E-006  0.9118800E+02  0.7816164E-02  0.1184000E+00
        -11   -1    0    0    0    0  0.00000000000E+00  0.00000000000E+00  0.45593999997E+02  0.45594000000E+02  0.51100000000E-03 0. -1.
         11   -1    0    0    0    0 -0.00000000000E+00 -0.00000000000E+00 -0.45593999997E+02  0.45594000000E+02  0.51100000000E-03 0.  1.
         23    2    1    2    0    0  0.00000000000E+00  0.17763568394E-14  0.35527136788E-14  0.91188000000E+02  0.91188000000E+02 0.  0.
    9900012    2    3    3    0    0 -0.15609132098E+02  0.14632889860E+02  0.29966871681E+02  0.54367083813E+02  0.39999999169E+02 0.  0.
        -12    1    3    3    0    0  0.15609132098E+02 -0.14632889860E+02 -0.29966871681E+02  0.36820916187E+02  0.00000000000E+00 0.  1.
         11    1    4    4    0    0 -0.14472976840E+02  0.16815516802E+02  0.56504061435E+01  0.22894448099E+02  0.51100000000E-03 0. -1.
        -11    1    4    4    0    0  0.73488000520E+01 -0.19892740862E+01  0.21039872833E+02  0.22374948552E+02  0.51100000000E-03 0.  1.
        -12    1    4    4    0    0 -0.84849553104E+01 -0.19335285576E+00  0.32765927040E+01  0.90976871619E+01  0.00000000000E+00 0.  1.
</event>
<event>
 8    1  0.1253703E-006  0.9118800E+02  0.7816164E-02  0.1184000E+00
        -11   -1    0    0    0    0  0.00000000000E+00  0.00000000000E+00  0.45593999997E+02  0.45594000000E+02  0.51100000000E-03 0.  1.
         11   -1    0    0    0    0 -0.00000000000E+00 -0.00000000000E+00 -0.45593999997E+02  0.45594000000E+02  0.51100000000E-03 0. -1.
         23    2    1    2    0    0  0.00000000000E+00  0.00000000000E+00 -0.88817841970E-15  0.91188000000E+02  0.91188000000E+02 0.  0.
    9900012    2    3    3    0    0  0.20216483519E+01 -0.36420588174E+02 -0.50231645261E+01  0.54367102580E+02  0.40000041951E+02 0.  0.
        -12    1    3    3    0    0 -0.20216483519E+01  0.36420588174E+02  0.50231645261E+01  0.36820897420E+02  0.00000000000E+00 0.  1.
         11    1    4    4    0    0  0.91036252771E+01 -0.95224397820E+01 -0.12787109052E+02  0.18359275878E+02  0.51100000000E-03 0. -1.
        -11    1    4    4    0    0  0.78177508439E+00  0.43673197785E+00  0.75099637473E+01  0.75631648699E+01  0.51100000000E-03 0.  1.
         12    1    4    4    0    0 -0.78637520095E+01 -0.27334880370E+02  0.25398077907E+00  0.28444661832E+02  0.00000000000E+00 0. -1.
</event>
<event>
 8    1  0.1253703E-006  0.9118800E+02  0.7816164E-02  0.1184000E+00
        -11   -1    0    0    0    0  0.00000000000E+00  0.00000000000E+00  0.45593999997E+02  0.45594000000E+02  0.51100000000E-03 0. -1.
         11   -1    0    0    0    0 -0.00000000000E+00 -0.00000000000E+00 -0.45593999997E+02  0.45594000000E+02  0.51100000000E-03 0.  1.
         23    2    1    2    0    0  0.00000000000E+00  0.00000000000E+00  0.00000000000E+00  0.91188000000E+02  0.91188000000E+02 0.  0.
    9900012    2    3    3    0    0  0.16325420851E+02 -0.31393768218E+02  0.10182962426E+02  0.54367071540E+02  0.39999971191E+02 0.  0.
        -12    1    3    3    0    0 -0.16325420851E+02  0.31393768218E+02 -0.10182962426E+02  0.36820928460E+02  0.00000000000E+00 0.  1.
         11    1    4    4    0    0  0.33235822634E+01 -0.13907048591E+01 -0.22912482972E+01  0.42696695525E+01  0.51100000000E-03 0. -1.
        -11    1    4    4    0    0  0.44900570150E+00 -0.38761235255E+01 -0.11712725091E+02  0.12345601202E+02  0.51100000000E-03 0.  1.
         12    1    4    4    0    0  0.12552832886E+02 -0.26126939833E+02  0.24186935814E+02  0.37751800786E+02  0.00000000000E+00 0. -1.
</event>
<event>
 8    1  0.1253703E-006  0.9118800E+02  0.7816164E-02  0.1184000E+00
        -11   -1    0    0    0    0  0.00000000000E+00  0.00000000000E+00  0.45593999997E+02  0.45594000000E+02  0.51100000000E-03 0.  1.
         11   -1    0    0    0    0 -0.00000000000E+00 -0.00000000000E+00 -0.45593999997E+02  0.45594000000E+02  0.51100000000E-03 0. -1.
         23    2    1    2    0    0  0.00000000000E+00  0.00000000000E+00  0.66613381478E-15  0.91188000000E+02  0.91188000000E+02 0.  0.
    9900012    2    3    3    0    0  0.11790804268E+02 -0.34856641561E+02  0.13313437291E+01  0.54367068422E+02  0.39999964080E+02 0.  0.
        -12    1    3    3    0    0 -0.11790804268E+02  0.34856641561E+02 -0.13313437291E+01  0.36820931578E+02  0.00000000000E+00 0.  1.
         11    1    4    4    0    0  0.70294530023E+01  0.24026019545E+00  0.54687017145E+01  0.89094126168E+01  0.51100000000E-03 0.  1.
        -11    1    4    4    0    0  0.45854078962E+01 -0.28774436364E+02  0.93169271308E+01  0.30590836619E+02  0.51100000000E-03 0. -1.
        -12    1    4    4    0    0  0.17594336912E+00 -0.63224653924E+01 -0.13454285116E+02  0.14866819186E+02  0.00000000000E+00 0.  1.
</event>
<event>
 8    1  0.1253703E-006  0.9118800E+02  0.7816164E-02  0.1184000E+00
        -11   -1    0    0    0    0  0.00000000000E+00  0.00000000000E+00  0.45593999997E+02  0.45594000000E+02  0.51100000000E-03 0.  1.
         11   -1    0    0    0    0 -0.00000000000E+00 -0.00000000000E+00 -0.45593999997E+02  0.45594000000E+02  0.51100000000E-03 0. -1.
         23    2    1    2    0    0 -0.17763568394E-14  0.00000000000E+00  0.35527136788E-14  0.91188000000E+02  0.91188000000E+02 0.  0.
    9900012    2    3    3    0    0  0.13173868520E+02 -0.28862004578E+02 -0.18687422090E+02  0.54367002398E+02  0.39999813566E+02 0.  0.
        -12    1    3    3    0    0 -0.13173868520E+02  0.28862004578E+02  0.18687422090E+02  0.36820997602E+02  0.00000000000E+00 0.  1.
         11    1    4    4    0    0  0.10374773806E+02 -0.30042073001E+02  0.38440570347E+00  0.31785371632E+02  0.51100000000E-03 0. -1.
        -11    1    4    4    0    0 -0.41683373239E+01 -0.17652819243E+01 -0.71389656727E+01  0.84531702607E+01  0.51100000000E-03 0.  1.
         12    1    4    4    0    0  0.69674320377E+01  0.29453503474E+01 -0.11932862121E+02  0.14128460506E+02  0.00000000000E+00 0. -1.
</event>
<event>
 8    1  0.1253703E-006  0.9118800E+02  0.7816164E-02  0.1184000E+00
        -11   -1    0    0    0    0  0.00000000000E+00  0.00000000000E+00  0.45593999997E+02  0.45594000000E+02  0.51100000000E-03 0.  1.
         11   -1    0    0    0    0 -0.00000000000E+00 -0.00000000000E+00 -0.45593999997E+02  0.45594000000E+02  0.51100000000E-03 0. -1.
         23    2    1    2    0    0  0.17763568394E-14 -0.35527136788E-14  0.00000000000E+00  0.91188000000E+02  0.91188000000E+02 0.  0.
    9900012    2    3    3    0    0 -0.12154228844E+02  0.23091953372E+02  0.25977230806E+02  0.54367080543E+02  0.39999991714E+02 0.  0.
         12    1    3    3    0    0  0.12154228844E+02 -0.23091953372E+02 -0.25977230806E+02  0.36820919457E+02  0.00000000000E+00 0. -1.
         11    1    4    4    0    0 -0.10511840367E+02  0.35068033884E+01  0.30329055356E+01  0.11488906569E+02  0.51100000000E-03 0. -1.
        -11    1    4    4    0    0 -0.37738924739E+01  0.26817566105E+02  0.12080167608E+02  0.29653913163E+02  0.51100000000E-03 0.  1.
        -12    1    4    4    0    0  0.21315039977E+01 -0.72324161218E+01  0.10864157663E+02  0.13224260810E+02  0.00000000000E+00 0.  1.
</event>
<event>
 8    1  0.1253703E-006  0.9118800E+02  0.7816164E-02  0.1184000E+00
        -11   -1    0    0    0    0  0.00000000000E+00  0.00000000000E+00  0.45593999997E+02  0.45594000000E+02  0.51100000000E-03 0. -1.
         11   -1    0    0    0    0 -0.00000000000E+00 -0.00000000000E+00 -0.45593999997E+02  0.45594000000E+02  0.51100000000E-03 0.  1.
         23    2    1    2    0    0 -0.88817841970E-15 -0.71054273576E-14 -0.88817841970E-15  0.91188000000E+02  0.91188000000E+02 0.  0.
    9900012    2    3    3    0    0  0.75263045710E+01  0.35774908582E+02  0.43920900943E+01  0.54367084748E+02  0.40000001301E+02 0.  0.
        -12    1    3    3    0    0 -0.75263045710E+01 -0.35774908582E+02 -0.43920900943E+01  0.36820915252E+02  0.00000000000E+00 0.  1.
         11    1    4    4    0    0 -0.23986826306E+00  0.20776675009E+02  0.10665068335E+02  0.23355330100E+02  0.51100000000E-03 0. -1.
        -11    1    4    4    0    0 -0.73322583387E+01  0.11655384799E+02 -0.71640559033E+01  0.15522039312E+02  0.51100000000E-03 0.  1.
        -12    1    4    4    0    0  0.15098431173E+02  0.33428487741E+01  0.89107766280E+00  0.15489715337E+02  0.00000000000E+00 0.  1.
</event>
<event>
 8    1  0.1253703E-006  0.9118800E+02  0.7816164E-02  0.1184000E+00
        -11   -1    0    0    0    0  0.00000000000E+00  0.00000000000E+00  0.45593999997E+02  0.45594000000E+02  0.51100000000E-03 0.  1.
         11   -1    0    0    0    0 -0.00000000000E+00 -0.00000000000E+00 -0.45593999997E+02  0.45594000000E+02  0.51100000000E-03 0. -1.
         23    2    1    2    0    0  0.35527136788E-14  0.00000000000E+00 -0.88817841970E-15  0.91188000000E+02  0.91188000000E+02 0.  0.
    9900012    2    3    3    0    0 -0.20127769461E+02 -0.30738339770E+02 -0.24098263782E+01  0.54367083411E+02  0.39999998253E+02 0.  0.
         12    1    3    3    0    0  0.20127769461E+02  0.30738339770E+02  0.24098263782E+01  0.36820916589E+02  0.00000000000E+00 0. -1.
         11    1    4    4    0    0  0.42101442857E+01 -0.10311764324E+02 -0.13418831721E+01  0.11218665209E+02  0.51100000000E-03 0. -1.
        -11    1    4    4    0    0 -0.11262373757E+02 -0.24317336825E+02 -0.78343177199E+01  0.27920431001E+02  0.51100000000E-03 0.  1.
        -12    1    4    4    0    0 -0.13075539990E+02  0.38907613788E+01  0.67663745138E+01  0.15227987201E+02  0.00000000000E+00 0.  1.
</event>
<event>
 8    1  0.1253703E-006  0.9118800E+02  0.7816164E-02  0.1184000E+00
        -11   -1    0    0    0    0  0.00000000000E+00  0.00000000000E+00  0.45593999997E+02  0.45594000000E+02  0.51100000000E-03 0. -1.
         11   -1    0    0    0    0 -0.00000000000E+00 -0.00000000000E+00 -0.45593999997E+02  0.45594000000E+02  0.51100000000E-03 0.  1.
         23    2    1    2    0    0 -0.71054273576E-14  0.00000000000E+00  0.35527136788E-14  0.91188000000E+02  0.91188000000E+02 0.  0.
    9900012    2    3    3    0    0  0.32559914067E+02 -0.61349624360E+01 -0.16062230230E+02  0.54367068342E+02  0.39999963900E+02 0.  0.
         12    1    3    3    0    0 -0.32559914067E+02  0.61349624360E+01  0.16062230230E+02  0.36820931658E+02  0.00000000000E+00 0. -1.
         11    1    4    4    0    0  0.35487775744E+01 -0.13365244286E+01 -0.12608876216E+02  0.13166771795E+02  0.51100000000E-03 0. -1.
        -11    1    4    4    0    0  0.15469479255E+02 -0.16580656754E+02  0.10270252556E+01  0.22699730130E+02  0.51100000000E-03 0.  1.
        -12    1    4    4    0    0  0.13541657238E+02  0.11782218747E+02 -0.44803792699E+01  0.18500566417E+02  0.00000000000E+00 0.  1.
</event>
<event>
 8    1  0.1253703E-006  0.9118800E+02  0.7816164E-02  0.1184000E+00
        -11   -1    0    0    0    0  0.00000000000E+00  0.00000000000E+00  0.45593999997E+02  0.45594000000E+02  0.51100000000E-03 0. -1.
         11   -1    0    0    0    0 -0.00000000000E+00 -0.00000000000E+00 -0.45593999997E+02  0.45594000000E+02  0.51100000000E-03 0.  1.
         23    2    1    2    0    0  0.00000000000E+00  0.00000000000E+00  0.00000000000E+00  0.91188000000E+02  0.91188000000E+02 0.  0.
    9900012    2    3    3    0    0 -0.10054598158E+02 -0.26630946815E+02  0.23355444544E+02  0.54367094767E+02  0.40000024140E+02 0.  0.
        -12    1    3    3    0    0  0.10054598158E+02  0.26630946815E+02 -0.23355444544E+02  0.36820905233E+02  0.00000000000E+00 0.  1.
         11    1    4    4    0    0  0.42328607743E+01  0.37551207153E+01  0.28900261303E+01  0.63537621310E+01  0.51100000000E-03 0. -1.
        -11    1    4    4    0    0 -0.23434735807E+01  0.21427070776E+01 -0.43544868056E+01  0.53893058593E+01  0.51100000000E-03 0.  1.
        -12    1    4    4    0    0 -0.11943985352E+02 -0.32528774608E+02  0.24819905219E+02  0.42624026776E+02  0.00000000000E+00 0.  1.
</event>
<event>
 8    1  0.1253703E-006  0.9118800E+02  0.7816164E-02  0.1184000E+00
        -11   -1    0    0    0    0  0.00000000000E+00  0.00000000000E+00  0.45593999997E+02  0.45594000000E+02  0.51100000000E-03 0.  1.
         11   -1    0    0    0    0 -0.00000000000E+00 -0.00000000000E+00 -0.45593999997E+02  0.45594000000E+02  0.51100000000E-03 0. -1.
         23    2    1    2    0    0 -0.17763568394E-14 -0.44408920985E-15  0.00000000000E+00  0.91188000000E+02  0.91188000000E+02 0.  0.
    9900012    2    3    3    0    0  0.85720303784E+01 -0.25437655462E+01  0.35718753848E+02  0.54367084416E+02  0.40000000544E+02 0.  0.
         12    1    3    3    0    0 -0.85720303784E+01  0.25437655462E+01 -0.35718753848E+02  0.36820915584E+02  0.00000000000E+00 0. -1.
         11    1    4    4    0    0 -0.31911183885E+01 -0.10163453623E+01  0.11482240126E+01  0.35404255548E+01  0.51100000000E-03 0. -1.
        -11    1    4    4    0    0  0.31866569464E+01 -0.16457252579E+02  0.66702935761E+01  0.18041307092E+02  0.51100000000E-03 0.  1.
        -12    1    4    4    0    0  0.85764918206E+01  0.14929832395E+02  0.27900236259E+02  0.32785351769E+02  0.00000000000E+00 0.  1.
</event>
<event>
 8    1  0.1253703E-006  0.9118800E+02  0.7816164E-02  0.1184000E+00
        -11   -1    0    0    0    0  0.00000000000E+00  0.00000000000E+00  0.45593999997E+02  0.45594000000E+02  0.51100000000E-03 0.  1.
         11   -1    0    0    0    0 -0.00000000000E+00 -0.00000000000E+00 -0.45593999997E+02  0.45594000000E+02  0.51100000000E-03 0. -1.
         23    2    1    2    0    0 -0.44408920985E-15  0.00000000000E+00  0.35527136788E-14  0.91188000000E+02  0.91188000000E+02 0.  0.
    9900012    2    3    3    0    0 -0.22187198446E+01  0.23472469617E+02  0.28282506970E+02  0.54367085452E+02  0.40000002905E+02 0.  0.
         12    1    3    3    0    0  0.22187198446E+01 -0.23472469617E+02 -0.28282506970E+02  0.36820914548E+02  0.00000000000E+00 0. -1.
         11    1    4    4    0    0 -0.40820265167E+01  0.22476615389E+01 -0.68355763787E+01  0.82728488181E+01  0.51100000000E-03 0. -1.
        -11    1    4    4    0    0  0.69656138962E+01  0.10323798655E+02  0.45792250835E+01  0.13269133289E+02  0.51100000000E-03 0.  1.
        -12    1    4    4    0    0 -0.51023072241E+01  0.10901009423E+02  0.30538858265E+02  0.32825103344E+02  0.00000000000E+00 0.  1.
</event>
<event>
 8    1  0.1253703E-006  0.9118800E+02  0.7816164E-02  0.1184000E+00
        -11   -1    0    0    0    0  0.00000000000E+00  0.00000000000E+00  0.45593999997E+02  0.45594000000E+02  0.51100000000E-03 0.  1.
         11   -1    0    0    0    0 -0.00000000000E+00 -0.00000000000E+00 -0.45593999997E+02  0.45594000000E+02  0.51100000000E-03 0. -1.
         23    2    1    2    0    0  0.00000000000E+00 -0.71054273576E-14  0.00000000000E+00  0.91188000000E+02  0.91188000000E+02 0.  0.
    9900012    2    3    3    0    0 -0.17574814275E+02 -0.26166645790E+02  0.19031847180E+02  0.54367100286E+02  0.40000036721E+02 0.  0.
         12    1    3    3    0    0  0.17574814275E+02  0.26166645790E+02 -0.19031847180E+02  0.36820899714E+02  0.00000000000E+00 0. -1.
         11    1    4    4    0    0 -0.82557370111E+01  0.22728317130E+01 -0.83968152203E+01  0.11992892216E+02  0.51100000000E-03 0. -1.
        -11    1    4    4    0    0 -0.43873767086E+01 -0.43961670051E+01  0.11631817856E+02  0.13186149765E+02  0.51100000000E-03 0.  1.
         12    1    4    4    0    0 -0.49317005555E+01 -0.24043310498E+02  0.15796844544E+02  0.29188058305E+02  0.00000000000E+00 0. -1.
</event>
<event>
 8    1  0.1253703E-006  0.9118800E+02  0.7816164E-02  0.1184000E+00
        -11   -1    0    0    0    0  0.00000000000E+00  0.00000000000E+00  0.45593999997E+02  0.45594000000E+02  0.51100000000E-03 0.  1.
         11   -1    0    0    0    0 -0.00000000000E+00 -0.00000000000E+00 -0.45593999997E+02  0.45594000000E+02  0.51100000000E-03 0. -1.
         23    2    1    2    0    0  0.00000000000E+00  0.35527136788E-14 -0.35527136788E-14  0.91188000000E+02  0.91188000000E+02 0.  0.
    9900012    2    3    3    0    0  0.66889964699E+01 -0.31839309430E+02  0.17242362287E+02  0.54367036460E+02  0.39999891218E+02 0.  0.
         12    1    3    3    0    0 -0.66889964699E+01  0.31839309430E+02 -0.17242362287E+02  0.36820963540E+02  0.00000000000E+00 0. -1.
         11    1    4    4    0    0  0.37221866284E+01  0.10177606917E+01 -0.82110752584E+01  0.90726108305E+01  0.51100000000E-03 0. -1.
        -11    1    4    4    0    0  0.66998718543E+01 -0.18634051597E+02  0.23061273646E+02  0.30396356759E+02  0.51100000000E-03 0.  1.
        -12    1    4    4    0    0 -0.37330620128E+01 -0.14223018525E+02  0.23921638988E+01  0.14898068870E+02  0.00000000000E+00 0.  1.
</event>
<event>
 8    1  0.1253703E-006  0.9118800E+02  0.7816164E-02  0.1184000E+00
        -11   -1    0    0    0    0  0.00000000000E+00  0.00000000000E+00  0.45593999997E+02  0.45594000000E+02  0.51100000000E-03 0.  1.
         11   -1    0    0    0    0 -0.00000000000E+00 -0.00000000000E+00 -0.45593999997E+02  0.45594000000E+02  0.51100000000E-03 0. -1.
         23    2    1    2    0    0  0.44408920985E-15  0.00000000000E+00  0.17763568394E-14  0.91188000000E+02  0.91188000000E+02 0.  0.
    9900012    2    3    3    0    0 -0.32570206680E+01 -0.35041729222E+02 -0.10828159070E+02  0.54367082041E+02  0.39999995129E+02 0.  0.
        -12    1    3    3    0    0  0.32570206680E+01  0.35041729222E+02  0.10828159070E+02  0.36820917959E+02  0.00000000000E+00 0.  1.
         11    1    4    4    0    0 -0.13256463471E+00 -0.52309877238E+01 -0.14570963979E+02  0.15482047587E+02  0.51100000000E-03 0. -1.
        -11    1    4    4    0    0  0.67754426933E+01  0.44431884131E+00  0.16210871034E+01  0.69808285024E+01  0.51100000000E-03 0.  1.
        -12    1    4    4    0    0 -0.98998987266E+01 -0.30255060339E+02  0.21217178057E+01  0.31904205951E+02  0.00000000000E+00 0.  1.
</event>
<event>
 8    1  0.1253703E-006  0.9118800E+02  0.7816164E-02  0.1184000E+00
        -11   -1    0    0    0    0  0.00000000000E+00  0.00000000000E+00  0.45593999997E+02  0.45594000000E+02  0.51100000000E-03 0. -1.
         11   -1    0    0    0    0 -0.00000000000E+00 -0.00000000000E+00 -0.45593999997E+02  0.45594000000E+02  0.51100000000E-03 0.  1.
         23    2    1    2    0    0 -0.35527136788E-14 -0.17763568394E-14  0.00000000000E+00  0.91188000000E+02  0.91188000000E+02 0.  0.
    9900012    2    3    3    0    0 -0.21707331607E+02 -0.97621503172E+01  0.28094001885E+02  0.54367071627E+02  0.39999971389E+02 0.  0.
        -12    1    3    3    0    0  0.21707331607E+02  0.97621503172E+01 -0.28094001885E+02  0.36820928373E+02  0.00000000000E+00 0.  1.
         11    1    4    4    0    0 -0.25736586789E+02  0.57272420050E+00  0.22485736088E+02  0.34180524283E+02  0.51100000000E-03 0. -1.
        -11    1    4    4    0    0  0.36189788613E+01 -0.29580554330E+01 -0.52651767914E+01  0.70405388181E+01  0.51100000000E-03 0.  1.
         12    1    4    4    0    0  0.41027632023E+00 -0.73768190847E+01  0.10873442588E+02  0.13146008527E+02  0.00000000000E+00 0. -1.
</event>
<event>
 8    1  0.1253703E-006  0.9118800E+02  0.7816164E-02  0.1184000E+00
        -11   -1    0    0    0    0  0.00000000000E+00  0.00000000000E+00  0.45593999997E+02  0.45594000000E+02  0.51100000000E-03 0. -1.
         11   -1    0    0    0    0 -0.00000000000E+00 -0.00000000000E+00 -0.45593999997E+02  0.45594000000E+02  0.51100000000E-03 0.  1.
         23    2    1    2    0    0  0.00000000000E+00  0.00000000000E+00  0.00000000000E+00  0.91188000000E+02  0.91188000000E+02 0.  0.
    9900012    2    3    3    0    0 -0.23605492902E+02  0.13214450161E+02  0.24978917905E+02  0.54366982525E+02  0.39999768262E+02 0.  0.
        -12    1    3    3    0    0  0.23605492902E+02 -0.13214450161E+02 -0.24978917905E+02  0.36821017475E+02  0.00000000000E+00 0.  1.
         11    1    4    4    0    0 -0.53726936337E+01  0.58647930876E+01  0.30497116058E+02  0.31517228986E+02  0.51100000000E-03 0. -1.
        -11    1    4    4    0    0 -0.81572890627E+01  0.32975070762E+01 -0.77937965336E+01  0.11754070888E+02  0.51100000000E-03 0.  1.
         12    1    4    4    0    0 -0.10075510206E+02  0.40521499973E+01  0.22755983799E+01  0.11095682651E+02  0.00000000000E+00 0. -1.
</event>
<event>
 8    1  0.1253703E-006  0.9118800E+02  0.7816164E-02  0.1184000E+00
        -11   -1    0    0    0    0  0.00000000000E+00  0.00000000000E+00  0.45593999997E+02  0.45594000000E+02  0.51100000000E-03 0.  1.
         11   -1    0    0    0    0 -0.00000000000E+00 -0.00000000000E+00 -0.45593999997E+02  0.45594000000E+02  0.51100000000E-03 0. -1.
         23    2    1    2    0    0  0.00000000000E+00  0.00000000000E+00  0.00000000000E+00  0.91188000000E+02  0.91188000000E+02 0.  0.
    9900012    2    3    3    0    0 -0.19445248425E+02 -0.28060398922E+02  0.13794014736E+02  0.54367102177E+02  0.40000041034E+02 0.  0.
         12    1    3    3    0    0  0.19445248425E+02  0.28060398922E+02 -0.13794014736E+02  0.36820897823E+02  0.00000000000E+00 0. -1.
         11    1    4    4    0    0 -0.26364012316E+02 -0.27645194030E+02  0.13133698770E+02  0.40395692122E+02  0.51100000000E-03 0. -1.
        -11    1    4    4    0    0  0.49152415934E+01 -0.44448016757E+01  0.45373886460E+01  0.80314231518E+01  0.51100000000E-03 0.  1.
         12    1    4    4    0    0  0.20035222980E+01  0.40295967845E+01 -0.38770726805E+01  0.59399869035E+01  0.00000000000E+00 0. -1.
</event>
<event>
 8    1  0.1253703E-006  0.9118800E+02  0.7816164E-02  0.1184000E+00
        -11   -1    0    0    0    0  0.00000000000E+00  0.00000000000E+00  0.45593999997E+02  0.45594000000E+02  0.51100000000E-03 0. -1.
         11   -1    0    0    0    0 -0.00000000000E+00 -0.00000000000E+00 -0.45593999997E+02  0.45594000000E+02  0.51100000000E-03 0.  1.
         23    2    1    2    0    0  0.00000000000E+00  0.00000000000E+00  0.17763568394E-14  0.91188000000E+02  0.91188000000E+02 0.  0.
    9900012    2    3    3    0    0 -0.28825880969E+02  0.16733764557E+02  0.15647051948E+02  0.54367074909E+02  0.39999978870E+02 0.  0.
        -12    1    3    3    0    0  0.28825880969E+02 -0.16733764557E+02 -0.15647051948E+02  0.36820925091E+02  0.00000000000E+00 0.  1.
         11    1    4    4    0    0 -0.27917331109E+02  0.16681352609E+02  0.26825015257E+02  0.42157162439E+02  0.51100000000E-03 0. -1.
        -11    1    4    4    0    0 -0.67448667892E+00 -0.22680409728E+01 -0.74093972738E+01  0.77780531212E+01  0.51100000000E-03 0.  1.
         12    1    4    4    0    0 -0.23406318117E+00  0.23204529207E+01 -0.37685660347E+01  0.44318593489E+01  0.00000000000E+00 0. -1.
</event>
<event>
 8    1  0.1253703E-006  0.9118800E+02  0.7816164E-02  0.1184000E+00
        -11   -1    0    0    0    0  0.00000000000E+00  0.00000000000E+00  0.45593999997E+02  0.45594000000E+02  0.51100000000E-03 0.  1.
         11   -1    0    0    0    0 -0.00000000000E+00 -0.00000000000E+00 -0.45593999997E+02  0.45594000000E+02  0.51100000000E-03 0. -1.
         23    2    1    2    0    0  0.17763568394E-14  0.17763568394E-14  0.00000000000E+00  0.91188000000E+02  0.91188000000E+02 0.  0.
    9900012    2    3    3    0    0 -0.10815015041E+02 -0.97467934447E+01 -0.33820314015E+02  0.54367106844E+02  0.40000051671E+02 0.  0.
        -12    1    3    3    0    0  0.10815015041E+02  0.97467934447E+01  0.33820314015E+02  0.36820893156E+02  0.00000000000E+00 0.  1.
         11    1    4    4    0    0  0.32430354478E+00  0.97349115087E+00  0.10038097263E+01  0.14354414086E+01  0.51100000000E-03 0. -1.
        -11    1    4    4    0    0  0.27690302102E+01  0.93567118589E+01  0.74289826330E+00  0.97860862047E+01  0.51100000000E-03 0.  1.
         12    1    4    4    0    0 -0.13908348796E+02 -0.20076996454E+02 -0.35567022004E+02  0.43145579230E+02  0.00000000000E+00 0. -1.
</event>
<event>
 8    1  0.1253703E-006  0.9118800E+02  0.7816164E-02  0.1184000E+00
        -11   -1    0    0    0    0  0.00000000000E+00  0.00000000000E+00  0.45593999997E+02  0.45594000000E+02  0.51100000000E-03 0.  1.
         11   -1    0    0    0    0 -0.00000000000E+00 -0.00000000000E+00 -0.45593999997E+02  0.45594000000E+02  0.51100000000E-03 0. -1.
         23    2    1    2    0    0 -0.35527136788E-14  0.00000000000E+00  0.00000000000E+00  0.91188000000E+02  0.91188000000E+02 0.  0.
    9900012    2    3    3    0    0 -0.30015659593E+02 -0.10652093268E+02 -0.18476278059E+02  0.54367085254E+02  0.40000002454E+02 0.  0.
        -12    1    3    3    0    0  0.30015659593E+02  0.10652093268E+02  0.18476278059E+02  0.36820914746E+02  0.00000000000E+00 0.  1.
         11    1    4    4    0    0 -0.39253855973E+01 -0.42830276795E+01 -0.95257984476E+01  0.11157679621E+02  0.51100000000E-03 0. -1.
        -11    1    4    4    0    0 -0.20931569171E+02 -0.47493044739E+01  0.98724718643E+01  0.23625244590E+02  0.51100000000E-03 0.  1.
        -12    1    4    4    0    0 -0.51587048242E+01 -0.16197611150E+01 -0.18822951476E+02  0.19584161044E+02  0.00000000000E+00 0.  1.
</event>
<event>
 8    1  0.1253703E-006  0.9118800E+02  0.7816164E-02  0.1184000E+00
        -11   -1    0    0    0    0  0.00000000000E+00  0.00000000000E+00  0.45593999997E+02  0.45594000000E+02  0.51100000000E-03 0.  1.
         11   -1    0    0    0    0 -0.00000000000E+00 -0.00000000000E+00 -0.45593999997E+02  0.45594000000E+02  0.51100000000E-03 0. -1.
         23    2    1    2    0    0  0.44408920985E-15 -0.44408920985E-15 -0.71054273576E-14  0.91188000000E+02  0.91188000000E+02 0.  0.
    9900012    2    3    3    0    0  0.30148055424E+01  0.25680472722E+01  0.36607329443E+02  0.54367075403E+02  0.39999979996E+02 0.  0.
         12    1    3    3    0    0 -0.30148055424E+01 -0.25680472722E+01 -0.36607329443E+02  0.36820924597E+02  0.00000000000E+00 0. -1.
         11    1    4    4    0    0  0.15851522428E+02  0.63123304207E+01  0.12795855754E+02  0.21327217431E+02  0.51100000000E-03 0.  1.
        -11    1    4    4    0    0 -0.16773231059E+02 -0.54898860652E+01  0.22380671948E+02  0.28502185991E+02  0.51100000000E-03 0. -1.
         12    1    4    4    0    0  0.39365141729E+01  0.17456029167E+01  0.14308017408E+01  0.45376719799E+01  0.00000000000E+00 0. -1.
</event>
<event>
 8    1  0.1253703E-006  0.9118800E+02  0.7816164E-02  0.1184000E+00
        -11   -1    0    0    0    0  0.00000000000E+00  0.00000000000E+00  0.45593999997E+02  0.45594000000E+02  0.51100000000E-03 0.  1.
         11   -1    0    0    0    0 -0.00000000000E+00 -0.00000000000E+00 -0.45593999997E+02  0.45594000000E+02  0.51100000000E-03 0. -1.
         23    2    1    2    0    0 -0.35527136788E-14  0.00000000000E+00  0.00000000000E+00  0.91188000000E+02  0.91188000000E+02 0.  0.
    9900012    2    3    3    0    0  0.19215663273E+02  0.24396312703E+02 -0.19782728138E+02  0.54367107546E+02  0.40000053272E+02 0.  0.
        -12    1    3    3    0    0 -0.19215663273E+02 -0.24396312703E+02  0.19782728138E+02  0.36820892454E+02  0.00000000000E+00 0.  1.
         11    1    4    4    0    0 -0.23559589199E+01  0.76513992617E+01 -0.38444259634E+01  0.88811071575E+01  0.51100000000E-03 0. -1.
        -11    1    4    4    0    0  0.30233942811E+02  0.13519919758E+02 -0.14406091862E+02  0.36116686049E+02  0.51100000000E-03 0.  1.
        -12    1    4    4    0    0 -0.86623206178E+01  0.32249936835E+01 -0.15322103121E+01  0.93693143390E+01  0.00000000000E+00 0.  1.
</event>
<event>
 8    1  0.1253703E-006  0.9118800E+02  0.7816164E-02  0.1184000E+00
        -11   -1    0    0    0    0  0.00000000000E+00  0.00000000000E+00  0.45593999997E+02  0.45594000000E+02  0.51100000000E-03 0. -1.
         11   -1    0    0    0    0 -0.00000000000E+00 -0.00000000000E+00 -0.45593999997E+02  0.45594000000E+02  0.51100000000E-03 0.  1.
         23    2    1    2    0    0  0.00000000000E+00 -0.53290705182E-14 -0.71054273576E-14  0.91188000000E+02  0.91188000000E+02 0.  0.
    9900012    2    3    3    0    0  0.29155649514E+01 -0.15483537327E+02 -0.33279704499E+02  0.54367093185E+02  0.40000020534E+02 0.  0.
         12    1    3    3    0    0 -0.29155649514E+01  0.15483537327E+02  0.33279704499E+02  0.36820906815E+02  0.00000000000E+00 0. -1.
         11    1    4    4    0    0 -0.13081898089E+02  0.31970278195E+01 -0.17766926686E+01  0.13583581324E+02  0.51100000000E-03 0. -1.
        -11    1    4    4    0    0  0.93514979611E+01 -0.13322197877E+02 -0.14682076645E+02  0.21920192637E+02  0.51100000000E-03 0.  1.
         12    1    4    4    0    0  0.66459650791E+01 -0.53583672701E+01 -0.16820935185E+02  0.18863319224E+02  0.00000000000E+00 0. -1.
</event>
<event>
 8    1  0.1253703E-006  0.9118800E+02  0.7816164E-02  0.1184000E+00
        -11   -1    0    0    0    0  0.00000000000E+00  0.00000000000E+00  0.45593999997E+02  0.45594000000E+02  0.51100000000E-03 0.  1.
         11   -1    0    0    0    0 -0.00000000000E+00 -0.00000000000E+00 -0.45593999997E+02  0.45594000000E+02  0.51100000000E-03 0. -1.
         23    2    1    2    0    0 -0.17763568394E-14  0.00000000000E+00 -0.71054273576E-14  0.91188000000E+02  0.91188000000E+02 0.  0.
    9900012    2    3    3    0    0 -0.53249770452E+01  0.12036763294E+02 -0.34388101282E+02  0.54367074415E+02  0.39999977744E+02 0.  0.
        -12    1    3    3    0    0  0.53249770452E+01 -0.12036763294E+02  0.34388101282E+02  0.36820925585E+02  0.00000000000E+00 0.  1.
         11    1    4    4    0    0  0.13885237502E+02  0.13836428322E+02 -0.21760519954E+02  0.29287656071E+02  0.51100000000E-03 0. -1.
        -11    1    4    4    0    0 -0.71986900133E+01  0.11913968427E+01  0.13794319423E+00  0.72979170268E+01  0.51100000000E-03 0.  1.
         12    1    4    4    0    0 -0.12011524534E+02 -0.29910618713E+01 -0.12765524522E+02  0.17781501317E+02  0.00000000000E+00 0. -1.
</event>
<event>
 8    1  0.1253703E-006  0.9118800E+02  0.7816164E-02  0.1184000E+00
        -11   -1    0    0    0    0  0.00000000000E+00  0.00000000000E+00  0.45593999997E+02  0.45594000000E+02  0.51100000000E-03 0. -1.
         11   -1    0    0    0    0 -0.00000000000E+00 -0.00000000000E+00 -0.45593999997E+02  0.45594000000E+02  0.51100000000E-03 0.  1.
         23    2    1    2    0    0  0.00000000000E+00  0.00000000000E+00  0.00000000000E+00  0.91188000000E+02  0.91188000000E+02 0.  0.
    9900012    2    3    3    0    0  0.22950419816E+02  0.78318076984E+01 -0.27707777087E+02  0.54367083490E+02  0.39999998432E+02 0.  0.
         12    1    3    3    0    0 -0.22950419816E+02 -0.78318076984E+01  0.27707777087E+02  0.36820916510E+02  0.00000000000E+00 0. -1.
         11    1    4    4    0    0  0.12537383615E+02  0.44873689845E+01  0.18085200103E+00  0.13317476338E+02  0.51100000000E-03 0. -1.
        -11    1    4    4    0    0  0.17878537282E+01 -0.12186957499E+02 -0.12442816978E+02  0.17508342259E+02  0.51100000000E-03 0.  1.
        -12    1    4    4    0    0  0.86251824722E+01  0.15531396213E+02 -0.15445812110E+02  0.23541264893E+02  0.00000000000E+00 0.  1.
</event>
<event>
 8    1  0.1253703E-006  0.9118800E+02  0.7816164E-02  0.1184000E+00
        -11   -1    0    0    0    0  0.00000000000E+00  0.00000000000E+00  0.45593999997E+02  0.45594000000E+02  0.51100000000E-03 0. -1.
         11   -1    0    0    0    0 -0.00000000000E+00 -0.00000000000E+00 -0.45593999997E+02  0.45594000000E+02  0.51100000000E-03 0.  1.
         23    2    1    2    0    0 -0.17763568394E-14  0.00000000000E+00  0.00000000000E+00  0.91188000000E+02  0.91188000000E+02 0.  0.
    9900012    2    3    3    0    0  0.19592236456E+01  0.32844628164E+02  0.16527909484E+02  0.54367082732E+02  0.39999996705E+02 0.  0.
        -12    1    3    3    0    0 -0.19592236456E+01 -0.32844628164E+02 -0.16527909484E+02  0.36820917268E+02  0.00000000000E+00 0.  1.
         11    1    4    4    0    0 -0.12575905325E+02  0.26506595689E+01  0.53841261850E+01  0.13934425210E+02  0.51100000000E-03 0. -1.
        -11    1    4    4    0    0 -0.20838692657E+01  0.14332066190E+01 -0.33447424736E+01  0.41933154908E+01  0.51100000000E-03 0.  1.
         12    1    4    4    0    0  0.16618998236E+02  0.28760761976E+02  0.14488525773E+02  0.36239342032E+02  0.00000000000E+00 0. -1.
</event>
<event>
 8    1  0.1253703E-006  0.9118800E+02  0.7816164E-02  0.1184000E+00
        -11   -1    0    0    0    0  0.00000000000E+00  0.00000000000E+00  0.45593999997E+02  0.45594000000E+02  0.51100000000E-03 0. -1.
         11   -1    0    0    0    0 -0.00000000000E+00 -0.00000000000E+00 -0.45593999997E+02  0.45594000000E+02  0.51100000000E-03 0.  1.
         23    2    1    2    0    0 -0.66613381478E-15  0.00000000000E+00 -0.35527136788E-14  0.91188000000E+02  0.91188000000E+02 0.  0.
    9900012    2    3    3    0    0 -0.26912846854E+00  0.25697669327E+02 -0.26369263192E+02  0.54367072795E+02  0.39999974050E+02 0.  0.
         12    1    3    3    0    0  0.26912846854E+00 -0.25697669327E+02  0.26369263192E+02  0.36820927205E+02  0.00000000000E+00 0. -1.
         11    1    4    4    0    0  0.72652403552E+01  0.11591901330E+02  0.30732429385E+01  0.14021437739E+02  0.51100000000E-03 0. -1.
        -11    1    4    4    0    0 -0.53356319374E+01  0.16899067162E+02 -0.31569296334E+02  0.36203147797E+02  0.51100000000E-03 0.  1.
        -12    1    4    4    0    0 -0.21987368863E+01 -0.27932991649E+01  0.21267902034E+01  0.41424872588E+01  0.00000000000E+00 0.  1.
</event>
<event>
 8    1  0.1253703E-006  0.9118800E+02  0.7816164E-02  0.1184000E+00
        -11   -1    0    0    0    0  0.00000000000E+00  0.00000000000E+00  0.45593999997E+02  0.45594000000E+02  0.51100000000E-03 0. -1.
         11   -1    0    0    0    0 -0.00000000000E+00 -0.00000000000E+00 -0.45593999997E+02  0.45594000000E+02  0.51100000000E-03 0.  1.
         23    2    1    2    0    0 -0.35527136788E-14  0.00000000000E+00 -0.35527136788E-14  0.91188000000E+02  0.91188000000E+02 0.  0.
    9900012    2    3    3    0    0 -0.28399239403E+02  0.14140777232E+02  0.18689605703E+02  0.54367085552E+02  0.40000003133E+02 0.  0.
        -12    1    3    3    0    0  0.28399239403E+02 -0.14140777232E+02 -0.18689605703E+02  0.36820914448E+02  0.00000000000E+00 0.  1.
         11    1    4    4    0    0 -0.72320308223E+01  0.14075840902E+02  0.29460597297E+01  0.16096920050E+02  0.51100000000E-03 0. -1.
        -11    1    4    4    0    0 -0.13925124707E+02 -0.86634534991E+01 -0.26975741905E+01  0.16620512369E+02  0.51100000000E-03 0.  1.
        -12    1    4    4    0    0 -0.72420838742E+01  0.87283898294E+01  0.18441120164E+02  0.21649653133E+02  0.00000000000E+00 0.  1.
</event>
<event>
 8    1  0.1253703E-006  0.9118800E+02  0.7816164E-02  0.1184000E+00
        -11   -1    0    0    0    0  0.00000000000E+00  0.00000000000E+00  0.45593999997E+02  0.45594000000E+02  0.51100000000E-03 0.  1.
         11   -1    0    0    0    0 -0.00000000000E+00 -0.00000000000E+00 -0.45593999997E+02  0.45594000000E+02  0.51100000000E-03 0. -1.
         23    2    1    2    0    0  0.00000000000E+00  0.00000000000E+00 -0.17763568394E-14  0.91188000000E+02  0.91188000000E+02 0.  0.
    9900012    2    3    3    0    0  0.12189652970E+02  0.32876782261E+02 -0.11238774016E+02  0.54367075341E+02  0.39999979854E+02 0.  0.
         12    1    3    3    0    0 -0.12189652970E+02 -0.32876782261E+02  0.11238774016E+02  0.36820924659E+02  0.00000000000E+00 0. -1.
         11    1    4    4    0    0  0.90620075757E+01  0.20119438808E+02  0.18687190818E+01  0.22145065151E+02  0.51100000000E-03 0. -1.
        -11    1    4    4    0    0  0.51367301691E+01 -0.60534114142E+01  0.17950256254E+01  0.81395272490E+01  0.51100000000E-03 0.  1.
         12    1    4    4    0    0 -0.20090847747E+01  0.18810754867E+02 -0.14902518724E+02  0.24082482941E+02  0.00000000000E+00 0. -1.
</event>
<event>
 8    1  0.1253703E-006  0.9118800E+02  0.7816164E-02  0.1184000E+00
        -11   -1    0    0    0    0  0.00000000000E+00  0.00000000000E+00  0.45593999997E+02  0.45594000000E+02  0.51100000000E-03 0. -1.
         11   -1    0    0    0    0 -0.00000000000E+00 -0.00000000000E+00 -0.45593999997E+02  0.45594000000E+02  0.51100000000E-03 0.  1.
         23    2    1    2    0    0  0.00000000000E+00  0.71054273576E-14  0.00000000000E+00  0.91188000000E+02  0.91188000000E+02 0.  0.
    9900012    2    3    3    0    0 -0.56273396759E+01  0.35989697571E+02 -0.53716356456E+01  0.54367085392E+02  0.40000002769E+02 0.  0.
         12    1    3    3    0    0  0.56273396759E+01 -0.35989697571E+02  0.53716356456E+01  0.36820914608E+02  0.00000000000E+00 0. -1.
         11    1    4    4    0    0  0.32406586145E+01  0.17574887685E+02 -0.21923637753E+01  0.18005138282E+02  0.51100000000E-03 0. -1.
        -11    1    4    4    0    0 -0.94010268599E+01  0.19401360695E+02 -0.13855191994E+02  0.25627298888E+02  0.51100000000E-03 0.  1.
         12    1    4    4    0    0  0.53302856948E+00 -0.98655080886E+00  0.10675920124E+02  0.10734648222E+02  0.00000000000E+00 0. -1.
</event>
<event>
 8    1  0.1253703E-006  0.9118800E+02  0.7816164E-02  0.1184000E+00
        -11   -1    0    0    0    0  0.00000000000E+00  0.00000000000E+00  0.45593999997E+02  0.45594000000E+02  0.51100000000E-03 0.  1.
         11   -1    0    0    0    0 -0.00000000000E+00 -0.00000000000E+00 -0.45593999997E+02  0.45594000000E+02  0.51100000000E-03 0. -1.
         23    2    1    2    0    0 -0.17763568394E-14  0.00000000000E+00  0.71054273576E-14  0.91188000000E+02  0.91188000000E+02 0.  0.
    9900012    2    3    3    0    0  0.11428193443E+02  0.84535460835E+01 -0.33966364651E+02  0.54367082380E+02  0.39999995902E+02 0.  0.
        -12    1    3    3    0    0 -0.11428193443E+02 -0.84535460835E+01  0.33966364651E+02  0.36820917620E+02  0.00000000000E+00 0.  1.
         11    1    4    4    0    0  0.21778182674E+01 -0.28983608401E+01 -0.12277552064E+02  0.12801627745E+02  0.51100000000E-03 0. -1.
        -11    1    4    4    0    0  0.43328830161E+01 -0.10062004873E+02 -0.38549470205E+00  0.10962044687E+02  0.51100000000E-03 0.  1.
         12    1    4    4    0    0  0.49174921593E+01  0.21413911796E+02 -0.21303317885E+02  0.30603409948E+02  0.00000000000E+00 0. -1.
</event>
<event>
 8    1  0.1253703E-006  0.9118800E+02  0.7816164E-02  0.1184000E+00
        -11   -1    0    0    0    0  0.00000000000E+00  0.00000000000E+00  0.45593999997E+02  0.45594000000E+02  0.51100000000E-03 0.  1.
         11   -1    0    0    0    0 -0.00000000000E+00 -0.00000000000E+00 -0.45593999997E+02  0.45594000000E+02  0.51100000000E-03 0. -1.
         23    2    1    2    0    0 -0.66613381478E-15  0.00000000000E+00  0.00000000000E+00  0.91188000000E+02  0.91188000000E+02 0.  0.
    9900012    2    3    3    0    0  0.18269639521E+01  0.33648546358E+02  0.14839724040E+02  0.54367083677E+02  0.39999998858E+02 0.  0.
         12    1    3    3    0    0 -0.18269639521E+01 -0.33648546358E+02 -0.14839724040E+02  0.36820916323E+02  0.00000000000E+00 0. -1.
         11    1    4    4    0    0 -0.97348837287E+01  0.19541696124E+02  0.44713750874E+01  0.22285399795E+02  0.51100000000E-03 0. -1.
        -11    1    4    4    0    0  0.17189214003E+02  0.16766981454E+02  0.93786659816E+01  0.25779063617E+02  0.51100000000E-03 0.  1.
         12    1    4    4    0    0 -0.56273663219E+01 -0.26601312189E+01  0.98968297045E+00  0.63026202650E+01  0.00000000000E+00 0. -1.
</event>
<event>
 8    1  0.1253703E-006  0.9118800E+02  0.7816164E-02  0.1184000E+00
        -11   -1    0    0    0    0  0.00000000000E+00  0.00000000000E+00  0.45593999997E+02  0.45594000000E+02  0.51100000000E-03 0. -1.
         11   -1    0    0    0    0 -0.00000000000E+00 -0.00000000000E+00 -0.45593999997E+02  0.45594000000E+02  0.51100000000E-03 0.  1.
         23    2    1    2    0    0  0.00000000000E+00  0.00000000000E+00  0.00000000000E+00  0.91188000000E+02  0.91188000000E+02 0.  0.
    9900012    2    3    3    0    0 -0.26993889447E+02  0.81752156033E+01 -0.23670132408E+02  0.54367090372E+02  0.40000014122E+02 0.  0.
         12    1    3    3    0    0  0.26993889447E+02 -0.81752156033E+01  0.23670132408E+02  0.36820909628E+02  0.00000000000E+00 0. -1.
         11    1    4    4    0    0  0.62492951078E+01 -0.55667012157E+01 -0.34051569976E+01  0.90353166081E+01  0.51100000000E-03 0. -1.
        -11    1    4    4    0    0 -0.12797242708E+02  0.67453622595E+00 -0.16316837600E+02  0.20747616961E+02  0.51100000000E-03 0.  1.
        -12    1    4    4    0    0 -0.20445941846E+02  0.13067380593E+02 -0.39481378101E+01  0.24584156803E+02  0.00000000000E+00 0.  1.
</event>
<event>
 8    1  0.1253703E-006  0.9118800E+02  0.7816164E-02  0.1184000E+00
        -11   -1    0    0    0    0  0.00000000000E+00  0.00000000000E+00  0.45593999997E+02  0.45594000000E+02  0.51100000000E-03 0.  1.
         11   -1    0    0    0    0 -0.00000000000E+00 -0.00000000000E+00 -0.45593999997E+02  0.45594000000E+02  0.51100000000E-03 0. -1.
         23    2    1    2    0    0  0.88817841970E-15  0.00000000000E+00  0.00000000000E+00  0.91188000000E+02  0.91188000000E+02 0.  0.
    9900012    2    3    3    0    0 -0.62796170241E+01  0.19657597089E+02  0.30494673354E+02  0.54367084527E+02  0.40000000796E+02 0.  0.
         12    1    3    3    0    0  0.62796170241E+01 -0.19657597089E+02 -0.30494673354E+02  0.36820915473E+02  0.00000000000E+00 0. -1.
         11    1    4    4    0    0  0.12676306913E+02  0.36541939050E+01  0.18104395450E+02  0.22401138920E+02  0.51100000000E-03 0. -1.
        -11    1    4    4    0    0 -0.23377793761E+00 -0.11270186922E+01 -0.23515818317E+01  0.26181597792E+01  0.51100000000E-03 0.  1.
        -12    1    4    4    0    0 -0.18722146000E+02  0.17130421876E+02  0.14741859736E+02  0.29347785827E+02  0.00000000000E+00 0.  1.
</event>
<event>
 8    1  0.1253703E-006  0.9118800E+02  0.7816164E-02  0.1184000E+00
        -11   -1    0    0    0    0  0.00000000000E+00  0.00000000000E+00  0.45593999997E+02  0.45594000000E+02  0.51100000000E-03 0.  1.
         11   -1    0    0    0    0 -0.00000000000E+00 -0.00000000000E+00 -0.45593999997E+02  0.45594000000E+02  0.51100000000E-03 0. -1.
         23    2    1    2    0    0  0.00000000000E+00 -0.88817841970E-15  0.71054273576E-14  0.91188000000E+02  0.91188000000E+02 0.  0.
    9900012    2    3    3    0    0  0.14916682933E+02 -0.48743313287E+01 -0.33309299341E+02  0.54367136916E+02  0.40000120228E+02 0.  0.
        -12    1    3    3    0    0 -0.14916682933E+02  0.48743313287E+01  0.33309299341E+02  0.36820863084E+02  0.00000000000E+00 0.  1.
         11    1    4    4    0    0 -0.19482156869E+01 -0.85923976806E+01  0.59251698775E+01  0.10617555302E+02  0.51100000000E-03 0.  1.
        -11    1    4    4    0    0  0.14537549730E+02  0.10391529840E+01 -0.36394760605E+02  0.39204576146E+02  0.51100000000E-03 0. -1.
        -12    1    4    4    0    0  0.23273488902E+01  0.26789133679E+01 -0.28397086136E+01  0.45450054674E+01  0.00000000000E+00 0.  1.
</event>
<event>
 8    1  0.1253703E-006  0.9118800E+02  0.7816164E-02  0.1184000E+00
        -11   -1    0    0    0    0  0.00000000000E+00  0.00000000000E+00  0.45593999997E+02  0.45594000000E+02  0.51100000000E-03 0. -1.
         11   -1    0    0    0    0 -0.00000000000E+00 -0.00000000000E+00 -0.45593999997E+02  0.45594000000E+02  0.51100000000E-03 0.  1.
         23    2    1    2    0    0  0.35527136788E-14  0.00000000000E+00  0.17763568394E-14  0.91188000000E+02  0.91188000000E+02 0.  0.
    9900012    2    3    3    0    0 -0.24349509398E+02  0.26864535673E+02 -0.64170084176E+01  0.54367083636E+02  0.39999998766E+02 0.  0.
         12    1    3    3    0    0  0.24349509398E+02 -0.26864535673E+02  0.64170084176E+01  0.36820916364E+02  0.00000000000E+00 0. -1.
         11    1    4    4    0    0 -0.25912952067E+01  0.18871696322E+02  0.49265997769E+01  0.19675546207E+02  0.51100000000E-03 0. -1.
        -11    1    4    4    0    0 -0.16267512395E+01  0.32338019613E+01 -0.13421513592E+02  0.13901108663E+02  0.51100000000E-03 0.  1.
         12    1    4    4    0    0 -0.20131462952E+02  0.47590373900E+01  0.20779053971E+01  0.20790428766E+02  0.00000000000E+00 0. -1.
</event>
<event>
 8    1  0.1253703E-006  0.9118800E+02  0.7816164E-02  0.1184000E+00
        -11   -1    0    0    0    0  0.00000000000E+00  0.00000000000E+00  0.45593999997E+02  0.45594000000E+02  0.51100000000E-03 0.  1.
         11   -1    0    0    0    0 -0.00000000000E+00 -0.00000000000E+00 -0.45593999997E+02  0.45594000000E+02  0.51100000000E-03 0. -1.
         23    2    1    2    0    0  0.00000000000E+00 -0.66613381478E-15  0.00000000000E+00  0.91188000000E+02  0.91188000000E+02 0.  0.
    9900012    2    3    3    0    0  0.60536535631E+01  0.10076888402E+01 -0.36305896477E+02  0.54367078268E+02  0.39999986527E+02 0.  0.
        -12    1    3    3    0    0 -0.60536535631E+01 -0.10076888402E+01  0.36305896477E+02  0.36820921732E+02  0.00000000000E+00 0.  1.
         11    1    4    4    0    0  0.83076527247E+01  0.57234057442E+01 -0.93021334004E+01  0.13722396043E+02  0.51100000000E-03 0. -1.
        -11    1    4    4    0    0 -0.34042232789E+01  0.10612080295E+02 -0.21682067810E+02  0.24378618687E+02  0.51100000000E-03 0.  1.
         12    1    4    4    0    0  0.11502241173E+01 -0.15327797199E+02 -0.53216952660E+01  0.16266063537E+02  0.00000000000E+00 0. -1.
</event>
<event>
 8    1  0.1253703E-006  0.9118800E+02  0.7816164E-02  0.1184000E+00
        -11   -1    0    0    0    0  0.00000000000E+00  0.00000000000E+00  0.45593999997E+02  0.45594000000E+02  0.51100000000E-03 0.  1.
         11   -1    0    0    0    0 -0.00000000000E+00 -0.00000000000E+00 -0.45593999997E+02  0.45594000000E+02  0.51100000000E-03 0. -1.
         23    2    1    2    0    0  0.71054273576E-14  0.53290705182E-14  0.00000000000E+00  0.91188000000E+02  0.91188000000E+02 0.  0.
    9900012    2    3    3    0    0  0.33441635440E+02  0.11176487658E+02 -0.10607614624E+02  0.54367104502E+02  0.40000046333E+02 0.  0.
        -12    1    3    3    0    0 -0.33441635440E+02 -0.11176487658E+02  0.10607614624E+02  0.36820895498E+02  0.00000000000E+00 0.  1.
         11    1    4    4    0    0  0.33848485647E+01  0.33303444792E+00 -0.62813283611E+01  0.71430524281E+01  0.51100000000E-03 0. -1.
        -11    1    4    4    0    0  0.19231629260E+02 -0.69877713768E+01 -0.13418021363E+02  0.24468915186E+02  0.51100000000E-03 0.  1.
         12    1    4    4    0    0  0.10825157615E+02  0.17831224587E+02  0.90917350999E+01  0.22755136888E+02  0.00000000000E+00 0. -1.
</event>
<event>
 8    1  0.1253703E-006  0.9118800E+02  0.7816164E-02  0.1184000E+00
        -11   -1    0    0    0    0  0.00000000000E+00  0.00000000000E+00  0.45593999997E+02  0.45594000000E+02  0.51100000000E-03 0.  1.
         11   -1    0    0    0    0 -0.00000000000E+00 -0.00000000000E+00 -0.45593999997E+02  0.45594000000E+02  0.51100000000E-03 0. -1.
         23    2    1    2    0    0 -0.35527136788E-14  0.35527136788E-14  0.00000000000E+00  0.91188000000E+02  0.91188000000E+02 0.  0.
    9900012    2    3    3    0    0  0.18592861523E+02 -0.20256967077E+02  0.24489603457E+02  0.54367083495E+02  0.39999998444E+02 0.  0.
         12    1    3    3    0    0 -0.18592861523E+02  0.20256967077E+02 -0.24489603457E+02  0.36820916505E+02  0.00000000000E+00 0. -1.
         11    1    4    4    0    0  0.42491015872E+01  0.50450076742E+01  0.52967209134E+01  0.84594455744E+01  0.51100000000E-03 0. -1.
        -11    1    4    4    0    0  0.13032740698E+00 -0.17093432266E+02 -0.39411939649E+01  0.17542389290E+02  0.51100000000E-03 0.  1.
        -12    1    4    4    0    0  0.14213432529E+02 -0.82085424849E+01  0.23134076509E+02  0.28365248631E+02  0.00000000000E+00 0.  1.
</event>
<event>
 8    1  0.1253703E-006  0.9118800E+02  0.7816164E-02  0.1184000E+00
        -11   -1    0    0    0    0  0.00000000000E+00  0.00000000000E+00  0.45593999997E+02  0.45594000000E+02  0.51100000000E-03 0.  1.
         11   -1    0    0    0    0 -0.00000000000E+00 -0.00000000000E+00 -0.45593999997E+02  0.45594000000E+02  0.51100000000E-03 0. -1.
         23    2    1    2    0    0  0.88817841970E-15  0.00000000000E+00  0.00000000000E+00  0.91188000000E+02  0.91188000000E+02 0.  0.
    9900012    2    3    3    0    0 -0.67573019402E+01 -0.25668520267E+02 -0.25519505638E+02  0.54367092486E+02  0.40000018940E+02 0.  0.
        -12    1    3    3    0    0  0.67573019402E+01  0.25668520267E+02  0.25519505638E+02  0.36820907514E+02  0.00000000000E+00 0.  1.
         11    1    4    4    0    0 -0.49255702464E+01 -0.99839540389E+00 -0.15294242492E+02  0.16098816395E+02  0.51100000000E-03 0. -1.
        -11    1    4    4    0    0 -0.54619188297E+00 -0.39698057936E+01  0.90854898494E+01  0.99299450994E+01  0.51100000000E-03 0.  1.
        -12    1    4    4    0    0 -0.12855398108E+01 -0.20700319069E+02 -0.19310752995E+02  0.28338330992E+02  0.00000000000E+00 0.  1.
</event>
<event>
 8    1  0.1253703E-006  0.9118800E+02  0.7816164E-02  0.1184000E+00
        -11   -1    0    0    0    0  0.00000000000E+00  0.00000000000E+00  0.45593999997E+02  0.45594000000E+02  0.51100000000E-03 0. -1.
         11   -1    0    0    0    0 -0.00000000000E+00 -0.00000000000E+00 -0.45593999997E+02  0.45594000000E+02  0.51100000000E-03 0.  1.
         23    2    1    2    0    0  0.00000000000E+00  0.00000000000E+00  0.44408920985E-15  0.91188000000E+02  0.91188000000E+02 0.  0.
    9900012    2    3    3    0    0 -0.35811375871E+02 -0.78984233436E+01  0.33077090549E+01  0.54367072903E+02  0.39999974298E+02 0.  0.
         12    1    3    3    0    0  0.35811375871E+02  0.78984233436E+01 -0.33077090549E+01  0.36820927097E+02  0.00000000000E+00 0. -1.
         11    1    4    4    0    0  0.42986671715E+01  0.32680050219E+01  0.33343818162E+01  0.63463768114E+01  0.51100000000E-03 0. -1.
        -11    1    4    4    0    0 -0.13643240036E+02  0.73867393015E+01  0.19589866188E+01  0.15637760230E+02  0.51100000000E-03 0.  1.
        -12    1    4    4    0    0 -0.26466803006E+02 -0.18553167667E+02 -0.19856593802E+01  0.32382935862E+02  0.00000000000E+00 0.  1.
</event>
<event>
 8    1  0.1253703E-006  0.9118800E+02  0.7816164E-02  0.1184000E+00
        -11   -1    0    0    0    0  0.00000000000E+00  0.00000000000E+00  0.45593999997E+02  0.45594000000E+02  0.51100000000E-03 0. -1.
         11   -1    0    0    0    0 -0.00000000000E+00 -0.00000000000E+00 -0.45593999997E+02  0.45594000000E+02  0.51100000000E-03 0.  1.
         23    2    1    2    0    0  0.16653345369E-15  0.00000000000E+00  0.00000000000E+00  0.91188000000E+02  0.91188000000E+02 0.  0.
    9900012    2    3    3    0    0 -0.42835657586E+00 -0.36416481512E+02  0.54254580651E+01  0.54367092756E+02  0.40000019555E+02 0.  0.
        -12    1    3    3    0    0  0.42835657586E+00  0.36416481512E+02 -0.54254580651E+01  0.36820907244E+02  0.00000000000E+00 0.  1.
         11    1    4    4    0    0 -0.80975133531E+01 -0.24347097094E+02 -0.27880277809E+00  0.25659863419E+02  0.51100000000E-03 0. -1.
        -11    1    4    4    0    0 -0.83194641411E+01 -0.68312553311E+01 -0.49643713703E+00  0.10776176645E+02  0.51100000000E-03 0.  1.
        -12    1    4    4    0    0  0.15988620918E+02 -0.52381290866E+01  0.62006979802E+01  0.17931052692E+02  0.00000000000E+00 0.  1.
</event>
<event>
 8    1  0.1253703E-006  0.9118800E+02  0.7816164E-02  0.1184000E+00
        -11   -1    0    0    0    0  0.00000000000E+00  0.00000000000E+00  0.45593999997E+02  0.45594000000E+02  0.51100000000E-03 0.  1.
         11   -1    0    0    0    0 -0.00000000000E+00 -0.00000000000E+00 -0.45593999997E+02  0.45594000000E+02  0.51100000000E-03 0. -1.
         23    2    1    2    0    0  0.00000000000E+00  0.00000000000E+00 -0.35527136788E-14  0.91188000000E+02  0.91188000000E+02 0.  0.
    9900012    2    3    3    0    0  0.11161539216E+02 -0.23198547481E+02 -0.26325400925E+02  0.54367091582E+02  0.40000016879E+02 0.  0.
        -12    1    3    3    0    0 -0.11161539216E+02  0.23198547481E+02  0.26325400925E+02  0.36820908418E+02  0.00000000000E+00 0.  1.
         11    1    4    4    0    0  0.20384136745E+01  0.52695750321E+01 -0.64305163690E+00  0.56865690004E+01  0.51100000000E-03 0. -1.
        -11    1    4    4    0    0  0.90484733992E+01  0.13650097960E+01  0.24660598429E+00  0.91541759526E+01  0.51100000000E-03 0.  1.
         12    1    4    4    0    0  0.74652142337E-01 -0.29833132309E+02 -0.25928955272E+02  0.39526346629E+02  0.00000000000E+00 0. -1.
</event>
<event>
 8    1  0.1253703E-006  0.9118800E+02  0.7816164E-02  0.1184000E+00
        -11   -1    0    0    0    0  0.00000000000E+00  0.00000000000E+00  0.45593999997E+02  0.45594000000E+02  0.51100000000E-03 0.  1.
         11   -1    0    0    0    0 -0.00000000000E+00 -0.00000000000E+00 -0.45593999997E+02  0.45594000000E+02  0.51100000000E-03 0. -1.
         23    2    1    2    0    0  0.88817841970E-15 -0.17763568394E-14  0.71054273576E-14  0.91188000000E+02  0.91188000000E+02 0.  0.
    9900012    2    3    3    0    0 -0.40327368740E+01 -0.41885608095E+01  0.36358939959E+02  0.54367088505E+02  0.40000009866E+02 0.  0.
         12    1    3    3    0    0  0.40327368740E+01  0.41885608095E+01 -0.36358939959E+02  0.36820911495E+02  0.00000000000E+00 0. -1.
         11    1    4    4    0    0 -0.16185520154E+02 -0.87510223570E+01  0.26031365469E+02  0.31877632336E+02  0.51100000000E-03 0. -1.
        -11    1    4    4    0    0 -0.35960738408E+01  0.16980581211E+00  0.23297657913E+01  0.42881686051E+01  0.51100000000E-03 0.  1.
        -12    1    4    4    0    0  0.15748857120E+02  0.43926557354E+01  0.79978086986E+01  0.18201287564E+02  0.00000000000E+00 0.  1.
</event>
<event>
 8    1  0.1253703E-006  0.9118800E+02  0.7816164E-02  0.1184000E+00
        -11   -1    0    0    0    0  0.00000000000E+00  0.00000000000E+00  0.45593999997E+02  0.45594000000E+02  0.51100000000E-03 0.  1.
         11   -1    0    0    0    0 -0.00000000000E+00 -0.00000000000E+00 -0.45593999997E+02  0.45594000000E+02  0.51100000000E-03 0. -1.
         23    2    1    2    0    0 -0.13322676296E-14  0.00000000000E+00  0.17763568394E-14  0.91188000000E+02  0.91188000000E+02 0.  0.
    9900012    2    3    3    0    0 -0.34681941610E+01 -0.34143940017E+02  0.13339481291E+02  0.54367098711E+02  0.40000033132E+02 0.  0.
        -12    1    3    3    0    0  0.34681941610E+01  0.34143940017E+02 -0.13339481291E+02  0.36820901289E+02  0.00000000000E+00 0.  1.
         11    1    4    4    0    0 -0.12598194915E+02 -0.46296163937E+01  0.18105827962E+02  0.22538164733E+02  0.51100000000E-03 0. -1.
        -11    1    4    4    0    0  0.87678450422E+01 -0.19065555626E+02 -0.38343373296E+01  0.21332432140E+02  0.51100000000E-03 0.  1.
         12    1    4    4    0    0  0.36215571213E+00 -0.10448767997E+02 -0.93200934104E+00  0.10496501838E+02  0.00000000000E+00 0. -1.
</event>
<event>
 8    1  0.1253703E-006  0.9118800E+02  0.7816164E-02  0.1184000E+00
        -11   -1    0    0    0    0  0.00000000000E+00  0.00000000000E+00  0.45593999997E+02  0.45594000000E+02  0.51100000000E-03 0.  1.
         11   -1    0    0    0    0 -0.00000000000E+00 -0.00000000000E+00 -0.45593999997E+02  0.45594000000E+02  0.51100000000E-03 0. -1.
         23    2    1    2    0    0  0.00000000000E+00  0.35527136788E-14  0.17763568394E-14  0.91188000000E+02  0.91188000000E+02 0.  0.
    9900012    2    3    3    0    0 -0.26907127255E+02 -0.21538623928E+02 -0.12956388882E+02  0.54367165807E+02  0.40000186090E+02 0.  0.
        -12    1    3    3    0    0  0.26907127255E+02  0.21538623928E+02  0.12956388882E+02  0.36820834193E+02  0.00000000000E+00 0.  1.
         11    1    4    4    0    0  0.35028542147E+01 -0.12178756293E+02 -0.91907454808E+01  0.15654452889E+02  0.51100000000E-03 0. -1.
        -11    1    4    4    0    0 -0.28460445091E+02 -0.91916725827E+00 -0.72363994518E+01  0.29380389387E+02  0.51100000000E-03 0.  1.
        -12    1    4    4    0    0 -0.19495363780E+01 -0.84407003767E+01  0.34707560504E+01  0.93323235317E+01  0.00000000000E+00 0.  1.
</event>
<event>
 8    1  0.1253703E-006  0.9118800E+02  0.7816164E-02  0.1184000E+00
        -11   -1    0    0    0    0  0.00000000000E+00  0.00000000000E+00  0.45593999997E+02  0.45594000000E+02  0.51100000000E-03 0.  1.
         11   -1    0    0    0    0 -0.00000000000E+00 -0.00000000000E+00 -0.45593999997E+02  0.45594000000E+02  0.51100000000E-03 0. -1.
         23    2    1    2    0    0  0.71054273576E-14 -0.44408920985E-15 -0.44408920985E-15  0.91188000000E+02  0.91188000000E+02 0.  0.
    9900012    2    3    3    0    0 -0.36530020469E+02  0.26165062678E+01  0.38068284195E+01  0.54367076015E+02  0.39999981391E+02 0.  0.
        -12    1    3    3    0    0  0.36530020469E+02 -0.26165062678E+01 -0.38068284195E+01  0.36820923985E+02  0.00000000000E+00 0.  1.
         11    1    4    4    0    0 -0.37607903844E+01 -0.19173800709E+01  0.36455470099E+01  0.55776252934E+01  0.51100000000E-03 0. -1.
        -11    1    4    4    0    0 -0.78410305568E+01 -0.14660421908E+02  0.39843916793E+01  0.17096347798E+02  0.51100000000E-03 0.  1.
         12    1    4    4    0    0 -0.24928199528E+02  0.19194308247E+02 -0.38231102697E+01  0.31693102923E+02  0.00000000000E+00 0. -1.
</event>
<event>
 8    1  0.1253703E-006  0.9118800E+02  0.7816164E-02  0.1184000E+00
        -11   -1    0    0    0    0  0.00000000000E+00  0.00000000000E+00  0.45593999997E+02  0.45594000000E+02  0.51100000000E-03 0.  1.
         11   -1    0    0    0    0 -0.00000000000E+00 -0.00000000000E+00 -0.45593999997E+02  0.45594000000E+02  0.51100000000E-03 0. -1.
         23    2    1    2    0    0 -0.88817841970E-15  0.00000000000E+00  0.00000000000E+00  0.91188000000E+02  0.91188000000E+02 0.  0.
    9900012    2    3    3    0    0 -0.60836865702E+01  0.36025855638E+02  0.45723648485E+01  0.54367081529E+02  0.39999993961E+02 0.  0.
         12    1    3    3    0    0  0.60836865702E+01 -0.36025855638E+02 -0.45723648485E+01  0.36820918471E+02  0.00000000000E+00 0. -1.
         11    1    4    4    0    0  0.12929807227E+02  0.61376331396E+01 -0.45950805390E+01  0.15032139599E+02  0.51100000000E-03 0. -1.
        -11    1    4    4    0    0 -0.10322327084E+02  0.12020721708E+02  0.11139055999E+02  0.19368189271E+02  0.51100000000E-03 0.  1.
         12    1    4    4    0    0 -0.86911667131E+01  0.17867500791E+02 -0.19716106114E+01  0.19966752659E+02  0.00000000000E+00 0. -1.
</event>
<event>
 8    1  0.1253703E-006  0.9118800E+02  0.7816164E-02  0.1184000E+00
        -11   -1    0    0    0    0  0.00000000000E+00  0.00000000000E+00  0.45593999997E+02  0.45594000000E+02  0.51100000000E-03 0.  1.
         11   -1    0    0    0    0 -0.00000000000E+00 -0.00000000000E+00 -0.45593999997E+02  0.45594000000E+02  0.51100000000E-03 0. -1.
         23    2    1    2    0    0 -0.17763568394E-14  0.88817841970E-15  0.00000000000E+00  0.91188000000E+02  0.91188000000E+02 0.  0.
    9900012    2    3    3    0    0  0.10227270138E+02  0.67482797198E+01 -0.34722359203E+02  0.54367101555E+02  0.40000039615E+02 0.  0.
        -12    1    3    3    0    0 -0.10227270138E+02 -0.67482797198E+01  0.34722359203E+02  0.36820898445E+02  0.00000000000E+00 0.  1.
         11    1    4    4    0    0  0.61355342388E+01  0.37069489539E+00 -0.16408454755E+01  0.63619626874E+01  0.51100000000E-03 0. -1.
        -11    1    4    4    0    0 -0.65636119922E+01  0.15768206359E+02 -0.73083306513E+01  0.18577648703E+02  0.51100000000E-03 0.  1.
        -12    1    4    4    0    0  0.10655347892E+02 -0.93906215346E+01 -0.25773183076E+02  0.29427490165E+02  0.00000000000E+00 0.  1.
</event>
<event>
 8    1  0.1253703E-006  0.9118800E+02  0.7816164E-02  0.1184000E+00
        -11   -1    0    0    0    0  0.00000000000E+00  0.00000000000E+00  0.45593999997E+02  0.45594000000E+02  0.51100000000E-03 0.  1.
         11   -1    0    0    0    0 -0.00000000000E+00 -0.00000000000E+00 -0.45593999997E+02  0.45594000000E+02  0.51100000000E-03 0. -1.
         23    2    1    2    0    0  0.00000000000E+00  0.17763568394E-14  0.17763568394E-14  0.91188000000E+02  0.91188000000E+02 0.  0.
    9900012    2    3    3    0    0  0.33455392851E+02  0.12429940774E+02  0.90560726082E+01  0.54367093038E+02  0.40000020198E+02 0.  0.
         12    1    3    3    0    0 -0.33455392851E+02 -0.12429940774E+02 -0.90560726082E+01  0.36820906962E+02  0.00000000000E+00 0. -1.
         11    1    4    4    0    0  0.15864970316E+02 -0.73491684245E+01  0.60446248486E+01  0.18499866202E+02  0.51100000000E-03 0. -1.
        -11    1    4    4    0    0 -0.21828032432E+01 -0.37138898284E+01  0.28405128143E+01  0.51600504809E+01  0.51100000000E-03 0.  1.
         12    1    4    4    0    0  0.19773225778E+02  0.23492999027E+02  0.17093494536E+00  0.30707176355E+02  0.00000000000E+00 0. -1.
</event>
<event>
 8    1  0.1253703E-006  0.9118800E+02  0.7816164E-02  0.1184000E+00
        -11   -1    0    0    0    0  0.00000000000E+00  0.00000000000E+00  0.45593999997E+02  0.45594000000E+02  0.51100000000E-03 0. -1.
         11   -1    0    0    0    0 -0.00000000000E+00 -0.00000000000E+00 -0.45593999997E+02  0.45594000000E+02  0.51100000000E-03 0.  1.
         23    2    1    2    0    0  0.00000000000E+00  0.00000000000E+00  0.00000000000E+00  0.91188000000E+02  0.91188000000E+02 0.  0.
    9900012    2    3    3    0    0 -0.14126493629E+02 -0.33616650288E+02 -0.51129912514E+01  0.54367086399E+02  0.40000005064E+02 0.  0.
         12    1    3    3    0    0  0.14126493629E+02  0.33616650288E+02  0.51129912514E+01  0.36820913601E+02  0.00000000000E+00 0. -1.
         11    1    4    4    0    0 -0.89881623500E+01 -0.23478275724E+02 -0.50093075249E+01  0.25634150182E+02  0.51100000000E-03 0.  1.
        -11    1    4    4    0    0 -0.93007362139E+01 -0.53990817492E+01  0.11363431710E+02  0.15645490032E+02  0.51100000000E-03 0. -1.
         12    1    4    4    0    0  0.41624049348E+01 -0.47392928154E+01 -0.11467115436E+02  0.13087446186E+02  0.00000000000E+00 0. -1.
</event>
<event>
 8    1  0.1253703E-006  0.9118800E+02  0.7816164E-02  0.1184000E+00
        -11   -1    0    0    0    0  0.00000000000E+00  0.00000000000E+00  0.45593999997E+02  0.45594000000E+02  0.51100000000E-03 0.  1.
         11   -1    0    0    0    0 -0.00000000000E+00 -0.00000000000E+00 -0.45593999997E+02  0.45594000000E+02  0.51100000000E-03 0. -1.
         23    2    1    2    0    0  0.35527136788E-14  0.35527136788E-14 -0.17763568394E-14  0.91188000000E+02  0.91188000000E+02 0.  0.
    9900012    2    3    3    0    0 -0.18119741440E+02 -0.29283848062E+02 -0.13034918411E+02  0.54367110750E+02  0.40000060577E+02 0.  0.
        -12    1    3    3    0    0  0.18119741440E+02  0.29283848062E+02  0.13034918411E+02  0.36820889250E+02  0.00000000000E+00 0.  1.
         11    1    4    4    0    0 -0.41909220281E+01 -0.11200357621E+02  0.86074729811E+01  0.14734328273E+02  0.51100000000E-03 0. -1.
        -11    1    4    4    0    0 -0.68297652928E+01 -0.97142694295E+01  0.33488461293E+01  0.12338050703E+02  0.51100000000E-03 0.  1.
        -12    1    4    4    0    0 -0.70990541186E+01 -0.83692210118E+01 -0.24991237522E+02  0.27294731774E+02  0.00000000000E+00 0.  1.
</event>
<event>
 8    1  0.1253703E-006  0.9118800E+02  0.7816164E-02  0.1184000E+00
        -11   -1    0    0    0    0  0.00000000000E+00  0.00000000000E+00  0.45593999997E+02  0.45594000000E+02  0.51100000000E-03 0.  1.
         11   -1    0    0    0    0 -0.00000000000E+00 -0.00000000000E+00 -0.45593999997E+02  0.45594000000E+02  0.51100000000E-03 0. -1.
         23    2    1    2    0    0  0.00000000000E+00 -0.22204460493E-15  0.00000000000E+00  0.91188000000E+02  0.91188000000E+02 0.  0.
    9900012    2    3    3    0    0 -0.14448388197E+02  0.10943677414E+00 -0.33867647131E+02  0.54367008431E+02  0.39999827321E+02 0.  0.
        -12    1    3    3    0    0  0.14448388197E+02 -0.10943677414E+00  0.33867647131E+02  0.36820991569E+02  0.00000000000E+00 0.  1.
         11    1    4    4    0    0 -0.48276895713E+01 -0.46141009949E+01 -0.20437281811E+02  0.21500674470E+02  0.51100000000E-03 0. -1.
        -11    1    4    4    0    0 -0.25562790109E+01  0.14258205495E+02 -0.15051319613E+02  0.20889547833E+02  0.51100000000E-03 0.  1.
        -12    1    4    4    0    0 -0.70644196147E+01 -0.95346677264E+01  0.16209542922E+01  0.11976786128E+02  0.00000000000E+00 0.  1.
</event>
<event>
 8    1  0.1253703E-006  0.9118800E+02  0.7816164E-02  0.1184000E+00
        -11   -1    0    0    0    0  0.00000000000E+00  0.00000000000E+00  0.45593999997E+02  0.45594000000E+02  0.51100000000E-03 0.  1.
         11   -1    0    0    0    0 -0.00000000000E+00 -0.00000000000E+00 -0.45593999997E+02  0.45594000000E+02  0.51100000000E-03 0. -1.
         23    2    1    2    0    0  0.00000000000E+00 -0.17763568394E-14 -0.35527136788E-14  0.91188000000E+02  0.91188000000E+02 0.  0.
    9900012    2    3    3    0    0  0.25102626709E+02 -0.14844592571E+02 -0.22478393834E+02  0.54367055068E+02  0.39999933639E+02 0.  0.
        -12    1    3    3    0    0 -0.25102626709E+02  0.14844592571E+02  0.22478393834E+02  0.36820944932E+02  0.00000000000E+00 0.  1.
         11    1    4    4    0    0  0.16255711659E+02 -0.23803807675E+02 -0.84104158164E+01  0.30026730022E+02  0.51100000000E-03 0. -1.
        -11    1    4    4    0    0  0.79068962506E+01 -0.19991764074E+01 -0.92520270638E+01  0.12333520166E+02  0.51100000000E-03 0.  1.
        -12    1    4    4    0    0  0.94001879922E+00  0.10958391511E+02 -0.48159509540E+01  0.12006804880E+02  0.00000000000E+00 0.  1.
</event>
<event>
 8    1  0.1253703E-006  0.9118800E+02  0.7816164E-02  0.1184000E+00
        -11   -1    0    0    0    0  0.00000000000E+00  0.00000000000E+00  0.45593999997E+02  0.45594000000E+02  0.51100000000E-03 0.  1.
         11   -1    0    0    0    0 -0.00000000000E+00 -0.00000000000E+00 -0.45593999997E+02  0.45594000000E+02  0.51100000000E-03 0. -1.
         23    2    1    2    0    0 -0.17763568394E-14  0.00000000000E+00  0.35527136788E-14  0.91188000000E+02  0.91188000000E+02 0.  0.
    9900012    2    3    3    0    0 -0.11848525493E+02  0.19195198873E+02 -0.29102131561E+02  0.54367119001E+02  0.40000079387E+02 0.  0.
        -12    1    3    3    0    0  0.11848525493E+02 -0.19195198873E+02  0.29102131561E+02  0.36820880999E+02  0.00000000000E+00 0.  1.
         11    1    4    4    0    0  0.35511650815E+01  0.83423108764E+01 -0.89577834284E+01  0.12745462267E+02  0.51100000000E-03 0. -1.
        -11    1    4    4    0    0 -0.39925163400E+01  0.19680225682E+02 -0.49723124604E+01  0.20687565374E+02  0.51100000000E-03 0.  1.
        -12    1    4    4    0    0 -0.11407174235E+02 -0.88273376857E+01 -0.15172035672E+02  0.20934091360E+02  0.00000000000E+00 0.  1.
</event>
<event>
 8    1  0.1253703E-006  0.9118800E+02  0.7816164E-02  0.1184000E+00
        -11   -1    0    0    0    0  0.00000000000E+00  0.00000000000E+00  0.45593999997E+02  0.45594000000E+02  0.51100000000E-03 0. -1.
         11   -1    0    0    0    0 -0.00000000000E+00 -0.00000000000E+00 -0.45593999997E+02  0.45594000000E+02  0.51100000000E-03 0.  1.
         23    2    1    2    0    0 -0.35527136788E-14 -0.71054273576E-14 -0.17763568394E-14  0.91188000000E+02  0.91188000000E+02 0.  0.
    9900012    2    3    3    0    0 -0.11063564055E+02 -0.33313756483E+02  0.11116153161E+02  0.54367113512E+02  0.40000066874E+02 0.  0.
        -12    1    3    3    0    0  0.11063564055E+02  0.33313756483E+02 -0.11116153161E+02  0.36820886488E+02  0.00000000000E+00 0.  1.
         11    1    4    4    0    0 -0.15984876062E+02 -0.23339944400E+02  0.68595638932E+00  0.28297346232E+02  0.51100000000E-03 0. -1.
        -11    1    4    4    0    0 -0.29013058638E+01  0.29568245280E+01 -0.35701638547E+01  0.54686796593E+01  0.51100000000E-03 0.  1.
        -12    1    4    4    0    0  0.78226178706E+01 -0.12930636611E+02  0.14000360627E+02  0.20601087622E+02  0.00000000000E+00 0.  1.
</event>
<event>
 8    1  0.1253703E-006  0.9118800E+02  0.7816164E-02  0.1184000E+00
        -11   -1    0    0    0    0  0.00000000000E+00  0.00000000000E+00  0.45593999997E+02  0.45594000000E+02  0.51100000000E-03 0. -1.
         11   -1    0    0    0    0 -0.00000000000E+00 -0.00000000000E+00 -0.45593999997E+02  0.45594000000E+02  0.51100000000E-03 0.  1.
         23    2    1    2    0    0  0.17763568394E-14  0.00000000000E+00  0.35527136788E-14  0.91188000000E+02  0.91188000000E+02 0.  0.
    9900012    2    3    3    0    0  0.13256305139E+02 -0.18252519723E+02  0.29101489435E+02  0.54367071311E+02  0.39999970668E+02 0.  0.
        -12    1    3    3    0    0 -0.13256305139E+02  0.18252519723E+02 -0.29101489435E+02  0.36820928689E+02  0.00000000000E+00 0.  1.
         11    1    4    4    0    0  0.80782045857E+01 -0.16563105429E+02  0.23067528980E+02  0.29524646387E+02  0.51100000000E-03 0. -1.
        -11    1    4    4    0    0  0.27543044922E+01  0.10674692113E+02  0.52718138248E+01  0.12219953609E+02  0.51100000000E-03 0.  1.
        -12    1    4    4    0    0  0.24237960615E+01 -0.12364106408E+02  0.76214662982E+00  0.12622471315E+02  0.00000000000E+00 0.  1.
</event>
<event>
 8    1  0.1253703E-006  0.9118800E+02  0.7816164E-02  0.1184000E+00
        -11   -1    0    0    0    0  0.00000000000E+00  0.00000000000E+00  0.45593999997E+02  0.45594000000E+02  0.51100000000E-03 0. -1.
         11   -1    0    0    0    0 -0.00000000000E+00 -0.00000000000E+00 -0.45593999997E+02  0.45594000000E+02  0.51100000000E-03 0.  1.
         23    2    1    2    0    0  0.00000000000E+00  0.00000000000E+00  0.00000000000E+00  0.91188000000E+02  0.91188000000E+02 0.  0.
    9900012    2    3    3    0    0  0.23945351953E+02 -0.17691897395E+02 -0.21665605534E+02  0.54367060621E+02  0.39999946298E+02 0.  0.
         12    1    3    3    0    0 -0.23945351953E+02  0.17691897395E+02  0.21665605534E+02  0.36820939379E+02  0.00000000000E+00 0. -1.
         11    1    4    4    0    0 -0.27724375823E+00 -0.11491509623E+01  0.54883280804E+00  0.13033149074E+01  0.51100000000E-03 0. -1.
        -11    1    4    4    0    0  0.24104239694E+02 -0.88537337577E+01 -0.31736604161E+02  0.40824196460E+02  0.51100000000E-03 0.  1.
        -12    1    4    4    0    0  0.11835601714E+00 -0.76890126745E+01  0.95221658183E+01  0.12239549253E+02  0.00000000000E+00 0.  1.
</event>
<event>
 8    1  0.1253703E-006  0.9118800E+02  0.7816164E-02  0.1184000E+00
        -11   -1    0    0    0    0  0.00000000000E+00  0.00000000000E+00  0.45593999997E+02  0.45594000000E+02  0.51100000000E-03 0.  1.
         11   -1    0    0    0    0 -0.00000000000E+00 -0.00000000000E+00 -0.45593999997E+02  0.45594000000E+02  0.51100000000E-03 0. -1.
         23    2    1    2    0    0  0.00000000000E+00 -0.88817841970E-15 -0.35527136788E-14  0.91188000000E+02  0.91188000000E+02 0.  0.
    9900012    2    3    3    0    0  0.25944742642E+02  0.72938326459E+01  0.25088811285E+02  0.54367107600E+02  0.40000053396E+02 0.  0.
         12    1    3    3    0    0 -0.25944742642E+02 -0.72938326459E+01 -0.25088811285E+02  0.36820892400E+02  0.00000000000E+00 0. -1.
         11    1    4    4    0    0 -0.35898682944E+00  0.27960348516E+01 -0.94590694979E+01  0.98701914096E+01  0.51100000000E-03 0. -1.
        -11    1    4    4    0    0  0.19347997858E+02  0.29852953388E+01  0.18473954910E+02  0.26917355362E+02  0.51100000000E-03 0.  1.
        -12    1    4    4    0    0  0.69557316131E+01  0.15125024555E+01  0.16073925873E+02  0.17579560828E+02  0.00000000000E+00 0.  1.
</event>
<event>
 8    1  0.1253703E-006  0.9118800E+02  0.7816164E-02  0.1184000E+00
        -11   -1    0    0    0    0  0.00000000000E+00  0.00000000000E+00  0.45593999997E+02  0.45594000000E+02  0.51100000000E-03 0.  1.
         11   -1    0    0    0    0 -0.00000000000E+00 -0.00000000000E+00 -0.45593999997E+02  0.45594000000E+02  0.51100000000E-03 0. -1.
         23    2    1    2    0    0  0.17763568394E-14  0.00000000000E+00  0.00000000000E+00  0.91188000000E+02  0.91188000000E+02 0.  0.
    9900012    2    3    3    0    0 -0.48099234959E+01  0.33263238302E+02  0.15039989631E+02  0.54367086452E+02  0.40000005185E+02 0.  0.
        -12    1    3    3    0    0  0.48099234959E+01 -0.33263238302E+02 -0.15039989631E+02  0.36820913548E+02  0.00000000000E+00 0.  1.
         11    1    4    4    0    0 -0.42002531983E+01  0.81921766315E+01 -0.93577017288E+01  0.13127089045E+02  0.51100000000E-03 0. -1.
        -11    1    4    4    0    0  0.94758137705E+01  0.13362538561E+02  0.18472317660E+02  0.24689572767E+02  0.51100000000E-03 0.  1.
        -12    1    4    4    0    0 -0.10085484068E+02  0.11708523109E+02  0.59253737002E+01  0.16550424640E+02  0.00000000000E+00 0.  1.
</event>
<event>
 8    1  0.1253703E-006  0.9118800E+02  0.7816164E-02  0.1184000E+00
        -11   -1    0    0    0    0  0.00000000000E+00  0.00000000000E+00  0.45593999997E+02  0.45594000000E+02  0.51100000000E-03 0. -1.
         11   -1    0    0    0    0 -0.00000000000E+00 -0.00000000000E+00 -0.45593999997E+02  0.45594000000E+02  0.51100000000E-03 0.  1.
         23    2    1    2    0    0  0.17763568394E-14  0.88817841970E-15  0.00000000000E+00  0.91188000000E+02  0.91188000000E+02 0.  0.
    9900012    2    3    3    0    0  0.14996079877E+02  0.30507797781E+01  0.33490136205E+02  0.54367097078E+02  0.40000029409E+02 0.  0.
        -12    1    3    3    0    0 -0.14996079877E+02 -0.30507797781E+01 -0.33490136205E+02  0.36820902922E+02  0.00000000000E+00 0.  1.
         11    1    4    4    0    0  0.37949754304E+01 -0.37594180760E+01 -0.25332320384E+01  0.59120493578E+01  0.51100000000E-03 0.  1.
        -11    1    4    4    0    0  0.19987305909E+02  0.10833705618E+02  0.24761122332E+02  0.33615097120E+02  0.51100000000E-03 0. -1.
        -12    1    4    4    0    0 -0.87862014625E+01 -0.40235077640E+01  0.11262245911E+02  0.14839950601E+02  0.00000000000E+00 0.  1.
</event>
<event>
 8    1  0.1253703E-006  0.9118800E+02  0.7816164E-02  0.1184000E+00
        -11   -1    0    0    0    0  0.00000000000E+00  0.00000000000E+00  0.45593999997E+02  0.45594000000E+02  0.51100000000E-03 0.  1.
         11   -1    0    0    0    0 -0.00000000000E+00 -0.00000000000E+00 -0.45593999997E+02  0.45594000000E+02  0.51100000000E-03 0. -1.
         23    2    1    2    0    0  0.00000000000E+00  0.00000000000E+00  0.00000000000E+00  0.91188000000E+02  0.91188000000E+02 0.  0.
    9900012    2    3    3    0    0 -0.66287040461E+01 -0.46103667848E+01  0.35924704338E+02  0.54367087722E+02  0.40000008079E+02 0.  0.
         12    1    3    3    0    0  0.66287040461E+01  0.46103667848E+01 -0.35924704338E+02  0.36820912278E+02  0.00000000000E+00 0. -1.
         11    1    4    4    0    0 -0.12993812247E+02  0.77268065193E+01  0.14219528142E+02  0.20754220692E+02  0.51100000000E-03 0. -1.
        -11    1    4    4    0    0  0.92678713958E+01 -0.10466845140E+01  0.41023550590E+00  0.93358064522E+01  0.51100000000E-03 0.  1.
        -12    1    4    4    0    0 -0.29027631954E+01 -0.11290488790E+02  0.21294940690E+02  0.24277060577E+02  0.00000000000E+00 0.  1.
</event>
<event>
 8    1  0.1253703E-006  0.9118800E+02  0.7816164E-02  0.1184000E+00
        -11   -1    0    0    0    0  0.00000000000E+00  0.00000000000E+00  0.45593999997E+02  0.45594000000E+02  0.51100000000E-03 0.  1.
         11   -1    0    0    0    0 -0.00000000000E+00 -0.00000000000E+00 -0.45593999997E+02  0.45594000000E+02  0.51100000000E-03 0. -1.
         23    2    1    2    0    0  0.88817841970E-15  0.00000000000E+00  0.71054273576E-14  0.91188000000E+02  0.91188000000E+02 0.  0.
    9900012    2    3    3    0    0  0.75203129939E+01 -0.22633561142E+02 -0.28052422783E+02  0.54367195806E+02  0.40000254478E+02 0.  0.
        -12    1    3    3    0    0 -0.75203129939E+01  0.22633561142E+02  0.28052422783E+02  0.36820804194E+02  0.00000000000E+00 0.  1.
         11    1    4    4    0    0 -0.23810920824E+01  0.44329857693E+00 -0.91082704664E+01  0.94247920021E+01  0.51100000000E-03 0. -1.
        -11    1    4    4    0    0  0.14605594543E+02  0.16161901866E+01 -0.25041185829E+01  0.14906578172E+02  0.51100000000E-03 0.  1.
        -12    1    4    4    0    0 -0.47041894668E+01 -0.24693049906E+02 -0.16440033734E+02  0.30035825631E+02  0.00000000000E+00 0.  1.
</event>
<event>
 8    1  0.1253703E-006  0.9118800E+02  0.7816164E-02  0.1184000E+00
        -11   -1    0    0    0    0  0.00000000000E+00  0.00000000000E+00  0.45593999997E+02  0.45594000000E+02  0.51100000000E-03 0.  1.
         11   -1    0    0    0    0 -0.00000000000E+00 -0.00000000000E+00 -0.45593999997E+02  0.45594000000E+02  0.51100000000E-03 0. -1.
         23    2    1    2    0    0  0.35527136788E-14  0.00000000000E+00  0.00000000000E+00  0.91188000000E+02  0.91188000000E+02 0.  0.
    9900012    2    3    3    0    0  0.23535125492E+02  0.18443445955E+02  0.21487596315E+02  0.54367087111E+02  0.40000006686E+02 0.  0.
         12    1    3    3    0    0 -0.23535125492E+02 -0.18443445955E+02 -0.21487596315E+02  0.36820912889E+02  0.00000000000E+00 0. -1.
         11    1    4    4    0    0  0.24039731200E+01 -0.58525723544E+01  0.16361996700E+01  0.65352000388E+01  0.51100000000E-03 0. -1.
        -11    1    4    4    0    0 -0.20871396478E+01 -0.65792336979E+00  0.12850269769E+02  0.13035277076E+02  0.51100000000E-03 0.  1.
        -12    1    4    4    0    0  0.23218292019E+02  0.24953941680E+02  0.70011268765E+01  0.34796609996E+02  0.00000000000E+00 0.  1.
</event>
<event>
 8    1  0.1253703E-006  0.9118800E+02  0.7816164E-02  0.1184000E+00
        -11   -1    0    0    0    0  0.00000000000E+00  0.00000000000E+00  0.45593999997E+02  0.45594000000E+02  0.51100000000E-03 0.  1.
         11   -1    0    0    0    0 -0.00000000000E+00 -0.00000000000E+00 -0.45593999997E+02  0.45594000000E+02  0.51100000000E-03 0. -1.
         23    2    1    2    0    0  0.00000000000E+00  0.17763568394E-14  0.35527136788E-14  0.91188000000E+02  0.91188000000E+02 0.  0.
    9900012    2    3    3    0    0  0.27519653190E+02  0.12533501044E+02  0.21008356223E+02  0.54367204363E+02  0.40000273986E+02 0.  0.
         12    1    3    3    0    0 -0.27519653190E+02 -0.12533501044E+02 -0.21008356223E+02  0.36820795637E+02  0.00000000000E+00 0. -1.
         11    1    4    4    0    0  0.26523179100E+01 -0.33931112342E+01  0.20517131012E+01  0.47704843627E+01  0.51100000000E-03 0. -1.
        -11    1    4    4    0    0 -0.53634770146E+01 -0.25301434931E+01 -0.42107643386E+01  0.72731731974E+01  0.51100000000E-03 0.  1.
        -12    1    4    4    0    0  0.30230812295E+02  0.18456755771E+02  0.23167407460E+02  0.42323546803E+02  0.00000000000E+00 0.  1.
</event>
<event>
 8    1  0.1253703E-006  0.9118800E+02  0.7816164E-02  0.1184000E+00
        -11   -1    0    0    0    0  0.00000000000E+00  0.00000000000E+00  0.45593999997E+02  0.45594000000E+02  0.51100000000E-03 0. -1.
         11   -1    0    0    0    0 -0.00000000000E+00 -0.00000000000E+00 -0.45593999997E+02  0.45594000000E+02  0.51100000000E-03 0.  1.
         23    2    1    2    0    0 -0.17763568394E-14 -0.35527136788E-14  0.00000000000E+00  0.91188000000E+02  0.91188000000E+02 0.  0.
    9900012    2    3    3    0    0 -0.14356687460E+02 -0.18942768460E+02  0.28121692756E+02  0.54367183127E+02  0.40000225574E+02 0.  0.
        -12    1    3    3    0    0  0.14356687460E+02  0.18942768460E+02 -0.28121692756E+02  0.36820816873E+02  0.00000000000E+00 0.  1.
         11    1    4    4    0    0 -0.46265874445E+01 -0.19507257389E+02  0.29860361951E+02  0.35966367878E+02  0.51100000000E-03 0. -1.
        -11    1    4    4    0    0 -0.20237161786E+01 -0.10513281899E+01  0.65695824180E+01  0.69541449182E+01  0.51100000000E-03 0.  1.
        -12    1    4    4    0    0 -0.77063838368E+01  0.16158171187E+01 -0.83082516132E+01  0.11446670331E+02  0.00000000000E+00 0.  1.
</event>
<event>
 8    1  0.1253703E-006  0.9118800E+02  0.7816164E-02  0.1184000E+00
        -11   -1    0    0    0    0  0.00000000000E+00  0.00000000000E+00  0.45593999997E+02  0.45594000000E+02  0.51100000000E-03 0. -1.
         11   -1    0    0    0    0 -0.00000000000E+00 -0.00000000000E+00 -0.45593999997E+02  0.45594000000E+02  0.51100000000E-03 0.  1.
         23    2    1    2    0    0  0.88817841970E-15  0.71054273576E-14  0.00000000000E+00  0.91188000000E+02  0.91188000000E+02 0.  0.
    9900012    2    3    3    0    0  0.50007940859E+01  0.32261752617E+02  0.17027951877E+02  0.54367085175E+02  0.40000002273E+02 0.  0.
        -12    1    3    3    0    0 -0.50007940859E+01 -0.32261752617E+02 -0.17027951877E+02  0.36820914825E+02  0.00000000000E+00 0.  1.
         11    1    4    4    0    0  0.47135913302E+00  0.61520737044E+01  0.49081539794E+01  0.78841718680E+01  0.51100000000E-03 0. -1.
        -11    1    4    4    0    0 -0.41583977442E+00  0.34595103226E+02  0.12127600689E+02  0.36661598283E+02  0.51100000000E-03 0.  1.
        -12    1    4    4    0    0  0.49452747273E+01 -0.84854243137E+01 -0.78027908381E-02  0.98213150237E+01  0.00000000000E+00 0.  1.
</event>
<event>
 8    1  0.1253703E-006  0.9118800E+02  0.7816164E-02  0.1184000E+00
        -11   -1    0    0    0    0  0.00000000000E+00  0.00000000000E+00  0.45593999997E+02  0.45594000000E+02  0.51100000000E-03 0. -1.
         11   -1    0    0    0    0 -0.00000000000E+00 -0.00000000000E+00 -0.45593999997E+02  0.45594000000E+02  0.51100000000E-03 0.  1.
         23    2    1    2    0    0 -0.88817841970E-15 -0.17763568394E-14  0.71054273576E-14  0.91188000000E+02  0.91188000000E+02 0.  0.
    9900012    2    3    3    0    0 -0.57496145992E+01  0.14412193916E+02 -0.33391777331E+02  0.54367079386E+02  0.39999989077E+02 0.  0.
         12    1    3    3    0    0  0.57496145992E+01 -0.14412193916E+02  0.33391777331E+02  0.36820920614E+02  0.00000000000E+00 0. -1.
         11    1    4    4    0    0 -0.39865863445E+01 -0.27448770183E+01  0.47423691939E+01  0.67762295091E+01  0.51100000000E-03 0. -1.
        -11    1    4    4    0    0  0.95550443993E+01  0.81004684350E+01 -0.25295118490E+02  0.28226928313E+02  0.51100000000E-03 0.  1.
         12    1    4    4    0    0 -0.11318072654E+02  0.90566024993E+01 -0.12839028035E+02  0.19363921564E+02  0.00000000000E+00 0. -1.
</event>
<event>
 8    1  0.1253703E-006  0.9118800E+02  0.7816164E-02  0.1184000E+00
        -11   -1    0    0    0    0  0.00000000000E+00  0.00000000000E+00  0.45593999997E+02  0.45594000000E+02  0.51100000000E-03 0.  1.
         11   -1    0    0    0    0 -0.00000000000E+00 -0.00000000000E+00 -0.45593999997E+02  0.45594000000E+02  0.51100000000E-03 0. -1.
         23    2    1    2    0    0 -0.35527136788E-14 -0.17763568394E-14 -0.35527136788E-14  0.91188000000E+02  0.91188000000E+02 0.  0.
    9900012    2    3    3    0    0 -0.24912315649E+02 -0.78733082094E+01  0.25945478368E+02  0.54367077946E+02  0.39999985794E+02 0.  0.
         12    1    3    3    0    0  0.24912315649E+02  0.78733082094E+01 -0.25945478368E+02  0.36820922054E+02  0.00000000000E+00 0. -1.
         11    1    4    4    0    0 -0.31841602001E+01  0.12764964285E+02  0.12383483864E+01  0.13214261098E+02  0.51100000000E-03 0. -1.
        -11    1    4    4    0    0 -0.45473594792E+01 -0.12861801231E+02  0.72233169162E+01  0.15436344019E+02  0.51100000000E-03 0.  1.
         12    1    4    4    0    0 -0.17180795970E+02 -0.77764712634E+01  0.17483813066E+02  0.25716472829E+02  0.00000000000E+00 0. -1.
</event>
<event>
 8    1  0.1253703E-006  0.9118800E+02  0.7816164E-02  0.1184000E+00
        -11   -1    0    0    0    0  0.00000000000E+00  0.00000000000E+00  0.45593999997E+02  0.45594000000E+02  0.51100000000E-03 0. -1.
         11   -1    0    0    0    0 -0.00000000000E+00 -0.00000000000E+00 -0.45593999997E+02  0.45594000000E+02  0.51100000000E-03 0.  1.
         23    2    1    2    0    0  0.35527136788E-14  0.17763568394E-14  0.00000000000E+00  0.91188000000E+02  0.91188000000E+02 0.  0.
    9900012    2    3    3    0    0  0.22176021815E+02  0.15351208173E+02 -0.25066776439E+02  0.54367098097E+02  0.40000031731E+02 0.  0.
        -12    1    3    3    0    0 -0.22176021815E+02 -0.15351208173E+02  0.25066776439E+02  0.36820901903E+02  0.00000000000E+00 0.  1.
         11    1    4    4    0    0  0.44590003821E+01  0.75897362640E+01  0.55179582662E+01  0.10389159959E+02  0.51100000000E-03 0. -1.
        -11    1    4    4    0    0  0.10372510572E+02  0.71299829095E+01 -0.33700962541E+02  0.35974720406E+02  0.51100000000E-03 0.  1.
         12    1    4    4    0    0  0.73445108608E+01  0.63148899938E+00  0.31162278352E+01  0.80032177318E+01  0.00000000000E+00 0. -1.
</event>
<event>
 8    1  0.1253703E-006  0.9118800E+02  0.7816164E-02  0.1184000E+00
        -11   -1    0    0    0    0  0.00000000000E+00  0.00000000000E+00  0.45593999997E+02  0.45594000000E+02  0.51100000000E-03 0.  1.
         11   -1    0    0    0    0 -0.00000000000E+00 -0.00000000000E+00 -0.45593999997E+02  0.45594000000E+02  0.51100000000E-03 0. -1.
         23    2    1    2    0    0 -0.17763568394E-14  0.00000000000E+00  0.88817841970E-15  0.91188000000E+02  0.91188000000E+02 0.  0.
    9900012    2    3    3    0    0  0.10087887489E+02  0.34867804083E+02  0.61847194873E+01  0.54367082159E+02  0.39999995397E+02 0.  0.
        -12    1    3    3    0    0 -0.10087887489E+02 -0.34867804083E+02 -0.61847194873E+01  0.36820917841E+02  0.00000000000E+00 0.  1.
         11    1    4    4    0    0 -0.60488094518E+01  0.48099488726E+01 -0.58871922121E+01  0.97150777837E+01  0.51100000000E-03 0. -1.
        -11    1    4    4    0    0  0.45137249517E+01  0.97678492669E+01  0.17595773475E+02  0.20625126343E+02  0.51100000000E-03 0.  1.
         12    1    4    4    0    0  0.11622971989E+02  0.20290005943E+02 -0.55238617753E+01  0.24026878032E+02  0.00000000000E+00 0. -1.
</event>
<event>
 8    1  0.1253703E-006  0.9118800E+02  0.7816164E-02  0.1184000E+00
        -11   -1    0    0    0    0  0.00000000000E+00  0.00000000000E+00  0.45593999997E+02  0.45594000000E+02  0.51100000000E-03 0.  1.
         11   -1    0    0    0    0 -0.00000000000E+00 -0.00000000000E+00 -0.45593999997E+02  0.45594000000E+02  0.51100000000E-03 0. -1.
         23    2    1    2    0    0  0.71054273576E-14  0.17763568394E-14  0.35527136788E-14  0.91188000000E+02  0.91188000000E+02 0.  0.
    9900012    2    3    3    0    0 -0.28112342379E+02 -0.12767999575E+02 -0.20061259955E+02  0.54367085316E+02  0.40000002595E+02 0.  0.
         12    1    3    3    0    0  0.28112342379E+02  0.12767999575E+02  0.20061259955E+02  0.36820914684E+02  0.00000000000E+00 0. -1.
         11    1    4    4    0    0 -0.26045391364E+02 -0.22400617003E+01 -0.34370357963E+01  0.26366522392E+02  0.51100000000E-03 0. -1.
        -11    1    4    4    0    0  0.24460402179E+01 -0.14637593594E+02 -0.65505282268E+01  0.16221950539E+02  0.51100000000E-03 0.  1.
        -12    1    4    4    0    0 -0.45129912330E+01  0.41096557192E+01 -0.10073695932E+02  0.11778612386E+02  0.00000000000E+00 0.  1.
</event>
<event>
 8    1  0.1253703E-006  0.9118800E+02  0.7816164E-02  0.1184000E+00
        -11   -1    0    0    0    0  0.00000000000E+00  0.00000000000E+00  0.45593999997E+02  0.45594000000E+02  0.51100000000E-03 0. -1.
         11   -1    0    0    0    0 -0.00000000000E+00 -0.00000000000E+00 -0.45593999997E+02  0.45594000000E+02  0.51100000000E-03 0.  1.
         23    2    1    2    0    0 -0.35527136788E-14 -0.17763568394E-14  0.71054273576E-14  0.91188000000E+02  0.91188000000E+02 0.  0.
    9900012    2    3    3    0    0  0.15492308670E+02 -0.42385589758E+00 -0.33400423447E+02  0.54367087896E+02  0.40000008476E+02 0.  0.
         12    1    3    3    0    0 -0.15492308670E+02  0.42385589758E+00  0.33400423447E+02  0.36820912104E+02  0.00000000000E+00 0. -1.
         11    1    4    4    0    0 -0.83507539172E+01 -0.10081786696E+02 -0.18841565842E+02  0.22943018930E+02  0.51100000000E-03 0. -1.
        -11    1    4    4    0    0  0.19034803111E+02  0.77212888357E+01 -0.16007386497E+02  0.26041859639E+02  0.51100000000E-03 0.  1.
        -12    1    4    4    0    0  0.48082594762E+01  0.19366419628E+01  0.14485288923E+01  0.53822093266E+01  0.00000000000E+00 0.  1.
</event>
<event>
 8    1  0.1253703E-006  0.9118800E+02  0.7816164E-02  0.1184000E+00
        -11   -1    0    0    0    0  0.00000000000E+00  0.00000000000E+00  0.45593999997E+02  0.45594000000E+02  0.51100000000E-03 0. -1.
         11   -1    0    0    0    0 -0.00000000000E+00 -0.00000000000E+00 -0.45593999997E+02  0.45594000000E+02  0.51100000000E-03 0.  1.
         23    2    1    2    0    0  0.00000000000E+00 -0.35527136788E-14  0.00000000000E+00  0.91188000000E+02  0.91188000000E+02 0.  0.
    9900012    2    3    3    0    0 -0.11430112896E+02  0.44393158244E+01  0.34719222444E+02  0.54367090005E+02  0.40000013283E+02 0.  0.
        -12    1    3    3    0    0  0.11430112896E+02 -0.44393158244E+01 -0.34719222444E+02  0.36820909995E+02  0.00000000000E+00 0.  1.
         11    1    4    4    0    0 -0.14229751661E+02  0.77406698616E+01  0.67989063883E+01  0.17567837960E+02  0.51100000000E-03 0. -1.
        -11    1    4    4    0    0  0.30834297208E+01 -0.11689417923E+02  0.25244921450E+02  0.27990285627E+02  0.51100000000E-03 0.  1.
        -12    1    4    4    0    0 -0.28379095554E+00  0.83880638854E+01  0.26753946057E+01  0.88089664177E+01  0.00000000000E+00 0.  1.
</event>
<event>
 8    1  0.1253703E-006  0.9118800E+02  0.7816164E-02  0.1184000E+00
        -11   -1    0    0    0    0  0.00000000000E+00  0.00000000000E+00  0.45593999997E+02  0.45594000000E+02  0.51100000000E-03 0. -1.
         11   -1    0    0    0    0 -0.00000000000E+00 -0.00000000000E+00 -0.45593999997E+02  0.45594000000E+02  0.51100000000E-03 0.  1.
         23    2    1    2    0    0  0.00000000000E+00  0.00000000000E+00 -0.17763568394E-14  0.91188000000E+02  0.91188000000E+02 0.  0.
    9900012    2    3    3    0    0  0.35100734948E+02 -0.96528698745E+01 -0.55263088045E+01  0.54367087740E+02  0.40000008120E+02 0.  0.
         12    1    3    3    0    0 -0.35100734948E+02  0.96528698745E+01  0.55263088045E+01  0.36820912260E+02  0.00000000000E+00 0. -1.
         11    1    4    4    0    0  0.24796267597E+02  0.94834230793E+01  0.54030600437E+01  0.27092125390E+02  0.51100000000E-03 0. -1.
        -11    1    4    4    0    0  0.13022652614E+02 -0.15397347516E+02 -0.74852057155E+01  0.21510371836E+02  0.51100000000E-03 0.  1.
         12    1    4    4    0    0 -0.27181852635E+01 -0.37389454378E+01 -0.34441631327E+01  0.57645905143E+01  0.00000000000E+00 0. -1.
</event>
<event>
 8    1  0.1253703E-006  0.9118800E+02  0.7816164E-02  0.1184000E+00
        -11   -1    0    0    0    0  0.00000000000E+00  0.00000000000E+00  0.45593999997E+02  0.45594000000E+02  0.51100000000E-03 0. -1.
         11   -1    0    0    0    0 -0.00000000000E+00 -0.00000000000E+00 -0.45593999997E+02  0.45594000000E+02  0.51100000000E-03 0.  1.
         23    2    1    2    0    0  0.35527136788E-14 -0.35527136788E-14  0.00000000000E+00  0.91188000000E+02  0.91188000000E+02 0.  0.
    9900012    2    3    3    0    0  0.18058271722E+02 -0.31832779246E+02  0.40438946541E+01  0.54367080728E+02  0.39999992135E+02 0.  0.
         12    1    3    3    0    0 -0.18058271722E+02  0.31832779246E+02 -0.40438946541E+01  0.36820919272E+02  0.00000000000E+00 0. -1.
         11    1    4    4    0    0  0.23755534860E+01  0.52504212114E+01  0.79299787466E+01  0.98027924820E+01  0.51100000000E-03 0. -1.
        -11    1    4    4    0    0  0.12768141601E+02 -0.38536394584E+02 -0.54335957739E+01  0.40958553573E+02  0.51100000000E-03 0.  1.
        -12    1    4    4    0    0  0.29145766344E+01  0.14531941265E+01  0.15475116814E+01  0.36057346729E+01  0.00000000000E+00 0.  1.
</event>
<event>
 8    1  0.1253703E-006  0.9118800E+02  0.7816164E-02  0.1184000E+00
        -11   -1    0    0    0    0  0.00000000000E+00  0.00000000000E+00  0.45593999997E+02  0.45594000000E+02  0.51100000000E-03 0. -1.
         11   -1    0    0    0    0 -0.00000000000E+00 -0.00000000000E+00 -0.45593999997E+02  0.45594000000E+02  0.51100000000E-03 0.  1.
         23    2    1    2    0    0 -0.88817841970E-15  0.00000000000E+00  0.35527136788E-14  0.91188000000E+02  0.91188000000E+02 0.  0.
    9900012    2    3    3    0    0 -0.28509056990E+01 -0.34892182514E+02  0.11410042270E+02  0.54367066708E+02  0.39999960174E+02 0.  0.
        -12    1    3    3    0    0  0.28509056990E+01  0.34892182514E+02 -0.11410042270E+02  0.36820933292E+02  0.00000000000E+00 0.  1.
         11    1    4    4    0    0 -0.20660029064E+01  0.48683074709E+01  0.21643709367E+01  0.57143055093E+01  0.51100000000E-03 0. -1.
        -11    1    4    4    0    0  0.94803996104E+01 -0.11168153885E+02  0.10852038190E+02  0.18231082554E+02  0.51100000000E-03 0.  1.
         12    1    4    4    0    0 -0.10265302403E+02 -0.28592336100E+02 -0.16063668560E+01  0.30421678644E+02  0.00000000000E+00 0. -1.
</event>
<event>
 8    1  0.1253703E-006  0.9118800E+02  0.7816164E-02  0.1184000E+00
        -11   -1    0    0    0    0  0.00000000000E+00  0.00000000000E+00  0.45593999997E+02  0.45594000000E+02  0.51100000000E-03 0. -1.
         11   -1    0    0    0    0 -0.00000000000E+00 -0.00000000000E+00 -0.45593999997E+02  0.45594000000E+02  0.51100000000E-03 0.  1.
         23    2    1    2    0    0  0.00000000000E+00  0.88817841970E-15  0.00000000000E+00  0.91188000000E+02  0.91188000000E+02 0.  0.
    9900012    2    3    3    0    0  0.31088751176E+02 -0.22803928252E+01  0.19597701776E+02  0.54367074482E+02  0.39999977896E+02 0.  0.
        -12    1    3    3    0    0 -0.31088751176E+02  0.22803928252E+01 -0.19597701776E+02  0.36820925518E+02  0.00000000000E+00 0.  1.
         11    1    4    4    0    0  0.15677328464E+02 -0.58285360624E+01  0.96259059849E+01  0.19297889177E+02  0.51100000000E-03 0. -1.
        -11    1    4    4    0    0  0.24422357905E+02  0.26282504306E+01  0.73653902229E+01  0.25643873330E+02  0.51100000000E-03 0.  1.
        -12    1    4    4    0    0 -0.90109351934E+01  0.91989280659E+00  0.26064055683E+01  0.94253119748E+01  0.00000000000E+00 0.  1.
</event>
<event>
 8    1  0.1253703E-006  0.9118800E+02  0.7816164E-02  0.1184000E+00
        -11   -1    0    0    0    0  0.00000000000E+00  0.00000000000E+00  0.45593999997E+02  0.45594000000E+02  0.51100000000E-03 0.  1.
         11   -1    0    0    0    0 -0.00000000000E+00 -0.00000000000E+00 -0.45593999997E+02  0.45594000000E+02  0.51100000000E-03 0. -1.
         23    2    1    2    0    0  0.00000000000E+00  0.00000000000E+00 -0.17763568394E-14  0.91188000000E+02  0.91188000000E+02 0.  0.
    9900012    2    3    3    0    0 -0.30950198107E+02 -0.12107379756E+02 -0.15851705390E+02  0.54367082423E+02  0.39999996001E+02 0.  0.
        -12    1    3    3    0    0  0.30950198107E+02  0.12107379756E+02  0.15851705390E+02  0.36820917577E+02  0.00000000000E+00 0.  1.
         11    1    4    4    0    0 -0.96258077365E+01 -0.11861021040E+02  0.41464065529E+01  0.15828224230E+02  0.51100000000E-03 0. -1.
        -11    1    4    4    0    0 -0.23606896460E+02 -0.68518002916E+01 -0.10459275948E+02  0.26713838761E+02  0.51100000000E-03 0.  1.
        -12    1    4    4    0    0  0.22825060901E+01  0.66054415754E+01 -0.95388359948E+01  0.11825019433E+02  0.00000000000E+00 0.  1.
</event>
<event>
 8    1  0.1253703E-006  0.9118800E+02  0.7816164E-02  0.1184000E+00
        -11   -1    0    0    0    0  0.00000000000E+00  0.00000000000E+00  0.45593999997E+02  0.45594000000E+02  0.51100000000E-03 0. -1.
         11   -1    0    0    0    0 -0.00000000000E+00 -0.00000000000E+00 -0.45593999997E+02  0.45594000000E+02  0.51100000000E-03 0.  1.
         23    2    1    2    0    0  0.00000000000E+00  0.00000000000E+00  0.00000000000E+00  0.91188000000E+02  0.91188000000E+02 0.  0.
    9900012    2    3    3    0    0 -0.22499536373E+02  0.24669074963E+02 -0.15523809028E+02  0.54367067865E+02  0.39999962811E+02 0.  0.
         12    1    3    3    0    0  0.22499536373E+02 -0.24669074963E+02  0.15523809028E+02  0.36820932135E+02  0.00000000000E+00 0. -1.
         11    1    4    4    0    0 -0.44095614598E+01 -0.55708851935E+01  0.24054446195E+00  0.71089279083E+01  0.51100000000E-03 0. -1.
        -11    1    4    4    0    0 -0.25241247588E+01  0.11328650647E+02 -0.19289638544E+02  0.22512211946E+02  0.51100000000E-03 0.  1.
         12    1    4    4    0    0 -0.15565850155E+02  0.18911309510E+02  0.35252850532E+01  0.24745928011E+02  0.00000000000E+00 0. -1.
</event>
<event>
 8    1  0.1253703E-006  0.9118800E+02  0.7816164E-02  0.1184000E+00
        -11   -1    0    0    0    0  0.00000000000E+00  0.00000000000E+00  0.45593999997E+02  0.45594000000E+02  0.51100000000E-03 0.  1.
         11   -1    0    0    0    0 -0.00000000000E+00 -0.00000000000E+00 -0.45593999997E+02  0.45594000000E+02  0.51100000000E-03 0. -1.
         23    2    1    2    0    0 -0.44408920985E-15 -0.35527136788E-14  0.71054273576E-14  0.91188000000E+02  0.91188000000E+02 0.  0.
    9900012    2    3    3    0    0  0.39312470288E+01  0.17708367029E+02 -0.32042771173E+02  0.54367079988E+02  0.39999990450E+02 0.  0.
        -12    1    3    3    0    0 -0.39312470288E+01 -0.17708367029E+02  0.32042771173E+02  0.36820920012E+02  0.00000000000E+00 0.  1.
         11    1    4    4    0    0  0.42480031720E+01  0.10595860016E+02 -0.37008096247E+01  0.12000573843E+02  0.51100000000E-03 0. -1.
        -11    1    4    4    0    0  0.14792271032E+02  0.42446986204E+01 -0.96639336015E+01  0.18171966366E+02  0.51100000000E-03 0.  1.
        -12    1    4    4    0    0 -0.15109027176E+02  0.28678083928E+01 -0.18678027947E+02  0.24194539780E+02  0.00000000000E+00 0.  1.
</event>
<event>
 8    1  0.1253703E-006  0.9118800E+02  0.7816164E-02  0.1184000E+00
        -11   -1    0    0    0    0  0.00000000000E+00  0.00000000000E+00  0.45593999997E+02  0.45594000000E+02  0.51100000000E-03 0.  1.
         11   -1    0    0    0    0 -0.00000000000E+00 -0.00000000000E+00 -0.45593999997E+02  0.45594000000E+02  0.51100000000E-03 0. -1.
         23    2    1    2    0    0  0.35527136788E-14  0.35527136788E-14  0.00000000000E+00  0.91188000000E+02  0.91188000000E+02 0.  0.
    9900012    2    3    3    0    0 -0.27894759131E+02 -0.23625923471E+02 -0.44133099572E+01  0.54367093553E+02  0.40000021372E+02 0.  0.
        -12    1    3    3    0    0  0.27894759131E+02  0.23625923471E+02  0.44133099572E+01  0.36820906447E+02  0.00000000000E+00 0.  1.
         11    1    4    4    0    0 -0.76109419119E+01 -0.79130490251E+01 -0.86314160205E+01  0.13965819863E+02  0.51100000000E-03 0. -1.
        -11    1    4    4    0    0 -0.11337654203E+02 -0.14768725164E+02 -0.11790674679E+02  0.22038095549E+02  0.51100000000E-03 0.  1.
        -12    1    4    4    0    0 -0.89461630158E+01 -0.94414928177E+00  0.16008780742E+02  0.18363178140E+02  0.00000000000E+00 0.  1.
</event>
<event>
 8    1  0.1253703E-006  0.9118800E+02  0.7816164E-02  0.1184000E+00
        -11   -1    0    0    0    0  0.00000000000E+00  0.00000000000E+00  0.45593999997E+02  0.45594000000E+02  0.51100000000E-03 0.  1.
         11   -1    0    0    0    0 -0.00000000000E+00 -0.00000000000E+00 -0.45593999997E+02  0.45594000000E+02  0.51100000000E-03 0. -1.
         23    2    1    2    0    0  0.00000000000E+00  0.00000000000E+00  0.00000000000E+00  0.91188000000E+02  0.91188000000E+02 0.  0.
    9900012    2    3    3    0    0  0.14623107327E+02 -0.51733747447E+01  0.33394311624E+02  0.54367093941E+02  0.40000022258E+02 0.  0.
         12    1    3    3    0    0 -0.14623107327E+02  0.51733747447E+01 -0.33394311624E+02  0.36820906059E+02  0.00000000000E+00 0. -1.
         11    1    4    4    0    0  0.17656157583E+01 -0.13305853061E+02  0.30824364639E+01  0.13771874945E+02  0.51100000000E-03 0. -1.
        -11    1    4    4    0    0  0.77278746149E+01  0.15396974013E+02  0.24576341440E+02  0.30013054054E+02  0.51100000000E-03 0.  1.
        -12    1    4    4    0    0  0.51296169535E+01 -0.72644956962E+01  0.57355337202E+01  0.10582164942E+02  0.00000000000E+00 0.  1.
</event>
<event>
 8    1  0.1253703E-006  0.9118800E+02  0.7816164E-02  0.1184000E+00
        -11   -1    0    0    0    0  0.00000000000E+00  0.00000000000E+00  0.45593999997E+02  0.45594000000E+02  0.51100000000E-03 0. -1.
         11   -1    0    0    0    0 -0.00000000000E+00 -0.00000000000E+00 -0.45593999997E+02  0.45594000000E+02  0.51100000000E-03 0.  1.
         23    2    1    2    0    0  0.00000000000E+00  0.16653345369E-15  0.35527136788E-14  0.91188000000E+02  0.91188000000E+02 0.  0.
    9900012    2    3    3    0    0  0.19014182969E+02  0.42407918831E+00 -0.31528735028E+02  0.54367080272E+02  0.39999991096E+02 0.  0.
         12    1    3    3    0    0 -0.19014182969E+02 -0.42407918831E+00  0.31528735028E+02  0.36820919728E+02  0.00000000000E+00 0. -1.
         11    1    4    4    0    0  0.37584134834E+01  0.17284037456E+02 -0.14884405355E+02  0.23117291055E+02  0.51100000000E-03 0. -1.
        -11    1    4    4    0    0  0.13879697626E+01 -0.12403978637E+01 -0.87090624559E+01  0.89057743090E+01  0.51100000000E-03 0.  1.
        -12    1    4    4    0    0  0.13867799723E+02 -0.15619560404E+02 -0.79352672177E+01  0.22344014908E+02  0.00000000000E+00 0.  1.
</event>
<event>
 8    1  0.1253703E-006  0.9118800E+02  0.7816164E-02  0.1184000E+00
        -11   -1    0    0    0    0  0.00000000000E+00  0.00000000000E+00  0.45593999997E+02  0.45594000000E+02  0.51100000000E-03 0.  1.
         11   -1    0    0    0    0 -0.00000000000E+00 -0.00000000000E+00 -0.45593999997E+02  0.45594000000E+02  0.51100000000E-03 0. -1.
         23    2    1    2    0    0  0.00000000000E+00 -0.88817841970E-15 -0.35527136788E-14  0.91188000000E+02  0.91188000000E+02 0.  0.
    9900012    2    3    3    0    0 -0.32540545137E+02 -0.74108911543E+01 -0.15555472985E+02  0.54367066751E+02  0.39999960272E+02 0.  0.
        -12    1    3    3    0    0  0.32540545137E+02  0.74108911543E+01  0.15555472985E+02  0.36820933249E+02  0.00000000000E+00 0.  1.
         11    1    4    4    0    0 -0.24062289685E+02  0.20321485090E+01 -0.17456985632E+02  0.29797143489E+02  0.51100000000E-03 0. -1.
        -11    1    4    4    0    0  0.55422471239E+01 -0.83656868465E+00 -0.42206064609E+01  0.70164000388E+01  0.51100000000E-03 0.  1.
         12    1    4    4    0    0 -0.14020502576E+02 -0.86064709787E+01  0.61221191079E+01  0.17553523224E+02  0.00000000000E+00 0. -1.
</event>
<event>
 8    1  0.1253703E-006  0.9118800E+02  0.7816164E-02  0.1184000E+00
        -11   -1    0    0    0    0  0.00000000000E+00  0.00000000000E+00  0.45593999997E+02  0.45594000000E+02  0.51100000000E-03 0. -1.
         11   -1    0    0    0    0 -0.00000000000E+00 -0.00000000000E+00 -0.45593999997E+02  0.45594000000E+02  0.51100000000E-03 0.  1.
         23    2    1    2    0    0  0.00000000000E+00  0.17763568394E-14  0.00000000000E+00  0.91188000000E+02  0.91188000000E+02 0.  0.
    9900012    2    3    3    0    0 -0.14388489789E+02  0.13554657868E+02 -0.31064816687E+02  0.54367078989E+02  0.39999988171E+02 0.  0.
         12    1    3    3    0    0  0.14388489789E+02 -0.13554657868E+02  0.31064816687E+02  0.36820921011E+02  0.00000000000E+00 0. -1.
         11    1    4    4    0    0  0.62946837398E+01  0.24343924308E+01 -0.21659971218E+02  0.22687081419E+02  0.51100000000E-03 0. -1.
        -11    1    4    4    0    0 -0.18625017881E+02  0.68545245676E+01 -0.14608866584E+02  0.24643351665E+02  0.51100000000E-03 0.  1.
         12    1    4    4    0    0 -0.20581556475E+01  0.42657408695E+01  0.52040211149E+01  0.70366459055E+01  0.00000000000E+00 0. -1.
</event>
<event>
 8    1  0.1253703E-006  0.9118800E+02  0.7816164E-02  0.1184000E+00
        -11   -1    0    0    0    0  0.00000000000E+00  0.00000000000E+00  0.45593999997E+02  0.45594000000E+02  0.51100000000E-03 0. -1.
         11   -1    0    0    0    0 -0.00000000000E+00 -0.00000000000E+00 -0.45593999997E+02  0.45594000000E+02  0.51100000000E-03 0.  1.
         23    2    1    2    0    0  0.00000000000E+00 -0.71054273576E-14  0.88817841970E-15  0.91188000000E+02  0.91188000000E+02 0.  0.
    9900012    2    3    3    0    0  0.28808365810E+02  0.21678490620E+02 -0.74766827742E+01  0.54367086357E+02  0.40000004968E+02 0.  0.
         12    1    3    3    0    0 -0.28808365810E+02 -0.21678490620E+02  0.74766827742E+01  0.36820913643E+02  0.00000000000E+00 0. -1.
         11    1    4    4    0    0 -0.32437402765E+01  0.48950803495E+01 -0.16734060545E+01  0.61060585236E+01  0.51100000000E-03 0. -1.
        -11    1    4    4    0    0  0.54976569310E+01  0.12680374693E+02 -0.14487850613E+02  0.20022835706E+02  0.51100000000E-03 0.  1.
         12    1    4    4    0    0  0.26554449155E+02  0.41030355779E+01  0.86845738930E+01  0.28238192127E+02  0.00000000000E+00 0. -1.
</event>
<event>
 8    1  0.1253703E-006  0.9118800E+02  0.7816164E-02  0.1184000E+00
        -11   -1    0    0    0    0  0.00000000000E+00  0.00000000000E+00  0.45593999997E+02  0.45594000000E+02  0.51100000000E-03 0. -1.
         11   -1    0    0    0    0 -0.00000000000E+00 -0.00000000000E+00 -0.45593999997E+02  0.45594000000E+02  0.51100000000E-03 0.  1.
         23    2    1    2    0    0 -0.17763568394E-14 -0.17763568394E-14 -0.71054273576E-14  0.91188000000E+02  0.91188000000E+02 0.  0.
    9900012    2    3    3    0    0 -0.54155191910E+01 -0.10124928368E+02 -0.34984793507E+02  0.54367111916E+02  0.40000063235E+02 0.  0.
         12    1    3    3    0    0  0.54155191910E+01  0.10124928368E+02  0.34984793507E+02  0.36820888084E+02  0.00000000000E+00 0. -1.
         11    1    4    4    0    0 -0.48501922524E+01  0.27248443978E+01  0.57108916639E+01  0.79726674165E+01  0.51100000000E-03 0. -1.
        -11    1    4    4    0    0 -0.35935208292E+01  0.36206910063E+01 -0.60495565729E+01  0.79132755735E+01  0.51100000000E-03 0.  1.
        -12    1    4    4    0    0  0.30281938905E+01 -0.16470463772E+02 -0.34646128598E+02  0.38481168926E+02  0.00000000000E+00 0.  1.
</event>
<event>
 8    1  0.1253703E-006  0.9118800E+02  0.7816164E-02  0.1184000E+00
        -11   -1    0    0    0    0  0.00000000000E+00  0.00000000000E+00  0.45593999997E+02  0.45594000000E+02  0.51100000000E-03 0. -1.
         11   -1    0    0    0    0 -0.00000000000E+00 -0.00000000000E+00 -0.45593999997E+02  0.45594000000E+02  0.51100000000E-03 0.  1.
         23    2    1    2    0    0  0.17763568394E-14  0.00000000000E+00  0.88817841970E-15  0.91188000000E+02  0.91188000000E+02 0.  0.
    9900012    2    3    3    0    0 -0.82351417449E+01 -0.35334409972E+02 -0.62802365037E+01  0.54367089390E+02  0.40000011881E+02 0.  0.
         12    1    3    3    0    0  0.82351417449E+01  0.35334409972E+02  0.62802365037E+01  0.36820910610E+02  0.00000000000E+00 0. -1.
         11    1    4    4    0    0 -0.11694417238E+02 -0.11837108226E+02 -0.41019032979E+01  0.17137740125E+02  0.51100000000E-03 0. -1.
        -11    1    4    4    0    0 -0.11746381039E+02 -0.16475388048E+02 -0.30267925875E+01  0.20459163044E+02  0.51100000000E-03 0.  1.
         12    1    4    4    0    0  0.15205656531E+02 -0.70219136980E+01  0.84845938175E+00  0.16770186220E+02  0.00000000000E+00 0. -1.
</event>
<event>
 8    1  0.1253703E-006  0.9118800E+02  0.7816164E-02  0.1184000E+00
        -11   -1    0    0    0    0  0.00000000000E+00  0.00000000000E+00  0.45593999997E+02  0.45594000000E+02  0.51100000000E-03 0. -1.
         11   -1    0    0    0    0 -0.00000000000E+00 -0.00000000000E+00 -0.45593999997E+02  0.45594000000E+02  0.51100000000E-03 0.  1.
         23    2    1    2    0    0  0.00000000000E+00 -0.17763568394E-14  0.71054273576E-14  0.91188000000E+02  0.91188000000E+02 0.  0.
    9900012    2    3    3    0    0  0.48224955602E+01 -0.12513268988E+02 -0.34291998244E+02  0.54367088716E+02  0.40000010346E+02 0.  0.
         12    1    3    3    0    0 -0.48224955602E+01  0.12513268988E+02  0.34291998244E+02  0.36820911284E+02  0.00000000000E+00 0. -1.
         11    1    4    4    0    0 -0.10807850148E+02 -0.94890400646E+01 -0.36707098903E+01  0.14843369480E+02  0.51100000000E-03 0. -1.
        -11    1    4    4    0    0  0.13628757008E+02  0.45685674983E+01 -0.10145416938E+02  0.17593871424E+02  0.51100000000E-03 0.  1.
        -12    1    4    4    0    0  0.20015886993E+01 -0.75927964217E+01 -0.20475871416E+02  0.21929847812E+02  0.00000000000E+00 0.  1.
</event>
<event>
 8    1  0.1253703E-006  0.9118800E+02  0.7816164E-02  0.1184000E+00
        -11   -1    0    0    0    0  0.00000000000E+00  0.00000000000E+00  0.45593999997E+02  0.45594000000E+02  0.51100000000E-03 0. -1.
         11   -1    0    0    0    0 -0.00000000000E+00 -0.00000000000E+00 -0.45593999997E+02  0.45594000000E+02  0.51100000000E-03 0.  1.
         23    2    1    2    0    0  0.00000000000E+00 -0.44408920985E-15  0.00000000000E+00  0.91188000000E+02  0.91188000000E+02 0.  0.
    9900012    2    3    3    0    0 -0.70296791885E+01 -0.35561551718E+01  0.35968289683E+02  0.54367075354E+02  0.39999979884E+02 0.  0.
        -12    1    3    3    0    0  0.70296791885E+01  0.35561551718E+01 -0.35968289683E+02  0.36820924646E+02  0.00000000000E+00 0.  1.
         11    1    4    4    0    0  0.85215997363E+01  0.21812227964E+01  0.17807571797E+02  0.19861646672E+02  0.51100000000E-03 0. -1.
        -11    1    4    4    0    0  0.44244344297E+01 -0.19755482136E+01 -0.25591005804E+01  0.54797268918E+01  0.51100000000E-03 0.  1.
        -12    1    4    4    0    0 -0.19975713354E+02 -0.37618297546E+01  0.20719818466E+02  0.29025701790E+02  0.00000000000E+00 0.  1.
</event>
<event>
 8    1  0.1253703E-006  0.9118800E+02  0.7816164E-02  0.1184000E+00
        -11   -1    0    0    0    0  0.00000000000E+00  0.00000000000E+00  0.45593999997E+02  0.45594000000E+02  0.51100000000E-03 0. -1.
         11   -1    0    0    0    0 -0.00000000000E+00 -0.00000000000E+00 -0.45593999997E+02  0.45594000000E+02  0.51100000000E-03 0.  1.
         23    2    1    2    0    0  0.00000000000E+00  0.00000000000E+00  0.17763568394E-14  0.91188000000E+02  0.91188000000E+02 0.  0.
    9900012    2    3    3    0    0  0.14155008438E+02 -0.32736062594E+02 -0.91523722387E+01  0.54367082363E+02  0.39999995862E+02 0.  0.
         12    1    3    3    0    0 -0.14155008438E+02  0.32736062594E+02  0.91523722387E+01  0.36820917637E+02  0.00000000000E+00 0. -1.
         11    1    4    4    0    0  0.11245801286E+02 -0.24796618535E+02  0.10574511543E+01  0.27248092420E+02  0.51100000000E-03 0. -1.
        -11    1    4    4    0    0  0.52745286027E+00  0.56497896405E+01  0.42830935918E+01  0.71093755337E+01  0.51100000000E-03 0.  1.
        -12    1    4    4    0    0  0.23817542923E+01 -0.13589233700E+02 -0.14492916985E+02  0.20009614409E+02  0.00000000000E+00 0.  1.
</event>
<event>
 8    1  0.1253703E-006  0.9118800E+02  0.7816164E-02  0.1184000E+00
        -11   -1    0    0    0    0  0.00000000000E+00  0.00000000000E+00  0.45593999997E+02  0.45594000000E+02  0.51100000000E-03 0.  1.
         11   -1    0    0    0    0 -0.00000000000E+00 -0.00000000000E+00 -0.45593999997E+02  0.45594000000E+02  0.51100000000E-03 0. -1.
         23    2    1    2    0    0 -0.15543122345E-14  0.35527136788E-14  0.35527136788E-14  0.91188000000E+02  0.91188000000E+02 0.  0.
    9900012    2    3    3    0    0 -0.14158533864E+01  0.23107472897E+02  0.28632506061E+02  0.54367077308E+02  0.39999984340E+02 0.  0.
         12    1    3    3    0    0  0.14158533864E+01 -0.23107472897E+02 -0.28632506061E+02  0.36820922692E+02  0.00000000000E+00 0. -1.
         11    1    4    4    0    0  0.11426651554E+01  0.10123009627E+02  0.13501779232E+01  0.10276380115E+02  0.51100000000E-03 0. -1.
        -11    1    4    4    0    0 -0.16627723401E+02  0.35996767748E+01  0.92354931042E+01  0.19358026540E+02  0.51100000000E-03 0.  1.
         12    1    4    4    0    0  0.14069204859E+02  0.93847864949E+01  0.18046835034E+02  0.24732670654E+02  0.00000000000E+00 0. -1.
</event>
<event>
 8    1  0.1253703E-006  0.9118800E+02  0.7816164E-02  0.1184000E+00
        -11   -1    0    0    0    0  0.00000000000E+00  0.00000000000E+00  0.45593999997E+02  0.45594000000E+02  0.51100000000E-03 0.  1.
         11   -1    0    0    0    0 -0.00000000000E+00 -0.00000000000E+00 -0.45593999997E+02  0.45594000000E+02  0.51100000000E-03 0. -1.
         23    2    1    2    0    0  0.00000000000E+00 -0.71054273576E-14 -0.44408920985E-15  0.91188000000E+02  0.91188000000E+02 0.  0.
    9900012    2    3    3    0    0  0.10189639587E+02  0.35265995372E+02  0.28741846104E+01  0.54367080380E+02  0.39999991343E+02 0.  0.
        -12    1    3    3    0    0 -0.10189639587E+02 -0.35265995372E+02 -0.28741846104E+01  0.36820919620E+02  0.00000000000E+00 0.  1.
         11    1    4    4    0    0 -0.13334663411E+01  0.20841137735E+02  0.13998073581E+02  0.25141145933E+02  0.51100000000E-03 0. -1.
        -11    1    4    4    0    0  0.10564099463E+02  0.13569480778E+01  0.18226973247E+01  0.10805726785E+02  0.51100000000E-03 0.  1.
         12    1    4    4    0    0  0.95900646493E+00  0.13067909559E+02 -0.12946586296E+02  0.18420207663E+02  0.00000000000E+00 0. -1.
</event>
<event>
 8    1  0.1253703E-006  0.9118800E+02  0.7816164E-02  0.1184000E+00
        -11   -1    0    0    0    0  0.00000000000E+00  0.00000000000E+00  0.45593999997E+02  0.45594000000E+02  0.51100000000E-03 0.  1.
         11   -1    0    0    0    0 -0.00000000000E+00 -0.00000000000E+00 -0.45593999997E+02  0.45594000000E+02  0.51100000000E-03 0. -1.
         23    2    1    2    0    0  0.00000000000E+00  0.88817841970E-15  0.35527136788E-14  0.91188000000E+02  0.91188000000E+02 0.  0.
    9900012    2    3    3    0    0  0.21006336314E+02 -0.51054602871E+01  0.29806779508E+02  0.54367136420E+02  0.40000119097E+02 0.  0.
         12    1    3    3    0    0 -0.21006336314E+02  0.51054602871E+01 -0.29806779508E+02  0.36820863580E+02  0.00000000000E+00 0. -1.
         11    1    4    4    0    0  0.21196682870E+01  0.12585054211E+01 -0.33019840995E+01  0.41206709158E+01  0.51100000000E-03 0. -1.
        -11    1    4    4    0    0  0.34346308936E+01  0.22937268759E+01 -0.60171088705E+01  0.72981827722E+01  0.51100000000E-03 0.  1.
        -12    1    4    4    0    0  0.15452037134E+02 -0.86576925841E+01  0.39125872478E+02  0.42948282732E+02  0.00000000000E+00 0.  1.
</event>
<event>
 8    1  0.1253703E-006  0.9118800E+02  0.7816164E-02  0.1184000E+00
        -11   -1    0    0    0    0  0.00000000000E+00  0.00000000000E+00  0.45593999997E+02  0.45594000000E+02  0.51100000000E-03 0. -1.
         11   -1    0    0    0    0 -0.00000000000E+00 -0.00000000000E+00 -0.45593999997E+02  0.45594000000E+02  0.51100000000E-03 0.  1.
         23    2    1    2    0    0  0.00000000000E+00  0.22204460493E-15  0.71054273576E-14  0.91188000000E+02  0.91188000000E+02 0.  0.
    9900012    2    3    3    0    0  0.76134735421E+01 -0.11896996799E+01  0.36005548095E+02  0.54367083956E+02  0.39999999495E+02 0.  0.
        -12    1    3    3    0    0 -0.76134735421E+01  0.11896996799E+01 -0.36005548095E+02  0.36820916044E+02  0.00000000000E+00 0.  1.
         11    1    4    4    0    0  0.17410462005E+02  0.12232709342E+02  0.28828407601E+02  0.35830719364E+02  0.51100000000E-03 0. -1.
        -11    1    4    4    0    0 -0.61572388838E+01 -0.10047571686E+02  0.66855049864E+01  0.13548478314E+02  0.51100000000E-03 0.  1.
         12    1    4    4    0    0 -0.36397495796E+01 -0.33748373359E+01  0.49163550724E+00  0.49878862776E+01  0.00000000000E+00 0. -1.
</event>
<event>
 8    1  0.1253703E-006  0.9118800E+02  0.7816164E-02  0.1184000E+00
        -11   -1    0    0    0    0  0.00000000000E+00  0.00000000000E+00  0.45593999997E+02  0.45594000000E+02  0.51100000000E-03 0.  1.
         11   -1    0    0    0    0 -0.00000000000E+00 -0.00000000000E+00 -0.45593999997E+02  0.45594000000E+02  0.51100000000E-03 0. -1.
         23    2    1    2    0    0  0.00000000000E+00 -0.88817841970E-15  0.00000000000E+00  0.91188000000E+02  0.91188000000E+02 0.  0.
    9900012    2    3    3    0    0 -0.15333079365E+02 -0.11217380125E+01  0.33457724119E+02  0.54367069509E+02  0.39999966560E+02 0.  0.
         12    1    3    3    0    0  0.15333079365E+02  0.11217380125E+01 -0.33457724119E+02  0.36820930491E+02  0.00000000000E+00 0. -1.
         11    1    4    4    0    0  0.32181787058E+01 -0.77269913871E+01  0.13341546976E+02  0.15749918922E+02  0.51100000000E-03 0. -1.
        -11    1    4    4    0    0 -0.44999636857E+01  0.14804114123E+02  0.15032829764E+02  0.21573072084E+02  0.51100000000E-03 0.  1.
        -12    1    4    4    0    0 -0.14051294385E+02 -0.81988607483E+01  0.50833473787E+01  0.17044078504E+02  0.00000000000E+00 0.  1.
</event>
<event>
 8    1  0.1253703E-006  0.9118800E+02  0.7816164E-02  0.1184000E+00
        -11   -1    0    0    0    0  0.00000000000E+00  0.00000000000E+00  0.45593999997E+02  0.45594000000E+02  0.51100000000E-03 0.  1.
         11   -1    0    0    0    0 -0.00000000000E+00 -0.00000000000E+00 -0.45593999997E+02  0.45594000000E+02  0.51100000000E-03 0. -1.
         23    2    1    2    0    0  0.00000000000E+00  0.88817841970E-15  0.00000000000E+00  0.91188000000E+02  0.91188000000E+02 0.  0.
    9900012    2    3    3    0    0  0.34284406608E+02  0.78451828838E+01  0.10900121969E+02  0.54367080812E+02  0.39999992327E+02 0.  0.
         12    1    3    3    0    0 -0.34284406608E+02 -0.78451828838E+01 -0.10900121969E+02  0.36820919188E+02  0.00000000000E+00 0. -1.
         11    1    4    4    0    0  0.78977808027E+00  0.12118065027E+02  0.73282562012E+01  0.14183602808E+02  0.51100000000E-03 0. -1.
        -11    1    4    4    0    0  0.26733073459E+02 -0.24369464568E+01  0.11845916849E+02  0.29341466747E+02  0.51100000000E-03 0.  1.
         12    1    4    4    0    0  0.67615550689E+01 -0.18359356863E+01 -0.82740510817E+01  0.10842011257E+02  0.00000000000E+00 0. -1.
</event>
<event>
 8    1  0.1253703E-006  0.9118800E+02  0.7816164E-02  0.1184000E+00
        -11   -1    0    0    0    0  0.00000000000E+00  0.00000000000E+00  0.45593999997E+02  0.45594000000E+02  0.51100000000E-03 0.  1.
         11   -1    0    0    0    0 -0.00000000000E+00 -0.00000000000E+00 -0.45593999997E+02  0.45594000000E+02  0.51100000000E-03 0. -1.
         23    2    1    2    0    0 -0.17763568394E-14  0.00000000000E+00  0.00000000000E+00  0.91188000000E+02  0.91188000000E+02 0.  0.
    9900012    2    3    3    0    0 -0.14032673020E+02  0.32711690896E+02 -0.94235005240E+01  0.54367177148E+02  0.40000211943E+02 0.  0.
        -12    1    3    3    0    0  0.14032673020E+02 -0.32711690896E+02  0.94235005240E+01  0.36820822852E+02  0.00000000000E+00 0.  1.
         11    1    4    4    0    0 -0.36744107491E+01  0.33805425927E+02 -0.70074473670E+01  0.34719050034E+02  0.51100000000E-03 0. -1.
        -11    1    4    4    0    0  0.25066338490E+01 -0.30593966947E+01  0.35655912687E+01  0.53250880504E+01  0.51100000000E-03 0.  1.
         12    1    4    4    0    0 -0.12864896120E+02  0.19656616644E+01 -0.59816444257E+01  0.14323039063E+02  0.00000000000E+00 0. -1.
</event>
<event>
 8    1  0.1253703E-006  0.9118800E+02  0.7816164E-02  0.1184000E+00
        -11   -1    0    0    0    0  0.00000000000E+00  0.00000000000E+00  0.45593999997E+02  0.45594000000E+02  0.51100000000E-03 0.  1.
         11   -1    0    0    0    0 -0.00000000000E+00 -0.00000000000E+00 -0.45593999997E+02  0.45594000000E+02  0.51100000000E-03 0. -1.
         23    2    1    2    0    0  0.00000000000E+00 -0.88817841970E-15  0.88817841970E-15  0.91188000000E+02  0.91188000000E+02 0.  0.
    9900012    2    3    3    0    0 -0.36280873147E+02  0.14226434215E+01  0.61199318116E+01  0.54367092407E+02  0.40000018759E+02 0.  0.
         12    1    3    3    0    0  0.36280873147E+02 -0.14226434215E+01 -0.61199318116E+01  0.36820907593E+02  0.00000000000E+00 0. -1.
         11    1    4    4    0    0 -0.14470579301E+02 -0.47828133766E+01 -0.80535811865E+01  0.17237550269E+02  0.51100000000E-03 0. -1.
        -11    1    4    4    0    0 -0.50867522412E+01  0.59828812409E+01  0.18290651579E+02  0.19905221721E+02  0.51100000000E-03 0.  1.
        -12    1    4    4    0    0 -0.16723541605E+02  0.22257555730E+00 -0.41171385813E+01  0.17224320416E+02  0.00000000000E+00 0.  1.
</event>
<event>
 8    1  0.1253703E-006  0.9118800E+02  0.7816164E-02  0.1184000E+00
        -11   -1    0    0    0    0  0.00000000000E+00  0.00000000000E+00  0.45593999997E+02  0.45594000000E+02  0.51100000000E-03 0. -1.
         11   -1    0    0    0    0 -0.00000000000E+00 -0.00000000000E+00 -0.45593999997E+02  0.45594000000E+02  0.51100000000E-03 0.  1.
         23    2    1    2    0    0  0.17763568394E-14  0.13322676296E-14  0.00000000000E+00  0.91188000000E+02  0.91188000000E+02 0.  0.
    9900012    2    3    3    0    0 -0.13419030942E+02  0.27467028248E+01  0.34178431564E+02  0.54367082684E+02  0.39999996594E+02 0.  0.
        -12    1    3    3    0    0  0.13419030942E+02 -0.27467028248E+01 -0.34178431564E+02  0.36820917316E+02  0.00000000000E+00 0.  1.
         11    1    4    4    0    0 -0.14566908645E+02  0.73018947736E+01  0.20590924931E+02  0.26258306963E+02  0.51100000000E-03 0. -1.
        -11    1    4    4    0    0 -0.16877054814E+01  0.98069018108E+01  0.50002618673E+01  0.11136709205E+02  0.51100000000E-03 0.  1.
        -12    1    4    4    0    0  0.28355831848E+01 -0.14362093760E+02  0.85872447653E+01  0.16972066516E+02  0.00000000000E+00 0.  1.
</event>
<event>
 8    1  0.1253703E-006  0.9118800E+02  0.7816164E-02  0.1184000E+00
        -11   -1    0    0    0    0  0.00000000000E+00  0.00000000000E+00  0.45593999997E+02  0.45594000000E+02  0.51100000000E-03 0. -1.
         11   -1    0    0    0    0 -0.00000000000E+00 -0.00000000000E+00 -0.45593999997E+02  0.45594000000E+02  0.51100000000E-03 0.  1.
         23    2    1    2    0    0  0.00000000000E+00  0.00000000000E+00 -0.88817841970E-15  0.91188000000E+02  0.91188000000E+02 0.  0.
    9900012    2    3    3    0    0 -0.74391426262E+01  0.35559493564E+02  0.59967795345E+01  0.54367084879E+02  0.40000001599E+02 0.  0.
        -12    1    3    3    0    0  0.74391426262E+01 -0.35559493564E+02 -0.59967795345E+01  0.36820915121E+02  0.00000000000E+00 0.  1.
         11    1    4    4    0    0 -0.10414064677E+02  0.22417047595E+02  0.67076211028E+01  0.25611890737E+02  0.51100000000E-03 0. -1.
        -11    1    4    4    0    0  0.85245389024E+01 -0.78666528541E+00 -0.83228443223E+01  0.11939696129E+02  0.51100000000E-03 0.  1.
        -12    1    4    4    0    0 -0.55496168512E+01  0.13929111254E+02  0.76120027539E+01  0.16815498014E+02  0.00000000000E+00 0.  1.
</event>
<event>
 8    1  0.1253703E-006  0.9118800E+02  0.7816164E-02  0.1184000E+00
        -11   -1    0    0    0    0  0.00000000000E+00  0.00000000000E+00  0.45593999997E+02  0.45594000000E+02  0.51100000000E-03 0. -1.
         11   -1    0    0    0    0 -0.00000000000E+00 -0.00000000000E+00 -0.45593999997E+02  0.45594000000E+02  0.51100000000E-03 0.  1.
         23    2    1    2    0    0  0.88817841970E-15 -0.88817841970E-15  0.00000000000E+00  0.91188000000E+02  0.91188000000E+02 0.  0.
    9900012    2    3    3    0    0 -0.65731774392E+01 -0.58631288097E+01 -0.35751880480E+02  0.54367083405E+02  0.39999998237E+02 0.  0.
         12    1    3    3    0    0  0.65731774392E+01  0.58631288097E+01  0.35751880480E+02  0.36820916595E+02  0.00000000000E+00 0. -1.
         11    1    4    4    0    0  0.47589041860E+01  0.29872073018E+01 -0.14315054367E+02  0.15378275531E+02  0.51100000000E-03 0. -1.
        -11    1    4    4    0    0  0.20141951647E+01  0.43406799985E+00  0.64156966547E+01  0.67384390638E+01  0.51100000000E-03 0.  1.
        -12    1    4    4    0    0 -0.13346276790E+02 -0.92844041114E+01 -0.27852522768E+02  0.32250368810E+02  0.00000000000E+00 0.  1.
</event>
<event>
 8    1  0.1253703E-006  0.9118800E+02  0.7816164E-02  0.1184000E+00
        -11   -1    0    0    0    0  0.00000000000E+00  0.00000000000E+00  0.45593999997E+02  0.45594000000E+02  0.51100000000E-03 0.  1.
         11   -1    0    0    0    0 -0.00000000000E+00 -0.00000000000E+00 -0.45593999997E+02  0.45594000000E+02  0.51100000000E-03 0. -1.
         23    2    1    2    0    0 -0.71054273576E-14  0.00000000000E+00  0.13322676296E-14  0.91188000000E+02  0.91188000000E+02 0.  0.
    9900012    2    3    3    0    0 -0.27444344865E+02 -0.24258033471E+02  0.37597055276E+01  0.54367086939E+02  0.40000006296E+02 0.  0.
        -12    1    3    3    0    0  0.27444344865E+02  0.24258033471E+02 -0.37597055276E+01  0.36820913061E+02  0.00000000000E+00 0.  1.
         11    1    4    4    0    0  0.36264745818E+01 -0.57265219278E+01 -0.33861820390E+00  0.67866806195E+01  0.51100000000E-03 0. -1.
        -11    1    4    4    0    0  0.69713684680E-01 -0.13096857756E+01 -0.94221559821E+01  0.95129995501E+01  0.51100000000E-03 0.  1.
         12    1    4    4    0    0 -0.31140533132E+02 -0.17221825767E+02  0.13520479714E+02  0.38067406770E+02  0.00000000000E+00 0. -1.
</event>
<event>
 8    1  0.1253703E-006  0.9118800E+02  0.7816164E-02  0.1184000E+00
        -11   -1    0    0    0    0  0.00000000000E+00  0.00000000000E+00  0.45593999997E+02  0.45594000000E+02  0.51100000000E-03 0.  1.
         11   -1    0    0    0    0 -0.00000000000E+00 -0.00000000000E+00 -0.45593999997E+02  0.45594000000E+02  0.51100000000E-03 0. -1.
         23    2    1    2    0    0  0.35527136788E-14  0.35527136788E-14  0.00000000000E+00  0.91188000000E+02  0.91188000000E+02 0.  0.
    9900012    2    3    3    0    0  0.25320481108E+02  0.26647370979E+02 -0.21379212652E+01  0.54367084056E+02  0.39999999723E+02 0.  0.
        -12    1    3    3    0    0 -0.25320481108E+02 -0.26647370979E+02  0.21379212652E+01  0.36820915944E+02  0.00000000000E+00 0.  1.
         11    1    4    4    0    0  0.22102490655E+02  0.19002985365E+02 -0.16439130704E+02  0.33464586723E+02  0.51100000000E-03 0. -1.
        -11    1    4    4    0    0  0.25149094141E+01 -0.76975968093E+00  0.11809815464E+02  0.12099133889E+02  0.51100000000E-03 0.  1.
        -12    1    4    4    0    0  0.70308103851E+00  0.84141452949E+01  0.24913939754E+01  0.88033634442E+01  0.00000000000E+00 0.  1.
</event>
<event>
 8    1  0.1253703E-006  0.9118800E+02  0.7816164E-02  0.1184000E+00
        -11   -1    0    0    0    0  0.00000000000E+00  0.00000000000E+00  0.45593999997E+02  0.45594000000E+02  0.51100000000E-03 0. -1.
         11   -1    0    0    0    0 -0.00000000000E+00 -0.00000000000E+00 -0.45593999997E+02  0.45594000000E+02  0.51100000000E-03 0.  1.
         23    2    1    2    0    0  0.00000000000E+00  0.00000000000E+00  0.00000000000E+00  0.91188000000E+02  0.91188000000E+02 0.  0.
    9900012    2    3    3    0    0  0.23289835859E+02  0.26793129826E+02  0.97720032999E+01  0.54367077840E+02  0.39999985552E+02 0.  0.
        -12    1    3    3    0    0 -0.23289835859E+02 -0.26793129826E+02 -0.97720032999E+01  0.36820922160E+02  0.00000000000E+00 0.  1.
         11    1    4    4    0    0 -0.38345806335E+01  0.21577872882E+02  0.10692156146E+02  0.24385053005E+02  0.51100000000E-03 0. -1.
        -11    1    4    4    0    0  0.66614001807E+01 -0.17199532526E+01 -0.42998015900E+01  0.81130010189E+01  0.51100000000E-03 0.  1.
         12    1    4    4    0    0  0.20463016312E+02  0.69352101962E+01  0.33796487436E+01  0.21869023816E+02  0.00000000000E+00 0. -1.
</event>
<event>
 8    1  0.1253703E-006  0.9118800E+02  0.7816164E-02  0.1184000E+00
        -11   -1    0    0    0    0  0.00000000000E+00  0.00000000000E+00  0.45593999997E+02  0.45594000000E+02  0.51100000000E-03 0.  1.
         11   -1    0    0    0    0 -0.00000000000E+00 -0.00000000000E+00 -0.45593999997E+02  0.45594000000E+02  0.51100000000E-03 0. -1.
         23    2    1    2    0    0  0.88817841970E-15 -0.35527136788E-14  0.00000000000E+00  0.91188000000E+02  0.91188000000E+02 0.  0.
    9900012    2    3    3    0    0 -0.35498186254E+01  0.24719694134E+02  0.27057649985E+02  0.54367069634E+02  0.39999966844E+02 0.  0.
         12    1    3    3    0    0  0.35498186254E+01 -0.24719694134E+02 -0.27057649985E+02  0.36820930366E+02  0.00000000000E+00 0. -1.
         11    1    4    4    0    0 -0.12505698601E+02  0.14598926741E+02  0.14757824954E+02  0.24234573591E+02  0.51100000000E-03 0. -1.
        -11    1    4    4    0    0  0.10338823717E+02  0.13090224619E+02 -0.73056471822E+00  0.16696675762E+02  0.51100000000E-03 0.  1.
        -12    1    4    4    0    0 -0.13829437422E+01 -0.29694572264E+01  0.13030389748E+02  0.13435820280E+02  0.00000000000E+00 0.  1.
</event>
<event>
 8    1  0.1253703E-006  0.9118800E+02  0.7816164E-02  0.1184000E+00
        -11   -1    0    0    0    0  0.00000000000E+00  0.00000000000E+00  0.45593999997E+02  0.45594000000E+02  0.51100000000E-03 0.  1.
         11   -1    0    0    0    0 -0.00000000000E+00 -0.00000000000E+00 -0.45593999997E+02  0.45594000000E+02  0.51100000000E-03 0. -1.
         23    2    1    2    0    0  0.00000000000E+00  0.00000000000E+00 -0.35527136788E-14  0.91188000000E+02  0.91188000000E+02 0.  0.
    9900012    2    3    3    0    0 -0.70394470696E+01 -0.17241392252E+02 -0.31764138666E+02  0.54367083023E+02  0.39999997368E+02 0.  0.
        -12    1    3    3    0    0  0.70394470696E+01  0.17241392252E+02  0.31764138666E+02  0.36820916977E+02  0.00000000000E+00 0.  1.
         11    1    4    4    0    0  0.84542591587E+00  0.39705441687E+01 -0.93347609954E+01  0.10179279399E+02  0.51100000000E-03 0. -1.
        -11    1    4    4    0    0 -0.73816906746E+01 -0.16865179036E+02  0.27649066794E+01  0.18616345784E+02  0.51100000000E-03 0.  1.
        -12    1    4    4    0    0 -0.50318231084E+00 -0.43467573848E+01 -0.25194284350E+02  0.25571457841E+02  0.00000000000E+00 0.  1.
</event>
<event>
 8    1  0.1253703E-006  0.9118800E+02  0.7816164E-02  0.1184000E+00
        -11   -1    0    0    0    0  0.00000000000E+00  0.00000000000E+00  0.45593999997E+02  0.45594000000E+02  0.51100000000E-03 0. -1.
         11   -1    0    0    0    0 -0.00000000000E+00 -0.00000000000E+00 -0.45593999997E+02  0.45594000000E+02  0.51100000000E-03 0.  1.
         23    2    1    2    0    0  0.00000000000E+00  0.35527136788E-14  0.00000000000E+00  0.91188000000E+02  0.91188000000E+02 0.  0.
    9900012    2    3    3    0    0 -0.48718510526E+01  0.25505189453E+02 -0.26106135089E+02  0.54367083240E+02  0.39999997863E+02 0.  0.
         12    1    3    3    0    0  0.48718510526E+01 -0.25505189453E+02  0.26106135089E+02  0.36820916760E+02  0.00000000000E+00 0. -1.
         11    1    4    4    0    0 -0.42649184671E+00 -0.60195434137E+01  0.23329399234E+01  0.64698846321E+01  0.51100000000E-03 0. -1.
        -11    1    4    4    0    0 -0.80563075652E+01  0.13735699730E+01 -0.61854014935E+01  0.10249389150E+02  0.51100000000E-03 0.  1.
        -12    1    4    4    0    0  0.36109483593E+01  0.30151162894E+02 -0.22253673519E+02  0.37647809458E+02  0.00000000000E+00 0.  1.
</event>
<event>
 8    1  0.1253703E-006  0.9118800E+02  0.7816164E-02  0.1184000E+00
        -11   -1    0    0    0    0  0.00000000000E+00  0.00000000000E+00  0.45593999997E+02  0.45594000000E+02  0.51100000000E-03 0. -1.
         11   -1    0    0    0    0 -0.00000000000E+00 -0.00000000000E+00 -0.45593999997E+02  0.45594000000E+02  0.51100000000E-03 0.  1.
         23    2    1    2    0    0 -0.88817841970E-15  0.35527136788E-14  0.00000000000E+00  0.91188000000E+02  0.91188000000E+02 0.  0.
    9900012    2    3    3    0    0  0.79706452069E+01 -0.24452640661E+02  0.26349918686E+02  0.54367067976E+02  0.39999963066E+02 0.  0.
        -12    1    3    3    0    0 -0.79706452069E+01  0.24452640661E+02 -0.26349918686E+02  0.36820932024E+02  0.00000000000E+00 0.  1.
         11    1    4    4    0    0  0.46034009658E+01 -0.19676050261E+02  0.13031148436E+02  0.24044730902E+02  0.51100000000E-03 0. -1.
        -11    1    4    4    0    0  0.61511196322E+01  0.75881543198E+01 -0.24702201920E+01  0.10075631333E+02  0.51100000000E-03 0.  1.
        -12    1    4    4    0    0 -0.27838753911E+01 -0.12364744720E+02  0.15788990442E+02  0.20246705741E+02  0.00000000000E+00 0.  1.
</event>
<event>
 8    1  0.1253703E-006  0.9118800E+02  0.7816164E-02  0.1184000E+00
        -11   -1    0    0    0    0  0.00000000000E+00  0.00000000000E+00  0.45593999997E+02  0.45594000000E+02  0.51100000000E-03 0.  1.
         11   -1    0    0    0    0 -0.00000000000E+00 -0.00000000000E+00 -0.45593999997E+02  0.45594000000E+02  0.51100000000E-03 0. -1.
         23    2    1    2    0    0  0.00000000000E+00 -0.26645352591E-14 -0.17763568394E-14  0.91188000000E+02  0.91188000000E+02 0.  0.
    9900012    2    3    3    0    0  0.34687182666E+02  0.63786875449E+01  0.10577846538E+02  0.54367093798E+02  0.40000021932E+02 0.  0.
         12    1    3    3    0    0 -0.34687182666E+02 -0.63786875449E+01 -0.10577846538E+02  0.36820906202E+02  0.00000000000E+00 0. -1.
         11    1    4    4    0    0  0.24427586788E+02  0.20334308864E+02  0.83087992997E+01  0.32851594472E+02  0.51100000000E-03 0. -1.
        -11    1    4    4    0    0  0.10017255090E+02 -0.16244399665E+02  0.18280084299E+01  0.19172050884E+02  0.51100000000E-03 0.  1.
        -12    1    4    4    0    0  0.24234078805E+00  0.22887783457E+01  0.44103880875E+00  0.23434484429E+01  0.00000000000E+00 0.  1.
</event>
<event>
 8    1  0.1253703E-006  0.9118800E+02  0.7816164E-02  0.1184000E+00
        -11   -1    0    0    0    0  0.00000000000E+00  0.00000000000E+00  0.45593999997E+02  0.45594000000E+02  0.51100000000E-03 0.  1.
         11   -1    0    0    0    0 -0.00000000000E+00 -0.00000000000E+00 -0.45593999997E+02  0.45594000000E+02  0.51100000000E-03 0. -1.
         23    2    1    2    0    0  0.35527136788E-14  0.71054273576E-14 -0.53290705182E-14  0.91188000000E+02  0.91188000000E+02 0.  0.
    9900012    2    3    3    0    0 -0.20135305766E+02 -0.28262781424E+02  0.12311159109E+02  0.54367082158E+02  0.39999995396E+02 0.  0.
        -12    1    3    3    0    0  0.20135305766E+02  0.28262781424E+02 -0.12311159109E+02  0.36820917842E+02  0.00000000000E+00 0.  1.
         11    1    4    4    0    0 -0.60306624242E+01 -0.16513226132E+02 -0.29234127102E+01  0.17821387957E+02  0.51100000000E-03 0. -1.
        -11    1    4    4    0    0  0.74511026724E+01  0.82344683065E+00  0.38337519460E+00  0.75062622202E+01  0.51100000000E-03 0.  1.
         12    1    4    4    0    0 -0.21555746014E+02 -0.12573002122E+02  0.14851196624E+02  0.29039431981E+02  0.00000000000E+00 0. -1.
</event>
<event>
 8    1  0.1253703E-006  0.9118800E+02  0.7816164E-02  0.1184000E+00
        -11   -1    0    0    0    0  0.00000000000E+00  0.00000000000E+00  0.45593999997E+02  0.45594000000E+02  0.51100000000E-03 0.  1.
         11   -1    0    0    0    0 -0.00000000000E+00 -0.00000000000E+00 -0.45593999997E+02  0.45594000000E+02  0.51100000000E-03 0. -1.
         23    2    1    2    0    0  0.00000000000E+00  0.00000000000E+00  0.22204460493E-15  0.91188000000E+02  0.91188000000E+02 0.  0.
    9900012    2    3    3    0    0  0.14944132693E+02 -0.33610014902E+02  0.16794551025E+01  0.54367071534E+02  0.39999971176E+02 0.  0.
        -12    1    3    3    0    0 -0.14944132693E+02  0.33610014902E+02 -0.16794551025E+01  0.36820928466E+02  0.00000000000E+00 0.  1.
         11    1    4    4    0    0 -0.74713763676E+01 -0.92445583292E+01 -0.49514056300E+01  0.12876324845E+02  0.51100000000E-03 0. -1.
        -11    1    4    4    0    0  0.12053872163E+02 -0.36665254886E+01  0.12354811903E+02  0.17645980299E+02  0.51100000000E-03 0.  1.
        -12    1    4    4    0    0  0.10361636898E+02 -0.20698931084E+02 -0.57239511701E+01  0.23844766391E+02  0.00000000000E+00 0.  1.
</event>
<event>
 8    1  0.1253703E-006  0.9118800E+02  0.7816164E-02  0.1184000E+00
        -11   -1    0    0    0    0  0.00000000000E+00  0.00000000000E+00  0.45593999997E+02  0.45594000000E+02  0.51100000000E-03 0. -1.
         11   -1    0    0    0    0 -0.00000000000E+00 -0.00000000000E+00 -0.45593999997E+02  0.45594000000E+02  0.51100000000E-03 0.  1.
         23    2    1    2    0    0 -0.56205040622E-15  0.00000000000E+00 -0.35527136788E-14  0.91188000000E+02  0.91188000000E+02 0.  0.
    9900012    2    3    3    0    0  0.54130271290E-01  0.22824037107E+02  0.28893606017E+02  0.54367081100E+02  0.39999992985E+02 0.  0.
        -12    1    3    3    0    0 -0.54130271290E-01 -0.22824037107E+02 -0.28893606017E+02  0.36820918900E+02  0.00000000000E+00 0.  1.
         11    1    4    4    0    0 -0.40300403406E+01  0.10617872046E+01 -0.17370624563E+01  0.45150862066E+01  0.51100000000E-03 0. -1.
        -11    1    4    4    0    0  0.23879053252E+01 -0.81510808625E+01  0.27572916107E+01  0.89299982282E+01  0.51100000000E-03 0.  1.
         12    1    4    4    0    0  0.16962652867E+01  0.29913330765E+02  0.27873376863E+02  0.40921996666E+02  0.00000000000E+00 0. -1.
</event>
<event>
 8    1  0.1253703E-006  0.9118800E+02  0.7816164E-02  0.1184000E+00
        -11   -1    0    0    0    0  0.00000000000E+00  0.00000000000E+00  0.45593999997E+02  0.45594000000E+02  0.51100000000E-03 0.  1.
         11   -1    0    0    0    0 -0.00000000000E+00 -0.00000000000E+00 -0.45593999997E+02  0.45594000000E+02  0.51100000000E-03 0. -1.
         23    2    1    2    0    0  0.00000000000E+00  0.00000000000E+00  0.00000000000E+00  0.91188000000E+02  0.91188000000E+02 0.  0.
    9900012    2    3    3    0    0 -0.27837943702E+02  0.65911420548E+01  0.23181604249E+02  0.54367067927E+02  0.39999962954E+02 0.  0.
        -12    1    3    3    0    0  0.27837943702E+02 -0.65911420548E+01 -0.23181604249E+02  0.36820932073E+02  0.00000000000E+00 0.  1.
         11    1    4    4    0    0 -0.20153891962E+02  0.21297675437E+02  0.20625051379E+02  0.35849171327E+02  0.51100000000E-03 0. -1.
        -11    1    4    4    0    0  0.23021430107E+00 -0.24330500399E+00  0.19933508927E+01  0.20212976011E+01  0.51100000000E-03 0.  1.
         12    1    4    4    0    0 -0.79142660404E+01 -0.14463228378E+02  0.56320197798E+00  0.16496598999E+02  0.00000000000E+00 0. -1.
</event>
<event>
 8    1  0.1253703E-006  0.9118800E+02  0.7816164E-02  0.1184000E+00
        -11   -1    0    0    0    0  0.00000000000E+00  0.00000000000E+00  0.45593999997E+02  0.45594000000E+02  0.51100000000E-03 0. -1.
         11   -1    0    0    0    0 -0.00000000000E+00 -0.00000000000E+00 -0.45593999997E+02  0.45594000000E+02  0.51100000000E-03 0.  1.
         23    2    1    2    0    0  0.17763568394E-14 -0.11102230246E-15 -0.71054273576E-14  0.91188000000E+02  0.91188000000E+02 0.  0.
    9900012    2    3    3    0    0 -0.10407718089E+02 -0.67243069569E+00  0.35312955914E+02  0.54367114429E+02  0.40000068964E+02 0.  0.
        -12    1    3    3    0    0  0.10407718089E+02  0.67243069569E+00 -0.35312955914E+02  0.36820885571E+02  0.00000000000E+00 0.  1.
         11    1    4    4    0    0 -0.99815110292E+01  0.13041536251E+01  0.25819855761E+02  0.27712746722E+02  0.51100000000E-03 0. -1.
        -11    1    4    4    0    0  0.54466716717E+01 -0.11784245268E+02  0.76692931041E+01  0.15078220247E+02  0.51100000000E-03 0.  1.
        -12    1    4    4    0    0 -0.58728787313E+01  0.98076609475E+01  0.18238070486E+01  0.11576147460E+02  0.00000000000E+00 0.  1.
</event>
<event>
 8    1  0.1253703E-006  0.9118800E+02  0.7816164E-02  0.1184000E+00
        -11   -1    0    0    0    0  0.00000000000E+00  0.00000000000E+00  0.45593999997E+02  0.45594000000E+02  0.51100000000E-03 0. -1.
         11   -1    0    0    0    0 -0.00000000000E+00 -0.00000000000E+00 -0.45593999997E+02  0.45594000000E+02  0.51100000000E-03 0.  1.
         23    2    1    2    0    0 -0.17763568394E-14  0.00000000000E+00  0.11102230246E-15  0.91188000000E+02  0.91188000000E+02 0.  0.
    9900012    2    3    3    0    0  0.14132409921E+02  0.33998755079E+02  0.37417399517E+00  0.54367077099E+02  0.39999983862E+02 0.  0.
         12    1    3    3    0    0 -0.14132409921E+02 -0.33998755079E+02 -0.37417399517E+00  0.36820922901E+02  0.00000000000E+00 0. -1.
         11    1    4    4    0    0 -0.20738282838E+01  0.23754040004E+02 -0.11148784699E+02  0.26322055026E+02  0.51100000000E-03 0. -1.
        -11    1    4    4    0    0  0.10306479483E+02  0.66981920298E+01 -0.23902276994E+01  0.12522079880E+02  0.51100000000E-03 0.  1.
        -12    1    4    4    0    0  0.58997587213E+01  0.35465230451E+01  0.13913186394E+02  0.15522942192E+02  0.00000000000E+00 0.  1.
</event>
<event>
 8    1  0.1253703E-006  0.9118800E+02  0.7816164E-02  0.1184000E+00
        -11   -1    0    0    0    0  0.00000000000E+00  0.00000000000E+00  0.45593999997E+02  0.45594000000E+02  0.51100000000E-03 0. -1.
         11   -1    0    0    0    0 -0.00000000000E+00 -0.00000000000E+00 -0.45593999997E+02  0.45594000000E+02  0.51100000000E-03 0.  1.
         23    2    1    2    0    0  0.00000000000E+00  0.00000000000E+00 -0.18318679906E-14  0.91188000000E+02  0.91188000000E+02 0.  0.
    9900012    2    3    3    0    0  0.28587461643E+02 -0.23203986337E+02  0.33458469963E+00  0.54367083498E+02  0.39999998450E+02 0.  0.
        -12    1    3    3    0    0 -0.28587461643E+02  0.23203986337E+02 -0.33458469963E+00  0.36820916502E+02  0.00000000000E+00 0.  1.
         11    1    4    4    0    0  0.16295727835E+02 -0.13608301395E+02  0.17383451317E+02  0.27439405833E+02  0.51100000000E-03 0. -1.
        -11    1    4    4    0    0  0.95994580008E+01 -0.12954369813E+02 -0.15464232682E+02  0.22340720308E+02  0.51100000000E-03 0.  1.
         12    1    4    4    0    0  0.26922758072E+01  0.33586848707E+01 -0.15846339348E+01  0.45869573565E+01  0.00000000000E+00 0. -1.
</event>
<event>
 8    1  0.1253703E-006  0.9118800E+02  0.7816164E-02  0.1184000E+00
        -11   -1    0    0    0    0  0.00000000000E+00  0.00000000000E+00  0.45593999997E+02  0.45594000000E+02  0.51100000000E-03 0.  1.
         11   -1    0    0    0    0 -0.00000000000E+00 -0.00000000000E+00 -0.45593999997E+02  0.45594000000E+02  0.51100000000E-03 0. -1.
         23    2    1    2    0    0 -0.88817841970E-15 -0.10658141036E-13 -0.71054273576E-14  0.91188000000E+02  0.91188000000E+02 0.  0.
    9900012    2    3    3    0    0 -0.51975778069E+01  0.29103758518E+02  0.21948494046E+02  0.54367082496E+02  0.39999996167E+02 0.  0.
         12    1    3    3    0    0  0.51975778069E+01 -0.29103758518E+02 -0.21948494046E+02  0.36820917504E+02  0.00000000000E+00 0. -1.
         11    1    4    4    0    0 -0.17148811425E+02  0.18681223723E+02  0.20650054806E+02  0.32703128548E+02  0.51100000000E-03 0. -1.
        -11    1    4    4    0    0 -0.86014604959E+00  0.51991919976E+01 -0.42374923596E+01  0.67622326500E+01  0.51100000000E-03 0.  1.
        -12    1    4    4    0    0  0.12811379668E+02  0.52233427965E+01  0.55359315999E+01  0.14901721298E+02  0.00000000000E+00 0.  1.
</event>
<event>
 8    1  0.1253703E-006  0.9118800E+02  0.7816164E-02  0.1184000E+00
        -11   -1    0    0    0    0  0.00000000000E+00  0.00000000000E+00  0.45593999997E+02  0.45594000000E+02  0.51100000000E-03 0.  1.
         11   -1    0    0    0    0 -0.00000000000E+00 -0.00000000000E+00 -0.45593999997E+02  0.45594000000E+02  0.51100000000E-03 0. -1.
         23    2    1    2    0    0  0.00000000000E+00  0.17763568394E-14  0.88817841970E-15  0.91188000000E+02  0.91188000000E+02 0.  0.
    9900012    2    3    3    0    0  0.35249829307E+02 -0.98295457675E+01 -0.40757316261E+01  0.54367054541E+02  0.39999932437E+02 0.  0.
         12    1    3    3    0    0 -0.35249829307E+02  0.98295457675E+01  0.40757316261E+01  0.36820945459E+02  0.00000000000E+00 0. -1.
         11    1    4    4    0    0  0.44914516785E+00 -0.51548002958E+00 -0.10551994565E+02  0.10574121268E+02  0.51100000000E-03 0. -1.
        -11    1    4    4    0    0  0.11478566876E+02  0.12949996608E+01 -0.82922799184E+01  0.14219579043E+02  0.51100000000E-03 0.  1.
        -12    1    4    4    0    0  0.23322117263E+02 -0.10609065399E+02  0.14768542857E+02  0.29573354230E+02  0.00000000000E+00 0.  1.
</event>
<event>
 8    1  0.1253703E-006  0.9118800E+02  0.7816164E-02  0.1184000E+00
        -11   -1    0    0    0    0  0.00000000000E+00  0.00000000000E+00  0.45593999997E+02  0.45594000000E+02  0.51100000000E-03 0. -1.
         11   -1    0    0    0    0 -0.00000000000E+00 -0.00000000000E+00 -0.45593999997E+02  0.45594000000E+02  0.51100000000E-03 0.  1.
         23    2    1    2    0    0  0.44408920985E-15  0.55511151231E-15  0.71054273576E-14  0.91188000000E+02  0.91188000000E+02 0.  0.
    9900012    2    3    3    0    0  0.16444768403E+01  0.77668806957E+00 -0.36775969273E+02  0.54367089305E+02  0.40000011689E+02 0.  0.
         12    1    3    3    0    0 -0.16444768403E+01 -0.77668806957E+00  0.36775969273E+02  0.36820910695E+02  0.00000000000E+00 0. -1.
         11    1    4    4    0    0  0.37048621736E+01  0.27772727992E+01 -0.18309549507E+02  0.18885943220E+02  0.51100000000E-03 0. -1.
        -11    1    4    4    0    0 -0.13997855807E+01  0.75643272044E+01 -0.23447184397E+02  0.24676890042E+02  0.51100000000E-03 0.  1.
         12    1    4    4    0    0 -0.66059975256E+00 -0.95649119340E+01  0.49807646304E+01  0.10804256043E+02  0.00000000000E+00 0. -1.
</event>
<event>
 8    1  0.1253703E-006  0.9118800E+02  0.7816164E-02  0.1184000E+00
        -11   -1    0    0    0    0  0.00000000000E+00  0.00000000000E+00  0.45593999997E+02  0.45594000000E+02  0.51100000000E-03 0. -1.
         11   -1    0    0    0    0 -0.00000000000E+00 -0.00000000000E+00 -0.45593999997E+02  0.45594000000E+02  0.51100000000E-03 0.  1.
         23    2    1    2    0    0 -0.55511151231E-15 -0.88817841970E-15  0.71054273576E-14  0.91188000000E+02  0.91188000000E+02 0.  0.
    9900012    2    3    3    0    0 -0.57819078264E+00 -0.61496941215E+01  0.36299121547E+02  0.54367091979E+02  0.40000017785E+02 0.  0.
        -12    1    3    3    0    0  0.57819078264E+00  0.61496941215E+01 -0.36299121547E+02  0.36820908021E+02  0.00000000000E+00 0.  1.
         11    1    4    4    0    0 -0.11031839839E+02 -0.17968331947E+01  0.20022938311E+02  0.22931379344E+02  0.51100000000E-03 0. -1.
        -11    1    4    4    0    0 -0.46755319684E+01  0.18223000473E+01 -0.32465089354E+01  0.59767212733E+01  0.51100000000E-03 0.  1.
        -12    1    4    4    0    0  0.15129181024E+02 -0.61751609741E+01  0.19522692172E+02  0.25458991362E+02  0.00000000000E+00 0.  1.
</event>
<event>
 8    1  0.1253703E-006  0.9118800E+02  0.7816164E-02  0.1184000E+00
        -11   -1    0    0    0    0  0.00000000000E+00  0.00000000000E+00  0.45593999997E+02  0.45594000000E+02  0.51100000000E-03 0.  1.
         11   -1    0    0    0    0 -0.00000000000E+00 -0.00000000000E+00 -0.45593999997E+02  0.45594000000E+02  0.51100000000E-03 0. -1.
         23    2    1    2    0    0  0.88817841970E-15  0.00000000000E+00  0.00000000000E+00  0.91188000000E+02  0.91188000000E+02 0.  0.
    9900012    2    3    3    0    0  0.58942209456E+01  0.25388306936E+02 -0.26009062022E+02  0.54367091852E+02  0.40000017494E+02 0.  0.
        -12    1    3    3    0    0 -0.58942209456E+01 -0.25388306936E+02  0.26009062022E+02  0.36820908148E+02  0.00000000000E+00 0.  1.
         11    1    4    4    0    0  0.98006621336E+00  0.76449174211E+01 -0.24078020518E+02  0.25281541972E+02  0.51100000000E-03 0. -1.
        -11    1    4    4    0    0 -0.89595815677E+01  0.56548040047E+01 -0.12425801837E+00  0.10595581651E+02  0.51100000000E-03 0.  1.
         12    1    4    4    0    0  0.13873736300E+02  0.12088585510E+02 -0.18067834856E+01  0.18489968229E+02  0.00000000000E+00 0. -1.
</event>
<event>
 8    1  0.1253703E-006  0.9118800E+02  0.7816164E-02  0.1184000E+00
        -11   -1    0    0    0    0  0.00000000000E+00  0.00000000000E+00  0.45593999997E+02  0.45594000000E+02  0.51100000000E-03 0. -1.
         11   -1    0    0    0    0 -0.00000000000E+00 -0.00000000000E+00 -0.45593999997E+02  0.45594000000E+02  0.51100000000E-03 0.  1.
         23    2    1    2    0    0  0.00000000000E+00  0.00000000000E+00  0.00000000000E+00  0.91188000000E+02  0.91188000000E+02 0.  0.
    9900012    2    3    3    0    0 -0.16104085489E+02 -0.28725503230E+02 -0.16470648760E+02  0.54367104087E+02  0.40000045387E+02 0.  0.
         12    1    3    3    0    0  0.16104085489E+02  0.28725503230E+02  0.16470648760E+02  0.36820895913E+02  0.00000000000E+00 0. -1.
         11    1    4    4    0    0 -0.13682457648E+02 -0.15291523387E+02  0.81511664496E+01  0.22078991135E+02  0.51100000000E-03 0. -1.
        -11    1    4    4    0    0  0.18658637300E+01 -0.15779502486E+02 -0.17348557615E+02  0.23525445751E+02  0.51100000000E-03 0.  1.
         12    1    4    4    0    0 -0.42874915706E+01  0.23455226433E+01 -0.72732575943E+01  0.87626672008E+01  0.00000000000E+00 0. -1.
</event>
<event>
 8    1  0.1253703E-006  0.9118800E+02  0.7816164E-02  0.1184000E+00
        -11   -1    0    0    0    0  0.00000000000E+00  0.00000000000E+00  0.45593999997E+02  0.45594000000E+02  0.51100000000E-03 0.  1.
         11   -1    0    0    0    0 -0.00000000000E+00 -0.00000000000E+00 -0.45593999997E+02  0.45594000000E+02  0.51100000000E-03 0. -1.
         23    2    1    2    0    0  0.00000000000E+00 -0.53290705182E-14  0.00000000000E+00  0.91188000000E+02  0.91188000000E+02 0.  0.
    9900012    2    3    3    0    0  0.32140165837E+02  0.11245927272E+02  0.14011467565E+02  0.54367049937E+02  0.39999921942E+02 0.  0.
        -12    1    3    3    0    0 -0.32140165837E+02 -0.11245927272E+02 -0.14011467565E+02  0.36820950063E+02  0.00000000000E+00 0.  1.
         11    1    4    4    0    0  0.74437316373E+01  0.12946825346E+02 -0.50852658441E+01  0.15776227565E+02  0.51100000000E-03 0. -1.
        -11    1    4    4    0    0  0.22929187884E+02 -0.96793174220E+01  0.17044059704E+02  0.30165158946E+02  0.51100000000E-03 0.  1.
        -12    1    4    4    0    0  0.17672463154E+01  0.79784193486E+01  0.20526737051E+01  0.84256634268E+01  0.00000000000E+00 0.  1.
</event>
<event>
 8    1  0.1253703E-006  0.9118800E+02  0.7816164E-02  0.1184000E+00
        -11   -1    0    0    0    0  0.00000000000E+00  0.00000000000E+00  0.45593999997E+02  0.45594000000E+02  0.51100000000E-03 0.  1.
         11   -1    0    0    0    0 -0.00000000000E+00 -0.00000000000E+00 -0.45593999997E+02  0.45594000000E+02  0.51100000000E-03 0. -1.
         23    2    1    2    0    0  0.00000000000E+00  0.00000000000E+00  0.00000000000E+00  0.91188000000E+02  0.91188000000E+02 0.  0.
    9900012    2    3    3    0    0 -0.13452368766E+02  0.26188298869E+02 -0.22113206643E+02  0.54366985197E+02  0.39999774354E+02 0.  0.
        -12    1    3    3    0    0  0.13452368766E+02 -0.26188298869E+02  0.22113206643E+02  0.36821014803E+02  0.00000000000E+00 0.  1.
         11    1    4    4    0    0  0.88539574850E+01  0.19841255213E+02 -0.83803644599E+01  0.23287302985E+02  0.51100000000E-03 0. -1.
        -11    1    4    4    0    0 -0.17111481747E+02 -0.16397879783E+01 -0.12946130696E+02  0.21519619245E+02  0.51100000000E-03 0.  1.
         12    1    4    4    0    0 -0.51948445040E+01  0.79868316342E+01 -0.78671148688E+00  0.95600629672E+01  0.00000000000E+00 0. -1.
</event>
<event>
 8    1  0.1253703E-006  0.9118800E+02  0.7816164E-02  0.1184000E+00
        -11   -1    0    0    0    0  0.00000000000E+00  0.00000000000E+00  0.45593999997E+02  0.45594000000E+02  0.51100000000E-03 0.  1.
         11   -1    0    0    0    0 -0.00000000000E+00 -0.00000000000E+00 -0.45593999997E+02  0.45594000000E+02  0.51100000000E-03 0. -1.
         23    2    1    2    0    0  0.00000000000E+00  0.00000000000E+00  0.35527136788E-14  0.91188000000E+02  0.91188000000E+02 0.  0.
    9900012    2    3    3    0    0 -0.16587165864E+02 -0.18788630553E+02 -0.26974725651E+02  0.54367047630E+02  0.39999916682E+02 0.  0.
        -12    1    3    3    0    0  0.16587165864E+02  0.18788630553E+02  0.26974725651E+02  0.36820952370E+02  0.00000000000E+00 0.  1.
         11    1    4    4    0    0 -0.22666624890E+02 -0.25377876354E+02 -0.12277676953E+02  0.36173938738E+02  0.51100000000E-03 0. -1.
        -11    1    4    4    0    0 -0.27823578446E+00  0.32486979783E+00 -0.49826717328E+01  0.50009972401E+01  0.51100000000E-03 0.  1.
         12    1    4    4    0    0  0.63576948103E+01  0.62643760040E+01 -0.97143769654E+01  0.13192111652E+02  0.00000000000E+00 0. -1.
</event>
<event>
 8    1  0.1253703E-006  0.9118800E+02  0.7816164E-02  0.1184000E+00
        -11   -1    0    0    0    0  0.00000000000E+00  0.00000000000E+00  0.45593999997E+02  0.45594000000E+02  0.51100000000E-03 0.  1.
         11   -1    0    0    0    0 -0.00000000000E+00 -0.00000000000E+00 -0.45593999997E+02  0.45594000000E+02  0.51100000000E-03 0. -1.
         23    2    1    2    0    0  0.00000000000E+00  0.00000000000E+00  0.00000000000E+00  0.91188000000E+02  0.91188000000E+02 0.  0.
    9900012    2    3    3    0    0  0.32177004524E+02  0.70150241321E+01 -0.16468441785E+02  0.54367085311E+02  0.40000002583E+02 0.  0.
        -12    1    3    3    0    0 -0.32177004524E+02 -0.70150241321E+01  0.16468441785E+02  0.36820914689E+02  0.00000000000E+00 0.  1.
         11    1    4    4    0    0  0.28857286883E+02  0.15933662177E+02 -0.85117827623E+01  0.34045191183E+02  0.51100000000E-03 0. -1.
        -11    1    4    4    0    0 -0.32475688008E-01 -0.81346326409E+01  0.31276673740E+01  0.87152513639E+01  0.51100000000E-03 0.  1.
         12    1    4    4    0    0  0.33521933290E+01 -0.78400540396E+00 -0.11084326397E+02  0.11606642764E+02  0.00000000000E+00 0. -1.
</event>
<event>
 8    1  0.1253703E-006  0.9118800E+02  0.7816164E-02  0.1184000E+00
        -11   -1    0    0    0    0  0.00000000000E+00  0.00000000000E+00  0.45593999997E+02  0.45594000000E+02  0.51100000000E-03 0.  1.
         11   -1    0    0    0    0 -0.00000000000E+00 -0.00000000000E+00 -0.45593999997E+02  0.45594000000E+02  0.51100000000E-03 0. -1.
         23    2    1    2    0    0 -0.35527136788E-14 -0.66613381478E-15 -0.35527136788E-14  0.91188000000E+02  0.91188000000E+02 0.  0.
    9900012    2    3    3    0    0 -0.28702425608E+02 -0.14891159522E+01  0.23015936608E+02  0.54367081488E+02  0.39999993868E+02 0.  0.
         12    1    3    3    0    0  0.28702425608E+02  0.14891159522E+01 -0.23015936608E+02  0.36820918512E+02  0.00000000000E+00 0. -1.
         11    1    4    4    0    0 -0.19335493894E+02  0.28794503445E+01 -0.19353263610E+01  0.19644287893E+02  0.51100000000E-03 0. -1.
        -11    1    4    4    0    0 -0.11275845756E+02 -0.24677377669E+01  0.28218606688E+02  0.30488099168E+02  0.51100000000E-03 0.  1.
         12    1    4    4    0    0  0.19089140420E+01 -0.19008285298E+01 -0.32673437188E+01  0.42346944277E+01  0.00000000000E+00 0. -1.
</event>
<event>
 8    1  0.1253703E-006  0.9118800E+02  0.7816164E-02  0.1184000E+00
        -11   -1    0    0    0    0  0.00000000000E+00  0.00000000000E+00  0.45593999997E+02  0.45594000000E+02  0.51100000000E-03 0.  1.
         11   -1    0    0    0    0 -0.00000000000E+00 -0.00000000000E+00 -0.45593999997E+02  0.45594000000E+02  0.51100000000E-03 0. -1.
         23    2    1    2    0    0  0.66613381478E-15  0.35527136788E-14 -0.71054273576E-14  0.91188000000E+02  0.91188000000E+02 0.  0.
    9900012    2    3    3    0    0  0.17933372463E+01  0.10923389804E+02 -0.35117583390E+02  0.54367066193E+02  0.39999958999E+02 0.  0.
        -12    1    3    3    0    0 -0.17933372463E+01 -0.10923389804E+02  0.35117583390E+02  0.36820933807E+02  0.00000000000E+00 0.  1.
         11    1    4    4    0    0  0.16185298708E+02  0.92111901432E+01 -0.17388995265E+02  0.25479149804E+02  0.51100000000E-03 0. -1.
        -11    1    4    4    0    0 -0.53079008836E+01 -0.18822797367E+01 -0.18255404273E+02  0.19104360084E+02  0.51100000000E-03 0.  1.
        -12    1    4    4    0    0 -0.90840605778E+01  0.35944793971E+01  0.52681614792E+00  0.97835563049E+01  0.00000000000E+00 0.  1.
</event>
<event>
 8    1  0.1253703E-006  0.9118800E+02  0.7816164E-02  0.1184000E+00
        -11   -1    0    0    0    0  0.00000000000E+00  0.00000000000E+00  0.45593999997E+02  0.45594000000E+02  0.51100000000E-03 0. -1.
         11   -1    0    0    0    0 -0.00000000000E+00 -0.00000000000E+00 -0.45593999997E+02  0.45594000000E+02  0.51100000000E-03 0.  1.
         23    2    1    2    0    0  0.00000000000E+00  0.88817841970E-15  0.00000000000E+00  0.91188000000E+02  0.91188000000E+02 0.  0.
    9900012    2    3    3    0    0  0.35467684571E+02  0.77966243354E+01  0.60852852131E+01  0.54367154057E+02  0.40000159302E+02 0.  0.
        -12    1    3    3    0    0 -0.35467684571E+02 -0.77966243354E+01 -0.60852852131E+01  0.36820845943E+02  0.00000000000E+00 0.  1.
         11    1    4    4    0    0  0.59714863717E+01  0.90774259027E+01 -0.45682217462E+01  0.11786728159E+02  0.51100000000E-03 0. -1.
        -11    1    4    4    0    0  0.23923240957E+02 -0.89540697052E+01 -0.32506523060E+01  0.25750020638E+02  0.51100000000E-03 0.  1.
        -12    1    4    4    0    0  0.55729572426E+01  0.76732681379E+01  0.13904159265E+02  0.16830405260E+02  0.00000000000E+00 0.  1.
</event>
<event>
 8    1  0.1253703E-006  0.9118800E+02  0.7816164E-02  0.1184000E+00
        -11   -1    0    0    0    0  0.00000000000E+00  0.00000000000E+00  0.45593999997E+02  0.45594000000E+02  0.51100000000E-03 0.  1.
         11   -1    0    0    0    0 -0.00000000000E+00 -0.00000000000E+00 -0.45593999997E+02  0.45594000000E+02  0.51100000000E-03 0. -1.
         23    2    1    2    0    0 -0.88817841970E-15 -0.25535129566E-14 -0.71054273576E-14  0.91188000000E+02  0.91188000000E+02 0.  0.
    9900012    2    3    3    0    0  0.68461583149E+01 -0.13700681267E+00 -0.36178616872E+02  0.54367068815E+02  0.39999964978E+02 0.  0.
        -12    1    3    3    0    0 -0.68461583149E+01  0.13700681267E+00  0.36178616872E+02  0.36820931185E+02  0.00000000000E+00 0.  1.
         11    1    4    4    0    0  0.13250055033E+01 -0.14477251717E+02 -0.13312005609E+01  0.14598580481E+02  0.51100000000E-03 0. -1.
        -11    1    4    4    0    0 -0.27178490037E+01  0.32047067706E+01 -0.33994903163E+01  0.54049406439E+01  0.51100000000E-03 0.  1.
         12    1    4    4    0    0  0.82390018153E+01  0.11135538134E+02 -0.31447925995E+02  0.34363547690E+02  0.00000000000E+00 0. -1.
</event>
<event>
 8    1  0.1253703E-006  0.9118800E+02  0.7816164E-02  0.1184000E+00
        -11   -1    0    0    0    0  0.00000000000E+00  0.00000000000E+00  0.45593999997E+02  0.45594000000E+02  0.51100000000E-03 0. -1.
         11   -1    0    0    0    0 -0.00000000000E+00 -0.00000000000E+00 -0.45593999997E+02  0.45594000000E+02  0.51100000000E-03 0.  1.
         23    2    1    2    0    0 -0.17763568394E-14 -0.17763568394E-14  0.00000000000E+00  0.91188000000E+02  0.91188000000E+02 0.  0.
    9900012    2    3    3    0    0  0.12236101685E+02 -0.12232939633E+02 -0.32502514694E+02  0.54367075814E+02  0.39999980932E+02 0.  0.
         12    1    3    3    0    0 -0.12236101685E+02  0.12232939633E+02  0.32502514694E+02  0.36820924186E+02  0.00000000000E+00 0. -1.
         11    1    4    4    0    0  0.17923951444E+02 -0.91311618147E+01 -0.61765507017E+01  0.21042716799E+02  0.51100000000E-03 0. -1.
        -11    1    4    4    0    0  0.21213192462E+01 -0.98283692146E+01 -0.11620613004E+02  0.15366700479E+02  0.51100000000E-03 0.  1.
         12    1    4    4    0    0 -0.78091690056E+01  0.67265913965E+01 -0.14705350988E+02  0.17957658535E+02  0.00000000000E+00 0. -1.
</event>
<event>
 8    1  0.1253703E-006  0.9118800E+02  0.7816164E-02  0.1184000E+00
        -11   -1    0    0    0    0  0.00000000000E+00  0.00000000000E+00  0.45593999997E+02  0.45594000000E+02  0.51100000000E-03 0.  1.
         11   -1    0    0    0    0 -0.00000000000E+00 -0.00000000000E+00 -0.45593999997E+02  0.45594000000E+02  0.51100000000E-03 0. -1.
         23    2    1    2    0    0 -0.88817841970E-15  0.00000000000E+00  0.00000000000E+00  0.91188000000E+02  0.91188000000E+02 0.  0.
    9900012    2    3    3    0    0 -0.11056165927E+01 -0.36558320819E+01  0.36622278830E+02  0.54367098287E+02  0.40000032164E+02 0.  0.
         12    1    3    3    0    0  0.11056165927E+01  0.36558320819E+01 -0.36622278830E+02  0.36820901713E+02  0.00000000000E+00 0. -1.
         11    1    4    4    0    0 -0.51685060869E+01  0.14926032265E+02  0.21342759776E+02  0.26552086349E+02  0.51100000000E-03 0. -1.
        -11    1    4    4    0    0  0.54412963762E+01 -0.34726757916E+01  0.25109703994E+00  0.64598942245E+01  0.51100000000E-03 0.  1.
        -12    1    4    4    0    0 -0.13784068820E+01 -0.15109188555E+02  0.15028422014E+02  0.21355117714E+02  0.00000000000E+00 0.  1.
</event>
<event>
 8    1  0.1253703E-006  0.9118800E+02  0.7816164E-02  0.1184000E+00
        -11   -1    0    0    0    0  0.00000000000E+00  0.00000000000E+00  0.45593999997E+02  0.45594000000E+02  0.51100000000E-03 0. -1.
         11   -1    0    0    0    0 -0.00000000000E+00 -0.00000000000E+00 -0.45593999997E+02  0.45594000000E+02  0.51100000000E-03 0.  1.
         23    2    1    2    0    0  0.35527136788E-14  0.00000000000E+00 -0.35527136788E-14  0.91188000000E+02  0.91188000000E+02 0.  0.
    9900012    2    3    3    0    0  0.30017278294E+02  0.57747737982E+01  0.20527941252E+02  0.54367063284E+02  0.39999952368E+02 0.  0.
        -12    1    3    3    0    0 -0.30017278294E+02 -0.57747737982E+01 -0.20527941252E+02  0.36820936716E+02  0.00000000000E+00 0.  1.
         11    1    4    4    0    0  0.16534284917E+02 -0.24174988297E+01  0.20080856188E+02  0.26124082066E+02  0.51100000000E-03 0.  1.
        -11    1    4    4    0    0  0.17157962410E+02 -0.11968279001E+01  0.38056193626E+01  0.17615641063E+02  0.51100000000E-03 0. -1.
        -12    1    4    4    0    0 -0.36749690325E+01  0.93891005280E+01 -0.33585342984E+01  0.10627340154E+02  0.00000000000E+00 0.  1.
</event>
<event>
 8    1  0.1253703E-006  0.9118800E+02  0.7816164E-02  0.1184000E+00
        -11   -1    0    0    0    0  0.00000000000E+00  0.00000000000E+00  0.45593999997E+02  0.45594000000E+02  0.51100000000E-03 0.  1.
         11   -1    0    0    0    0 -0.00000000000E+00 -0.00000000000E+00 -0.45593999997E+02  0.45594000000E+02  0.51100000000E-03 0. -1.
         23    2    1    2    0    0  0.00000000000E+00  0.00000000000E+00 -0.13322676296E-14  0.91188000000E+02  0.91188000000E+02 0.  0.
    9900012    2    3    3    0    0  0.21369660085E+02 -0.29796382743E+02 -0.33604679751E+01  0.54367088255E+02  0.40000009296E+02 0.  0.
         12    1    3    3    0    0 -0.21369660085E+02  0.29796382743E+02  0.33604679751E+01  0.36820911745E+02  0.00000000000E+00 0. -1.
         11    1    4    4    0    0  0.12014945170E+02 -0.90242280976E+00 -0.32965902522E+01  0.12491628473E+02  0.51100000000E-03 0. -1.
        -11    1    4    4    0    0 -0.92899478515E+01 -0.16563806679E+02  0.32845559422E+01  0.19273067498E+02  0.51100000000E-03 0.  1.
        -12    1    4    4    0    0  0.18644662767E+02 -0.12330153254E+02 -0.33484336651E+01  0.22602392284E+02  0.00000000000E+00 0.  1.
</event>
<event>
 8    1  0.1253703E-006  0.9118800E+02  0.7816164E-02  0.1184000E+00
        -11   -1    0    0    0    0  0.00000000000E+00  0.00000000000E+00  0.45593999997E+02  0.45594000000E+02  0.51100000000E-03 0.  1.
         11   -1    0    0    0    0 -0.00000000000E+00 -0.00000000000E+00 -0.45593999997E+02  0.45594000000E+02  0.51100000000E-03 0. -1.
         23    2    1    2    0    0  0.00000000000E+00  0.88817841970E-15  0.71054273576E-14  0.91188000000E+02  0.91188000000E+02 0.  0.
    9900012    2    3    3    0    0 -0.17450106794E+02  0.24486765012E+01 -0.32330759079E+02  0.54367078958E+02  0.39999988101E+02 0.  0.
        -12    1    3    3    0    0  0.17450106794E+02 -0.24486765012E+01  0.32330759079E+02  0.36820921042E+02  0.00000000000E+00 0.  1.
         11    1    4    4    0    0 -0.70884065893E+01 -0.35698385504E+01 -0.25955551139E+02  0.27141847587E+02  0.51100000000E-03 0. -1.
        -11    1    4    4    0    0 -0.11921895899E+02 -0.54934307692E+01 -0.81827673068E+01  0.15468259906E+02  0.51100000000E-03 0.  1.
        -12    1    4    4    0    0  0.15601956945E+01  0.11511945821E+02  0.18075593664E+01  0.11756971466E+02  0.00000000000E+00 0.  1.
</event>
<event>
 8    1  0.1253703E-006  0.9118800E+02  0.7816164E-02  0.1184000E+00
        -11   -1    0    0    0    0  0.00000000000E+00  0.00000000000E+00  0.45593999997E+02  0.45594000000E+02  0.51100000000E-03 0. -1.
         11   -1    0    0    0    0 -0.00000000000E+00 -0.00000000000E+00 -0.45593999997E+02  0.45594000000E+02  0.51100000000E-03 0.  1.
         23    2    1    2    0    0  0.00000000000E+00  0.71054273576E-14  0.00000000000E+00  0.91188000000E+02  0.91188000000E+02 0.  0.
    9900012    2    3    3    0    0 -0.10171318211E+02  0.29049611898E+02  0.20210030171E+02  0.54367068656E+02  0.39999964614E+02 0.  0.
        -12    1    3    3    0    0  0.10171318211E+02 -0.29049611898E+02 -0.20210030171E+02  0.36820931344E+02  0.00000000000E+00 0.  1.
         11    1    4    4    0    0 -0.46585852358E+01 -0.41175192461E-01  0.25172872380E+01  0.52953609033E+01  0.51100000000E-03 0. -1.
        -11    1    4    4    0    0 -0.18625146341E+02  0.23076192965E+02  0.54510712966E+01  0.30151632403E+02  0.51100000000E-03 0.  1.
         12    1    4    4    0    0  0.13112413366E+02  0.60145941248E+01  0.12241671636E+02  0.18920075349E+02  0.00000000000E+00 0. -1.
</event>
<event>
 8    1  0.1253703E-006  0.9118800E+02  0.7816164E-02  0.1184000E+00
        -11   -1    0    0    0    0  0.00000000000E+00  0.00000000000E+00  0.45593999997E+02  0.45594000000E+02  0.51100000000E-03 0.  1.
         11   -1    0    0    0    0 -0.00000000000E+00 -0.00000000000E+00 -0.45593999997E+02  0.45594000000E+02  0.51100000000E-03 0. -1.
         23    2    1    2    0    0  0.00000000000E+00  0.00000000000E+00  0.00000000000E+00  0.91188000000E+02  0.91188000000E+02 0.  0.
    9900012    2    3    3    0    0 -0.21571141621E+02  0.19759355252E+02 -0.22361425072E+02  0.54367087436E+02  0.40000007429E+02 0.  0.
        -12    1    3    3    0    0  0.21571141621E+02 -0.19759355252E+02  0.22361425072E+02  0.36820912564E+02  0.00000000000E+00 0.  1.
         11    1    4    4    0    0  0.16608470268E+01  0.21248312296E+02 -0.12462498428E+02  0.24689330806E+02  0.51100000000E-03 0. -1.
        -11    1    4    4    0    0 -0.95525057782E+01 -0.74580135687E+01 -0.68660917665E+00  0.12138524023E+02  0.51100000000E-03 0.  1.
        -12    1    4    4    0    0 -0.13679482870E+02  0.59690565239E+01 -0.92123174665E+01  0.17539232608E+02  0.00000000000E+00 0.  1.
</event>
<event>
 8    1  0.1253703E-006  0.9118800E+02  0.7816164E-02  0.1184000E+00
        -11   -1    0    0    0    0  0.00000000000E+00  0.00000000000E+00  0.45593999997E+02  0.45594000000E+02  0.51100000000E-03 0.  1.
         11   -1    0    0    0    0 -0.00000000000E+00 -0.00000000000E+00 -0.45593999997E+02  0.45594000000E+02  0.51100000000E-03 0. -1.
         23    2    1    2    0    0 -0.17763568394E-14  0.00000000000E+00  0.35527136788E-14  0.91188000000E+02  0.91188000000E+02 0.  0.
    9900012    2    3    3    0    0  0.15478613232E+02  0.10000315556E+02  0.31877662530E+02  0.54367093613E+02  0.40000021509E+02 0.  0.
         12    1    3    3    0    0 -0.15478613232E+02 -0.10000315556E+02 -0.31877662530E+02  0.36820906387E+02  0.00000000000E+00 0. -1.
         11    1    4    4    0    0 -0.47415360061E+01  0.84870089334E+01 -0.25229625089E+01  0.10043745537E+02  0.51100000000E-03 0. -1.
        -11    1    4    4    0    0  0.87971032436E+00  0.23420415299E+01 -0.19282839122E+01  0.31586908506E+01  0.51100000000E-03 0.  1.
        -12    1    4    4    0    0  0.19340438914E+02 -0.82873490691E+00  0.36328908951E+02  0.41164657225E+02  0.00000000000E+00 0.  1.
</event>
<event>
 8    1  0.1253703E-006  0.9118800E+02  0.7816164E-02  0.1184000E+00
        -11   -1    0    0    0    0  0.00000000000E+00  0.00000000000E+00  0.45593999997E+02  0.45594000000E+02  0.51100000000E-03 0. -1.
         11   -1    0    0    0    0 -0.00000000000E+00 -0.00000000000E+00 -0.45593999997E+02  0.45594000000E+02  0.51100000000E-03 0.  1.
         23    2    1    2    0    0 -0.17763568394E-14  0.00000000000E+00  0.00000000000E+00  0.91188000000E+02  0.91188000000E+02 0.  0.
    9900012    2    3    3    0    0 -0.13786987465E+02  0.16556768942E+02  0.29859206267E+02  0.54367084475E+02  0.40000000678E+02 0.  0.
        -12    1    3    3    0    0  0.13786987465E+02 -0.16556768942E+02 -0.29859206267E+02  0.36820915525E+02  0.00000000000E+00 0.  1.
         11    1    4    4    0    0 -0.78703612393E+01  0.36426197541E+01  0.13132573570E+02  0.15737717545E+02  0.51100000000E-03 0. -1.
        -11    1    4    4    0    0  0.13067224839E+02  0.44665147034E+01  0.88821839237E+01  0.16419357786E+02  0.51100000000E-03 0.  1.
         12    1    4    4    0    0 -0.18983851065E+02  0.84476344844E+01  0.78444487738E+01  0.22210009144E+02  0.00000000000E+00 0. -1.
</event>
<event>
 8    1  0.1253703E-006  0.9118800E+02  0.7816164E-02  0.1184000E+00
        -11   -1    0    0    0    0  0.00000000000E+00  0.00000000000E+00  0.45593999997E+02  0.45594000000E+02  0.51100000000E-03 0. -1.
         11   -1    0    0    0    0 -0.00000000000E+00 -0.00000000000E+00 -0.45593999997E+02  0.45594000000E+02  0.51100000000E-03 0.  1.
         23    2    1    2    0    0 -0.88817841970E-15 -0.71054273576E-14  0.71054273576E-14  0.91188000000E+02  0.91188000000E+02 0.  0.
    9900012    2    3    3    0    0  0.73626787727E+01 -0.21696629684E+02  0.28823857577E+02  0.54367251176E+02  0.40000380703E+02 0.  0.
        -12    1    3    3    0    0 -0.73626787727E+01  0.21696629684E+02 -0.28823857577E+02  0.36820748824E+02  0.00000000000E+00 0.  1.
         11    1    4    4    0    0  0.11728629624E+02 -0.21491970756E+02  0.24940707247E+02  0.34950027726E+02  0.51100000000E-03 0. -1.
        -11    1    4    4    0    0 -0.30763022364E+01  0.63581346454E+01 -0.47385073895E+01  0.85054667221E+01  0.51100000000E-03 0.  1.
        -12    1    4    4    0    0 -0.12896486145E+01 -0.65627935736E+01  0.86216577198E+01  0.10911756727E+02  0.00000000000E+00 0.  1.
</event>
<event>
 8    1  0.1253703E-006  0.9118800E+02  0.7816164E-02  0.1184000E+00
        -11   -1    0    0    0    0  0.00000000000E+00  0.00000000000E+00  0.45593999997E+02  0.45594000000E+02  0.51100000000E-03 0.  1.
         11   -1    0    0    0    0 -0.00000000000E+00 -0.00000000000E+00 -0.45593999997E+02  0.45594000000E+02  0.51100000000E-03 0. -1.
         23    2    1    2    0    0 -0.35527136788E-14 -0.17763568394E-14  0.00000000000E+00  0.91188000000E+02  0.91188000000E+02 0.  0.
    9900012    2    3    3    0    0  0.20825342749E+02 -0.10468326617E+02 -0.28504373201E+02  0.54367081294E+02  0.39999993426E+02 0.  0.
        -12    1    3    3    0    0 -0.20825342749E+02  0.10468326617E+02  0.28504373201E+02  0.36820918706E+02  0.00000000000E+00 0.  1.
         11    1    4    4    0    0  0.34524300690E+01  0.10752091224E+01 -0.78012563232E+01  0.85985433952E+01  0.51100000000E-03 0. -1.
        -11    1    4    4    0    0 -0.47319515993E+01 -0.17140858924E+02 -0.11513054031E+02  0.21183739613E+02  0.51100000000E-03 0.  1.
         12    1    4    4    0    0  0.22104864279E+02  0.55973231848E+01 -0.91900628474E+01  0.24584798286E+02  0.00000000000E+00 0. -1.
</event>
<event>
 8    1  0.1253703E-006  0.9118800E+02  0.7816164E-02  0.1184000E+00
        -11   -1    0    0    0    0  0.00000000000E+00  0.00000000000E+00  0.45593999997E+02  0.45594000000E+02  0.51100000000E-03 0.  1.
         11   -1    0    0    0    0 -0.00000000000E+00 -0.00000000000E+00 -0.45593999997E+02  0.45594000000E+02  0.51100000000E-03 0. -1.
         23    2    1    2    0    0  0.00000000000E+00  0.17763568394E-14 -0.53290705182E-14  0.91188000000E+02  0.91188000000E+02 0.  0.
    9900012    2    3    3    0    0 -0.32277643583E+02 -0.96285833275E+01  0.14873602299E+02  0.54367082880E+02  0.39999997042E+02 0.  0.
         12    1    3    3    0    0  0.32277643583E+02  0.96285833275E+01 -0.14873602299E+02  0.36820917120E+02  0.00000000000E+00 0. -1.
         11    1    4    4    0    0 -0.84459857366E+01 -0.92884707042E+01  0.29711159909E+01  0.12901081101E+02  0.51100000000E-03 0. -1.
        -11    1    4    4    0    0 -0.16956473168E+02 -0.15561386717E+02  0.71989092556E+01  0.24114374003E+02  0.51100000000E-03 0.  1.
         12    1    4    4    0    0 -0.68751846786E+01  0.15221274093E+02  0.47035770528E+01  0.17351627776E+02  0.00000000000E+00 0. -1.
</event>
<event>
 8    1  0.1253703E-006  0.9118800E+02  0.7816164E-02  0.1184000E+00
        -11   -1    0    0    0    0  0.00000000000E+00  0.00000000000E+00  0.45593999997E+02  0.45594000000E+02  0.51100000000E-03 0. -1.
         11   -1    0    0    0    0 -0.00000000000E+00 -0.00000000000E+00 -0.45593999997E+02  0.45594000000E+02  0.51100000000E-03 0.  1.
         23    2    1    2    0    0 -0.24980018054E-15  0.00000000000E+00 -0.17763568394E-14  0.91188000000E+02  0.91188000000E+02 0.  0.
    9900012    2    3    3    0    0 -0.19262453239E+00  0.35220647260E+02 -0.10735430454E+02  0.54367074364E+02  0.39999977628E+02 0.  0.
        -12    1    3    3    0    0  0.19262453239E+00 -0.35220647260E+02  0.10735430454E+02  0.36820925636E+02  0.00000000000E+00 0.  1.
         11    1    4    4    0    0  0.88683881569E+01  0.36836197528E+02 -0.15595503561E+02  0.40972838423E+02  0.51100000000E-03 0. -1.
        -11    1    4    4    0    0 -0.55969287856E+00 -0.30103648251E+01  0.35370124415E+01  0.46782485794E+01  0.51100000000E-03 0.  1.
         12    1    4    4    0    0 -0.85013198107E+01  0.13948145569E+01  0.13230606653E+01  0.87159873621E+01  0.00000000000E+00 0. -1.
</event>
<event>
 8    1  0.1253703E-006  0.9118800E+02  0.7816164E-02  0.1184000E+00
        -11   -1    0    0    0    0  0.00000000000E+00  0.00000000000E+00  0.45593999997E+02  0.45594000000E+02  0.51100000000E-03 0.  1.
         11   -1    0    0    0    0 -0.00000000000E+00 -0.00000000000E+00 -0.45593999997E+02  0.45594000000E+02  0.51100000000E-03 0. -1.
         23    2    1    2    0    0  0.00000000000E+00  0.00000000000E+00  0.00000000000E+00  0.91188000000E+02  0.91188000000E+02 0.  0.
    9900012    2    3    3    0    0 -0.60786746284E+01  0.15381648303E+00 -0.36315389798E+02  0.54367061922E+02  0.39999949264E+02 0.  0.
        -12    1    3    3    0    0  0.60786746284E+01 -0.15381648303E+00  0.36315389798E+02  0.36820938078E+02  0.00000000000E+00 0.  1.
         11    1    4    4    0    0  0.29874654418E+01 -0.13492725177E+02 -0.21511066525E+02  0.25567646856E+02  0.51100000000E-03 0. -1.
        -11    1    4    4    0    0 -0.67560298855E+01  0.90328586659E+01  0.17903373595E+01  0.11421111313E+02  0.51100000000E-03 0.  1.
        -12    1    4    4    0    0 -0.23101101847E+01  0.46136829943E+01 -0.16594660633E+02  0.17378303753E+02  0.00000000000E+00 0.  1.
</event>
<event>
 8    1  0.1253703E-006  0.9118800E+02  0.7816164E-02  0.1184000E+00
        -11   -1    0    0    0    0  0.00000000000E+00  0.00000000000E+00  0.45593999997E+02  0.45594000000E+02  0.51100000000E-03 0.  1.
         11   -1    0    0    0    0 -0.00000000000E+00 -0.00000000000E+00 -0.45593999997E+02  0.45594000000E+02  0.51100000000E-03 0. -1.
         23    2    1    2    0    0 -0.35527136788E-14  0.00000000000E+00 -0.17763568394E-14  0.91188000000E+02  0.91188000000E+02 0.  0.
    9900012    2    3    3    0    0  0.27202388572E+02 -0.19500084103E+02  0.15347821836E+02  0.54367097523E+02  0.40000030424E+02 0.  0.
         12    1    3    3    0    0 -0.27202388572E+02  0.19500084103E+02 -0.15347821836E+02  0.36820902477E+02  0.00000000000E+00 0. -1.
         11    1    4    4    0    0  0.13907436385E+02  0.68541699361E+01  0.84550681544E+01  0.17660255096E+02  0.51100000000E-03 0. -1.
        -11    1    4    4    0    0  0.17879748326E+02 -0.15455659095E+02  0.14159885724E+01  0.23676313525E+02  0.51100000000E-03 0.  1.
         12    1    4    4    0    0 -0.45847961384E+01 -0.10898594945E+02  0.54767651094E+01  0.13030528902E+02  0.00000000000E+00 0. -1.
</event>
<event>
 8    1  0.1253703E-006  0.9118800E+02  0.7816164E-02  0.1184000E+00
        -11   -1    0    0    0    0  0.00000000000E+00  0.00000000000E+00  0.45593999997E+02  0.45594000000E+02  0.51100000000E-03 0. -1.
         11   -1    0    0    0    0 -0.00000000000E+00 -0.00000000000E+00 -0.45593999997E+02  0.45594000000E+02  0.51100000000E-03 0.  1.
         23    2    1    2    0    0  0.00000000000E+00  0.35527136788E-14  0.00000000000E+00  0.91188000000E+02  0.91188000000E+02 0.  0.
    9900012    2    3    3    0    0  0.20590516829E+02  0.29213146652E+02 -0.88543888749E+01  0.54367115669E+02  0.40000071790E+02 0.  0.
        -12    1    3    3    0    0 -0.20590516829E+02 -0.29213146652E+02  0.88543888749E+01  0.36820884331E+02  0.00000000000E+00 0.  1.
         11    1    4    4    0    0  0.15654897336E+02  0.11054309092E+02 -0.21622204092E+02  0.28892789241E+02  0.51100000000E-03 0. -1.
        -11    1    4    4    0    0  0.14736523396E+01 -0.50789104220E+00  0.45087939519E+01  0.47706213108E+01  0.51100000000E-03 0.  1.
         12    1    4    4    0    0  0.34619671531E+01  0.18666728602E+02  0.82590212650E+01  0.20703705116E+02  0.00000000000E+00 0. -1.
</event>
<event>
 8    1  0.1253703E-006  0.9118800E+02  0.7816164E-02  0.1184000E+00
        -11   -1    0    0    0    0  0.00000000000E+00  0.00000000000E+00  0.45593999997E+02  0.45594000000E+02  0.51100000000E-03 0. -1.
         11   -1    0    0    0    0 -0.00000000000E+00 -0.00000000000E+00 -0.45593999997E+02  0.45594000000E+02  0.51100000000E-03 0.  1.
         23    2    1    2    0    0  0.71054273576E-14  0.17763568394E-14  0.00000000000E+00  0.91188000000E+02  0.91188000000E+02 0.  0.
    9900012    2    3    3    0    0 -0.32727954663E+02  0.79853966725E+01 -0.14862480353E+02  0.54367096987E+02  0.40000029202E+02 0.  0.
         12    1    3    3    0    0  0.32727954663E+02 -0.79853966725E+01  0.14862480353E+02  0.36820903013E+02  0.00000000000E+00 0. -1.
         11    1    4    4    0    0 -0.35838693623E+01 -0.59437242391E+01 -0.15587576690E+02  0.17062957679E+02  0.51100000000E-03 0. -1.
        -11    1    4    4    0    0 -0.15376573908E+02  0.17086154797E+02  0.22545772996E+01  0.23096727689E+02  0.51100000000E-03 0.  1.
        -12    1    4    4    0    0 -0.13767511392E+02 -0.31570338851E+01 -0.15294809628E+01  0.14207411619E+02  0.00000000000E+00 0.  1.
</event>
<event>
 8    1  0.1253703E-006  0.9118800E+02  0.7816164E-02  0.1184000E+00
        -11   -1    0    0    0    0  0.00000000000E+00  0.00000000000E+00  0.45593999997E+02  0.45594000000E+02  0.51100000000E-03 0.  1.
         11   -1    0    0    0    0 -0.00000000000E+00 -0.00000000000E+00 -0.45593999997E+02  0.45594000000E+02  0.51100000000E-03 0. -1.
         23    2    1    2    0    0  0.35527136788E-14 -0.17763568394E-14 -0.71054273576E-14  0.91188000000E+02  0.91188000000E+02 0.  0.
    9900012    2    3    3    0    0 -0.17844121796E+02  0.10767539226E+02  0.30355022382E+02  0.54367082474E+02  0.39999996115E+02 0.  0.
         12    1    3    3    0    0  0.17844121796E+02 -0.10767539226E+02 -0.30355022382E+02  0.36820917526E+02  0.00000000000E+00 0. -1.
         11    1    4    4    0    0  0.10577286888E+02  0.55310072618E+01  0.77854036221E+01  0.14250738544E+02  0.51100000000E-03 0. -1.
        -11    1    4    4    0    0  0.15770628000E+01  0.61719935250E+00  0.44636524804E+01  0.47741235680E+01  0.51100000000E-03 0.  1.
        -12    1    4    4    0    0 -0.29998471484E+02  0.46193326120E+01  0.18105966280E+02  0.35342220361E+02  0.00000000000E+00 0.  1.
</event>
<event>
 8    1  0.1253703E-006  0.9118800E+02  0.7816164E-02  0.1184000E+00
        -11   -1    0    0    0    0  0.00000000000E+00  0.00000000000E+00  0.45593999997E+02  0.45594000000E+02  0.51100000000E-03 0.  1.
         11   -1    0    0    0    0 -0.00000000000E+00 -0.00000000000E+00 -0.45593999997E+02  0.45594000000E+02  0.51100000000E-03 0. -1.
         23    2    1    2    0    0  0.00000000000E+00  0.17763568394E-14  0.35527136788E-14  0.91188000000E+02  0.91188000000E+02 0.  0.
    9900012    2    3    3    0    0 -0.33938992771E+02  0.11738073940E+02  0.81329130261E+01  0.54367056443E+02  0.39999936773E+02 0.  0.
        -12    1    3    3    0    0  0.33938992771E+02 -0.11738073940E+02 -0.81329130261E+01  0.36820943557E+02  0.00000000000E+00 0.  1.
         11    1    4    4    0    0 -0.13108467158E+01  0.51752367020E+01 -0.11271970521E+02  0.12472317897E+02  0.51100000000E-03 0. -1.
        -11    1    4    4    0    0 -0.85644102109E+00 -0.36318141237E+01  0.24811938330E+01  0.44810588202E+01  0.51100000000E-03 0.  1.
         12    1    4    4    0    0 -0.31771705034E+02  0.10194651362E+02  0.16923689714E+02  0.37413679726E+02  0.00000000000E+00 0. -1.
</event>
<event>
 8    1  0.1253703E-006  0.9118800E+02  0.7816164E-02  0.1184000E+00
        -11   -1    0    0    0    0  0.00000000000E+00  0.00000000000E+00  0.45593999997E+02  0.45594000000E+02  0.51100000000E-03 0.  1.
         11   -1    0    0    0    0 -0.00000000000E+00 -0.00000000000E+00 -0.45593999997E+02  0.45594000000E+02  0.51100000000E-03 0. -1.
         23    2    1    2    0    0  0.00000000000E+00  0.00000000000E+00  0.00000000000E+00  0.91188000000E+02  0.91188000000E+02 0.  0.
    9900012    2    3    3    0    0  0.31289519475E+02 -0.13879941183E+02  0.13568096723E+02  0.54367081422E+02  0.39999993718E+02 0.  0.
        -12    1    3    3    0    0 -0.31289519475E+02  0.13879941183E+02 -0.13568096723E+02  0.36820918578E+02  0.00000000000E+00 0.  1.
         11    1    4    4    0    0  0.38113247210E+01  0.21641718091E+01  0.50074710462E+01  0.66546677068E+01  0.51100000000E-03 0. -1.
        -11    1    4    4    0    0 -0.92706068036E+00  0.74637837856E+01 -0.42990146073E+01  0.86630847137E+01  0.51100000000E-03 0.  1.
         12    1    4    4    0    0  0.28405255434E+02 -0.23507896778E+02  0.12859640285E+02  0.39049329002E+02  0.00000000000E+00 0. -1.
</event>
<event>
 8    1  0.1253703E-006  0.9118800E+02  0.7816164E-02  0.1184000E+00
        -11   -1    0    0    0    0  0.00000000000E+00  0.00000000000E+00  0.45593999997E+02  0.45594000000E+02  0.51100000000E-03 0.  1.
         11   -1    0    0    0    0 -0.00000000000E+00 -0.00000000000E+00 -0.45593999997E+02  0.45594000000E+02  0.51100000000E-03 0. -1.
         23    2    1    2    0    0  0.00000000000E+00 -0.17763568394E-14  0.00000000000E+00  0.91188000000E+02  0.91188000000E+02 0.  0.
    9900012    2    3    3    0    0 -0.34297042627E+02  0.11281799606E+02  0.72259081308E+01  0.54367083612E+02  0.39999998711E+02 0.  0.
         12    1    3    3    0    0  0.34297042627E+02 -0.11281799606E+02 -0.72259081308E+01  0.36820916388E+02  0.00000000000E+00 0. -1.
         11    1    4    4    0    0 -0.12516621464E+02 -0.81514161911E+01 -0.76914259465E+01  0.16800875934E+02  0.51100000000E-03 0. -1.
        -11    1    4    4    0    0 -0.64156864661E+00  0.12076931906E+02  0.53824771734E+01  0.13237634055E+02  0.51100000000E-03 0.  1.
        -12    1    4    4    0    0 -0.21138852517E+02  0.73562838914E+01  0.95348569039E+01  0.24328573624E+02  0.00000000000E+00 0.  1.
</event>
<event>
 8    1  0.1253703E-006  0.9118800E+02  0.7816164E-02  0.1184000E+00
        -11   -1    0    0    0    0  0.00000000000E+00  0.00000000000E+00  0.45593999997E+02  0.45594000000E+02  0.51100000000E-03 0.  1.
         11   -1    0    0    0    0 -0.00000000000E+00 -0.00000000000E+00 -0.45593999997E+02  0.45594000000E+02  0.51100000000E-03 0. -1.
         23    2    1    2    0    0  0.00000000000E+00  0.11102230246E-15  0.88817841970E-15  0.91188000000E+02  0.91188000000E+02 0.  0.
    9900012    2    3    3    0    0  0.36537909590E+02  0.99184029711E+00  0.44473286410E+01  0.54367064156E+02  0.39999954356E+02 0.  0.
         12    1    3    3    0    0 -0.36537909590E+02 -0.99184029711E+00 -0.44473286410E+01  0.36820935844E+02  0.00000000000E+00 0. -1.
         11    1    4    4    0    0  0.25903187178E+02  0.64914562572E+01 -0.12490113627E+02  0.29480791187E+02  0.51100000000E-03 0. -1.
        -11    1    4    4    0    0  0.44497722544E+01  0.12298137922E+01  0.14795037990E+02  0.15498582660E+02  0.51100000000E-03 0.  1.
         12    1    4    4    0    0  0.61849501581E+01 -0.67294297523E+01  0.21424042784E+01  0.93876903092E+01  0.00000000000E+00 0. -1.
</event>
<event>
 8    1  0.1253703E-006  0.9118800E+02  0.7816164E-02  0.1184000E+00
        -11   -1    0    0    0    0  0.00000000000E+00  0.00000000000E+00  0.45593999997E+02  0.45594000000E+02  0.51100000000E-03 0. -1.
         11   -1    0    0    0    0 -0.00000000000E+00 -0.00000000000E+00 -0.45593999997E+02  0.45594000000E+02  0.51100000000E-03 0.  1.
         23    2    1    2    0    0  0.35527136788E-14  0.00000000000E+00  0.00000000000E+00  0.91188000000E+02  0.91188000000E+02 0.  0.
    9900012    2    3    3    0    0  0.18264621166E+02  0.26682387568E+02  0.17613490500E+02  0.54367065191E+02  0.39999956715E+02 0.  0.
        -12    1    3    3    0    0 -0.18264621166E+02 -0.26682387568E+02 -0.17613490500E+02  0.36820934809E+02  0.00000000000E+00 0.  1.
         11    1    4    4    0    0  0.14755119425E+02  0.25863455031E+02  0.10044234225E+02  0.31424807029E+02  0.51100000000E-03 0. -1.
        -11    1    4    4    0    0 -0.45931600476E+01  0.63145959390E+00 -0.57282615222E+01  0.73694532205E+01  0.51100000000E-03 0.  1.
         12    1    4    4    0    0  0.81026617885E+01  0.18747294263E+00  0.13297517797E+02  0.15572804941E+02  0.00000000000E+00 0. -1.
</event>
<event>
 8    1  0.1253703E-006  0.9118800E+02  0.7816164E-02  0.1184000E+00
        -11   -1    0    0    0    0  0.00000000000E+00  0.00000000000E+00  0.45593999997E+02  0.45594000000E+02  0.51100000000E-03 0. -1.
         11   -1    0    0    0    0 -0.00000000000E+00 -0.00000000000E+00 -0.45593999997E+02  0.45594000000E+02  0.51100000000E-03 0.  1.
         23    2    1    2    0    0  0.88817841970E-15  0.17763568394E-14 -0.71054273576E-14  0.91188000000E+02  0.91188000000E+02 0.  0.
    9900012    2    3    3    0    0  0.65422305704E+01 -0.15924182908E+02  0.32548412506E+02  0.54367088295E+02  0.40000009386E+02 0.  0.
        -12    1    3    3    0    0 -0.65422305704E+01  0.15924182908E+02 -0.32548412506E+02  0.36820911705E+02  0.00000000000E+00 0.  1.
         11    1    4    4    0    0 -0.59372203774E+01 -0.11209732525E+02  0.12544399663E+02  0.17840141599E+02  0.51100000000E-03 0. -1.
        -11    1    4    4    0    0 -0.27398583253E+01  0.69708249761E+01  0.14892557368E+02  0.16669957699E+02  0.51100000000E-03 0.  1.
        -12    1    4    4    0    0  0.15219309273E+02 -0.11685275358E+02  0.51114554759E+01  0.19856988997E+02  0.00000000000E+00 0.  1.
</event>
<event>
 8    1  0.1253703E-006  0.9118800E+02  0.7816164E-02  0.1184000E+00
        -11   -1    0    0    0    0  0.00000000000E+00  0.00000000000E+00  0.45593999997E+02  0.45594000000E+02  0.51100000000E-03 0.  1.
         11   -1    0    0    0    0 -0.00000000000E+00 -0.00000000000E+00 -0.45593999997E+02  0.45594000000E+02  0.51100000000E-03 0. -1.
         23    2    1    2    0    0 -0.35527136788E-14  0.35527136788E-14  0.00000000000E+00  0.91188000000E+02  0.91188000000E+02 0.  0.
    9900012    2    3    3    0    0 -0.20739892641E+02  0.29657178563E+02  0.67888497045E+01  0.54367083833E+02  0.39999999213E+02 0.  0.
         12    1    3    3    0    0  0.20739892641E+02 -0.29657178563E+02 -0.67888497045E+01  0.36820916167E+02  0.00000000000E+00 0. -1.
         11    1    4    4    0    0 -0.28655353482E+00 -0.57089064325E+01  0.17887068034E+01  0.59894238349E+01  0.51100000000E-03 0. -1.
        -11    1    4    4    0    0  0.59369247753E+01  0.43275420113E+01  0.13883385696E+01  0.74767760359E+01  0.51100000000E-03 0.  1.
        -12    1    4    4    0    0 -0.26390263881E+02  0.31038542985E+02  0.36118043315E+01  0.40900883962E+02  0.00000000000E+00 0.  1.
</event>
<event>
 8    1  0.1253703E-006  0.9118800E+02  0.7816164E-02  0.1184000E+00
        -11   -1    0    0    0    0  0.00000000000E+00  0.00000000000E+00  0.45593999997E+02  0.45594000000E+02  0.51100000000E-03 0. -1.
         11   -1    0    0    0    0 -0.00000000000E+00 -0.00000000000E+00 -0.45593999997E+02  0.45594000000E+02  0.51100000000E-03 0.  1.
         23    2    1    2    0    0  0.00000000000E+00  0.00000000000E+00 -0.17763568394E-14  0.91188000000E+02  0.91188000000E+02 0.  0.
    9900012    2    3    3    0    0 -0.11251587859E+02 -0.34886144682E+02 -0.34840723686E+01  0.54367080940E+02  0.39999992620E+02 0.  0.
         12    1    3    3    0    0  0.11251587859E+02  0.34886144682E+02  0.34840723686E+01  0.36820919060E+02  0.00000000000E+00 0. -1.
         11    1    4    4    0    0 -0.52493537183E+01 -0.10866443271E+01  0.94577247849E+01  0.10871295632E+02  0.51100000000E-03 0. -1.
        -11    1    4    4    0    0 -0.12930096406E+02 -0.27584923020E+02 -0.15009992521E+02  0.33961967653E+02  0.51100000000E-03 0.  1.
        -12    1    4    4    0    0  0.69278622651E+01 -0.62145773347E+01  0.20681953676E+01  0.95338176557E+01  0.00000000000E+00 0.  1.
</event>
<event>
 8    1  0.1253703E-006  0.9118800E+02  0.7816164E-02  0.1184000E+00
        -11   -1    0    0    0    0  0.00000000000E+00  0.00000000000E+00  0.45593999997E+02  0.45594000000E+02  0.51100000000E-03 0. -1.
         11   -1    0    0    0    0 -0.00000000000E+00 -0.00000000000E+00 -0.45593999997E+02  0.45594000000E+02  0.51100000000E-03 0.  1.
         23    2    1    2    0    0  0.35527136788E-14 -0.35527136788E-14  0.17763568394E-14  0.91188000000E+02  0.91188000000E+02 0.  0.
    9900012    2    3    3    0    0 -0.30073605393E+02  0.15824010618E+02 -0.14175972038E+02  0.54367092398E+02  0.40000018741E+02 0.  0.
         12    1    3    3    0    0  0.30073605393E+02 -0.15824010618E+02  0.14175972038E+02  0.36820907602E+02  0.00000000000E+00 0. -1.
         11    1    4    4    0    0 -0.31406524940E+02  0.82756681636E+01 -0.14303388224E+02  0.35488637721E+02  0.51100000000E-03 0. -1.
        -11    1    4    4    0    0  0.49044395181E+00  0.44072327976E+01 -0.85390834806E+01  0.96218596514E+01  0.51100000000E-03 0.  1.
        -12    1    4    4    0    0  0.84247559476E+00  0.31411096568E+01  0.86664996666E+01  0.92565950259E+01  0.00000000000E+00 0.  1.
</event>
<event>
 8    1  0.1253703E-006  0.9118800E+02  0.7816164E-02  0.1184000E+00
        -11   -1    0    0    0    0  0.00000000000E+00  0.00000000000E+00  0.45593999997E+02  0.45594000000E+02  0.51100000000E-03 0.  1.
         11   -1    0    0    0    0 -0.00000000000E+00 -0.00000000000E+00 -0.45593999997E+02  0.45594000000E+02  0.51100000000E-03 0. -1.
         23    2    1    2    0    0  0.00000000000E+00  0.00000000000E+00 -0.17763568394E-14  0.91188000000E+02  0.91188000000E+02 0.  0.
    9900012    2    3    3    0    0  0.30376661104E+02  0.15657676189E+02 -0.13706757797E+02  0.54367087833E+02  0.40000008333E+02 0.  0.
         12    1    3    3    0    0 -0.30376661104E+02 -0.15657676189E+02  0.13706757797E+02  0.36820912167E+02  0.00000000000E+00 0. -1.
         11    1    4    4    0    0  0.19905626664E+02 -0.55017176323E+01 -0.13469105346E+02  0.24656027029E+02  0.51100000000E-03 0. -1.
        -11    1    4    4    0    0  0.20743406698E+01  0.72916107266E+01  0.84220578554E+01  0.11331440111E+02  0.51100000000E-03 0.  1.
         12    1    4    4    0    0  0.83966937709E+01  0.13867783095E+02 -0.86597103063E+01  0.18379620693E+02  0.00000000000E+00 0. -1.
</event>
<event>
 8    1  0.1253703E-006  0.9118800E+02  0.7816164E-02  0.1184000E+00
        -11   -1    0    0    0    0  0.00000000000E+00  0.00000000000E+00  0.45593999997E+02  0.45594000000E+02  0.51100000000E-03 0. -1.
         11   -1    0    0    0    0 -0.00000000000E+00 -0.00000000000E+00 -0.45593999997E+02  0.45594000000E+02  0.51100000000E-03 0.  1.
         23    2    1    2    0    0 -0.35527136788E-14  0.00000000000E+00  0.00000000000E+00  0.91188000000E+02  0.91188000000E+02 0.  0.
    9900012    2    3    3    0    0  0.18104483022E+02 -0.21720639796E+02  0.23584339994E+02  0.54367087578E+02  0.40000007751E+02 0.  0.
        -12    1    3    3    0    0 -0.18104483022E+02  0.21720639796E+02 -0.23584339994E+02  0.36820912422E+02  0.00000000000E+00 0.  1.
         11    1    4    4    0    0 -0.40051361860E+01 -0.22275027094E+02  0.83844785432E+01  0.24135397834E+02  0.51100000000E-03 0. -1.
        -11    1    4    4    0    0  0.58846542913E+01 -0.55518397063E+01  0.17184872492E+01  0.82707483905E+01  0.51100000000E-03 0.  1.
         12    1    4    4    0    0  0.16224964917E+02  0.61062270040E+01  0.13481374201E+02  0.21960941354E+02  0.00000000000E+00 0. -1.
</event>
<event>
 8    1  0.1253703E-006  0.9118800E+02  0.7816164E-02  0.1184000E+00
        -11   -1    0    0    0    0  0.00000000000E+00  0.00000000000E+00  0.45593999997E+02  0.45594000000E+02  0.51100000000E-03 0.  1.
         11   -1    0    0    0    0 -0.00000000000E+00 -0.00000000000E+00 -0.45593999997E+02  0.45594000000E+02  0.51100000000E-03 0. -1.
         23    2    1    2    0    0 -0.88817841970E-15  0.35527136788E-14 -0.71054273576E-14  0.91188000000E+02  0.91188000000E+02 0.  0.
    9900012    2    3    3    0    0  0.45584605519E+01 -0.24321711896E+02  0.27266358504E+02  0.54367088302E+02  0.40000009403E+02 0.  0.
         12    1    3    3    0    0 -0.45584605519E+01  0.24321711896E+02 -0.27266358504E+02  0.36820911698E+02  0.00000000000E+00 0. -1.
         11    1    4    4    0    0  0.41366515212E+01 -0.13119138762E+02  0.60827780092E+01  0.15040740548E+02  0.51100000000E-03 0. -1.
        -11    1    4    4    0    0  0.13911381178E+02 -0.10993133598E+02  0.18396867349E+02  0.25550347181E+02  0.51100000000E-03 0.  1.
         12    1    4    4    0    0 -0.13489572147E+02 -0.20943953598E+00  0.27867131466E+01  0.13776000573E+02  0.00000000000E+00 0. -1.
</event>
<event>
 8    1  0.1253703E-006  0.9118800E+02  0.7816164E-02  0.1184000E+00
        -11   -1    0    0    0    0  0.00000000000E+00  0.00000000000E+00  0.45593999997E+02  0.45594000000E+02  0.51100000000E-03 0.  1.
         11   -1    0    0    0    0 -0.00000000000E+00 -0.00000000000E+00 -0.45593999997E+02  0.45594000000E+02  0.51100000000E-03 0. -1.
         23    2    1    2    0    0  0.35527136788E-14  0.00000000000E+00  0.35527136788E-14  0.91188000000E+02  0.91188000000E+02 0.  0.
    9900012    2    3    3    0    0  0.24522847919E+02 -0.83389004947E+01  0.26170039944E+02  0.54367104815E+02  0.40000047048E+02 0.  0.
         12    1    3    3    0    0 -0.24522847919E+02  0.83389004947E+01 -0.26170039944E+02  0.36820895185E+02  0.00000000000E+00 0. -1.
         11    1    4    4    0    0  0.23170185723E+02  0.89615130109E+01  0.13287009310E+02  0.28172874162E+02  0.51100000000E-03 0. -1.
        -11    1    4    4    0    0 -0.15668117626E+01 -0.32474275277E+01  0.11172158934E+02  0.11739583475E+02  0.51100000000E-03 0.  1.
         12    1    4    4    0    0  0.29194739586E+01 -0.14052985978E+02  0.17108716997E+01  0.14454647179E+02  0.00000000000E+00 0. -1.
</event>
<event>
 8    1  0.1253703E-006  0.9118800E+02  0.7816164E-02  0.1184000E+00
        -11   -1    0    0    0    0  0.00000000000E+00  0.00000000000E+00  0.45593999997E+02  0.45594000000E+02  0.51100000000E-03 0. -1.
         11   -1    0    0    0    0 -0.00000000000E+00 -0.00000000000E+00 -0.45593999997E+02  0.45594000000E+02  0.51100000000E-03 0.  1.
         23    2    1    2    0    0  0.14432899320E-14  0.00000000000E+00  0.88817841970E-15  0.91188000000E+02  0.91188000000E+02 0.  0.
    9900012    2    3    3    0    0 -0.94775434616E+00  0.36199020536E+02  0.66717424343E+01  0.54367089186E+02  0.40000011417E+02 0.  0.
        -12    1    3    3    0    0  0.94775434616E+00 -0.36199020536E+02 -0.66717424343E+01  0.36820910814E+02  0.00000000000E+00 0.  1.
         11    1    4    4    0    0  0.35925138480E+01  0.16120224804E+02  0.92073503412E+01  0.18908810223E+02  0.51100000000E-03 0. -1.
        -11    1    4    4    0    0  0.54193836794E+01  0.15884413794E+02  0.94978055859E+01  0.19284517942E+02  0.51100000000E-03 0.  1.
        -12    1    4    4    0    0 -0.99596518735E+01  0.41943819379E+01 -0.12033413493E+02  0.16173761021E+02  0.00000000000E+00 0.  1.
</event>
<event>
 8    1  0.1253703E-006  0.9118800E+02  0.7816164E-02  0.1184000E+00
        -11   -1    0    0    0    0  0.00000000000E+00  0.00000000000E+00  0.45593999997E+02  0.45594000000E+02  0.51100000000E-03 0.  1.
         11   -1    0    0    0    0 -0.00000000000E+00 -0.00000000000E+00 -0.45593999997E+02  0.45594000000E+02  0.51100000000E-03 0. -1.
         23    2    1    2    0    0  0.00000000000E+00  0.17763568394E-14  0.00000000000E+00  0.91188000000E+02  0.91188000000E+02 0.  0.
    9900012    2    3    3    0    0 -0.26906246571E+02 -0.13930037647E+01  0.25097696450E+02  0.54367069388E+02  0.39999966284E+02 0.  0.
         12    1    3    3    0    0  0.26906246571E+02  0.13930037647E+01 -0.25097696450E+02  0.36820930612E+02  0.00000000000E+00 0. -1.
         11    1    4    4    0    0 -0.14397499313E+02  0.96607624916E+01  0.79122135458E+01  0.19058369339E+02  0.51100000000E-03 0. -1.
        -11    1    4    4    0    0 -0.35808691761E+01  0.40935956405E+01 -0.47327255523E+01  0.72096352709E+01  0.51100000000E-03 0.  1.
        -12    1    4    4    0    0 -0.89278780818E+01 -0.15147361897E+02  0.21918208457E+02  0.28099064778E+02  0.00000000000E+00 0.  1.
</event>
<event>
 8    1  0.1253703E-006  0.9118800E+02  0.7816164E-02  0.1184000E+00
        -11   -1    0    0    0    0  0.00000000000E+00  0.00000000000E+00  0.45593999997E+02  0.45594000000E+02  0.51100000000E-03 0. -1.
         11   -1    0    0    0    0 -0.00000000000E+00 -0.00000000000E+00 -0.45593999997E+02  0.45594000000E+02  0.51100000000E-03 0.  1.
         23    2    1    2    0    0  0.00000000000E+00 -0.17763568394E-14  0.00000000000E+00  0.91188000000E+02  0.91188000000E+02 0.  0.
    9900012    2    3    3    0    0 -0.22526457050E+02 -0.87477749070E+01 -0.27781558728E+02  0.54367084226E+02  0.40000000111E+02 0.  0.
         12    1    3    3    0    0  0.22526457050E+02  0.87477749070E+01  0.27781558728E+02  0.36820915774E+02  0.00000000000E+00 0. -1.
         11    1    4    4    0    0 -0.19767421347E+02 -0.16220622177E+02 -0.72470336596E+01  0.26577792001E+02  0.51100000000E-03 0. -1.
        -11    1    4    4    0    0  0.55829460063E+01 -0.88736137262E+00 -0.23851166725E+01  0.61355910976E+01  0.51100000000E-03 0.  1.
         12    1    4    4    0    0 -0.83419817088E+01  0.83602086429E+01 -0.18149408396E+02  0.21653701127E+02  0.00000000000E+00 0. -1.
</event>
<event>
 8    1  0.1253703E-006  0.9118800E+02  0.7816164E-02  0.1184000E+00
        -11   -1    0    0    0    0  0.00000000000E+00  0.00000000000E+00  0.45593999997E+02  0.45594000000E+02  0.51100000000E-03 0.  1.
         11   -1    0    0    0    0 -0.00000000000E+00 -0.00000000000E+00 -0.45593999997E+02  0.45594000000E+02  0.51100000000E-03 0. -1.
         23    2    1    2    0    0  0.17763568394E-14  0.00000000000E+00 -0.35527136788E-14  0.91188000000E+02  0.91188000000E+02 0.  0.
    9900012    2    3    3    0    0  0.62814954427E+01  0.21574181864E+02  0.29169806075E+02  0.54367080748E+02  0.39999992181E+02 0.  0.
         12    1    3    3    0    0 -0.62814954427E+01 -0.21574181864E+02 -0.29169806075E+02  0.36820919252E+02  0.00000000000E+00 0. -1.
         11    1    4    4    0    0 -0.25261967827E+01  0.10067613779E+02  0.10086707942E+02  0.14473430649E+02  0.51100000000E-03 0. -1.
        -11    1    4    4    0    0 -0.41400797896E+01  0.18332896545E+02  0.47017517358E+01  0.19373740631E+02  0.51100000000E-03 0.  1.
         12    1    4    4    0    0  0.12947772015E+02 -0.68263284593E+01  0.14381346398E+02  0.20519909468E+02  0.00000000000E+00 0. -1.
</event>
<event>
 8    1  0.1253703E-006  0.9118800E+02  0.7816164E-02  0.1184000E+00
        -11   -1    0    0    0    0  0.00000000000E+00  0.00000000000E+00  0.45593999997E+02  0.45594000000E+02  0.51100000000E-03 0.  1.
         11   -1    0    0    0    0 -0.00000000000E+00 -0.00000000000E+00 -0.45593999997E+02  0.45594000000E+02  0.51100000000E-03 0. -1.
         23    2    1    2    0    0  0.00000000000E+00  0.00000000000E+00  0.00000000000E+00  0.91188000000E+02  0.91188000000E+02 0.  0.
    9900012    2    3    3    0    0  0.15503169657E+02  0.15339850003E+02  0.29666797428E+02  0.54367107328E+02  0.40000052775E+02 0.  0.
         12    1    3    3    0    0 -0.15503169657E+02 -0.15339850003E+02 -0.29666797428E+02  0.36820892672E+02  0.00000000000E+00 0. -1.
         11    1    4    4    0    0  0.16441895712E+02 -0.94853099032E+01  0.13212473142E+02  0.23127396856E+02  0.51100000000E-03 0. -1.
        -11    1    4    4    0    0 -0.25377230666E+01  0.15150492629E+02  0.14731370727E+02  0.21283579328E+02  0.51100000000E-03 0.  1.
         12    1    4    4    0    0  0.15989970120E+01  0.96746672769E+01  0.17229535595E+01  0.99561311428E+01  0.00000000000E+00 0. -1.
</event>
<event>
 8    1  0.1253703E-006  0.9118800E+02  0.7816164E-02  0.1184000E+00
        -11   -1    0    0    0    0  0.00000000000E+00  0.00000000000E+00  0.45593999997E+02  0.45594000000E+02  0.51100000000E-03 0.  1.
         11   -1    0    0    0    0 -0.00000000000E+00 -0.00000000000E+00 -0.45593999997E+02  0.45594000000E+02  0.51100000000E-03 0. -1.
         23    2    1    2    0    0  0.00000000000E+00  0.71054273576E-14 -0.88817841970E-15  0.91188000000E+02  0.91188000000E+02 0.  0.
    9900012    2    3    3    0    0 -0.22541353656E+02  0.28478945166E+02  0.60512080114E+01  0.54367081206E+02  0.39999993226E+02 0.  0.
         12    1    3    3    0    0  0.22541353656E+02 -0.28478945166E+02 -0.60512080114E+01  0.36820918794E+02  0.00000000000E+00 0. -1.
         11    1    4    4    0    0 -0.84178185742E+01 -0.70008995192E+01 -0.11737524172E+01  0.11011355894E+02  0.51100000000E-03 0. -1.
        -11    1    4    4    0    0 -0.55200304244E+01  0.91609118091E+01 -0.64329893029E+01  0.12481041330E+02  0.51100000000E-03 0.  1.
        -12    1    4    4    0    0 -0.86035046572E+01  0.26318932876E+02  0.13657949732E+02  0.30874683982E+02  0.00000000000E+00 0.  1.
</event>
<event>
 8    1  0.1253703E-006  0.9118800E+02  0.7816164E-02  0.1184000E+00
        -11   -1    0    0    0    0  0.00000000000E+00  0.00000000000E+00  0.45593999997E+02  0.45594000000E+02  0.51100000000E-03 0.  1.
         11   -1    0    0    0    0 -0.00000000000E+00 -0.00000000000E+00 -0.45593999997E+02  0.45594000000E+02  0.51100000000E-03 0. -1.
         23    2    1    2    0    0  0.00000000000E+00 -0.88817841970E-15 -0.71054273576E-14  0.91188000000E+02  0.91188000000E+02 0.  0.
    9900012    2    3    3    0    0 -0.10640396021E+02 -0.52237834228E+01 -0.34860783666E+02  0.54367079608E+02  0.39999989582E+02 0.  0.
        -12    1    3    3    0    0  0.10640396021E+02  0.52237834228E+01  0.34860783666E+02  0.36820920392E+02  0.00000000000E+00 0.  1.
         11    1    4    4    0    0  0.57211747856E+01 -0.30303448521E+01 -0.90525928554E+00  0.65371496453E+01  0.51100000000E-03 0. -1.
        -11    1    4    4    0    0  0.94716758192E+00 -0.87349630697E+01 -0.26434140640E+02  0.27856067524E+02  0.51100000000E-03 0.  1.
         12    1    4    4    0    0 -0.17308738388E+02  0.65415244990E+01 -0.75213837407E+01  0.19973862439E+02  0.00000000000E+00 0. -1.
</event>
<event>
 8    1  0.1253703E-006  0.9118800E+02  0.7816164E-02  0.1184000E+00
        -11   -1    0    0    0    0  0.00000000000E+00  0.00000000000E+00  0.45593999997E+02  0.45594000000E+02  0.51100000000E-03 0.  1.
         11   -1    0    0    0    0 -0.00000000000E+00 -0.00000000000E+00 -0.45593999997E+02  0.45594000000E+02  0.51100000000E-03 0. -1.
         23    2    1    2    0    0  0.17763568394E-14 -0.17763568394E-14  0.00000000000E+00  0.91188000000E+02  0.91188000000E+02 0.  0.
    9900012    2    3    3    0    0  0.15470404583E+02  0.13104331292E+02 -0.30736282548E+02  0.54367136601E+02  0.40000119510E+02 0.  0.
        -12    1    3    3    0    0 -0.15470404583E+02 -0.13104331292E+02  0.30736282548E+02  0.36820863399E+02  0.00000000000E+00 0.  1.
         11    1    4    4    0    0  0.37452591343E+00  0.72703279337E+01 -0.15122174462E+02  0.16783268414E+02  0.51100000000E-03 0. -1.
        -11    1    4    4    0    0  0.22445625237E+02  0.10049501463E+02 -0.71577889386E+01  0.25613131685E+02  0.51100000000E-03 0.  1.
        -12    1    4    4    0    0 -0.73497465682E+01 -0.42154981054E+01 -0.84563191474E+01  0.11970736503E+02  0.00000000000E+00 0.  1.
</event>
<event>
 8    1  0.1253703E-006  0.9118800E+02  0.7816164E-02  0.1184000E+00
        -11   -1    0    0    0    0  0.00000000000E+00  0.00000000000E+00  0.45593999997E+02  0.45594000000E+02  0.51100000000E-03 0. -1.
         11   -1    0    0    0    0 -0.00000000000E+00 -0.00000000000E+00 -0.45593999997E+02  0.45594000000E+02  0.51100000000E-03 0.  1.
         23    2    1    2    0    0 -0.71054273576E-14  0.00000000000E+00  0.88817841970E-15  0.91188000000E+02  0.91188000000E+02 0.  0.
    9900012    2    3    3    0    0 -0.35655265810E+02  0.59820428764E+01  0.69783755521E+01  0.54367074668E+02  0.39999978322E+02 0.  0.
         12    1    3    3    0    0  0.35655265810E+02 -0.59820428764E+01 -0.69783755521E+01  0.36820925332E+02  0.00000000000E+00 0. -1.
         11    1    4    4    0    0 -0.24760712148E+02  0.15832834762E+02  0.86392782560E+01  0.30633456412E+02  0.51100000000E-03 0.  1.
        -11    1    4    4    0    0 -0.77671335853E+01  0.44781609389E+01  0.67318519324E-01  0.89658698168E+01  0.51100000000E-03 0. -1.
        -12    1    4    4    0    0 -0.31274200763E+01 -0.14328952825E+02 -0.17282212232E+01  0.14767748440E+02  0.00000000000E+00 0.  1.
</event>
<event>
 8    1  0.1253703E-006  0.9118800E+02  0.7816164E-02  0.1184000E+00
        -11   -1    0    0    0    0  0.00000000000E+00  0.00000000000E+00  0.45593999997E+02  0.45594000000E+02  0.51100000000E-03 0.  1.
         11   -1    0    0    0    0 -0.00000000000E+00 -0.00000000000E+00 -0.45593999997E+02  0.45594000000E+02  0.51100000000E-03 0. -1.
         23    2    1    2    0    0 -0.35527136788E-14 -0.35527136788E-14  0.00000000000E+00  0.91188000000E+02  0.91188000000E+02 0.  0.
    9900012    2    3    3    0    0  0.25740733533E+02  0.17228649902E+02 -0.19909017404E+02  0.54367072333E+02  0.39999972998E+02 0.  0.
        -12    1    3    3    0    0 -0.25740733533E+02 -0.17228649902E+02  0.19909017404E+02  0.36820927667E+02  0.00000000000E+00 0.  1.
         11    1    4    4    0    0  0.95293106925E+01  0.24906848419E+02 -0.17183432820E+02  0.31724268695E+02  0.51100000000E-03 0.  1.
        -11    1    4    4    0    0  0.16095444673E+02 -0.18090439522E+01 -0.63049285038E-01  0.16196911888E+02  0.51100000000E-03 0. -1.
        -12    1    4    4    0    0  0.11597816725E+00 -0.58691545647E+01 -0.26625352988E+01  0.64458917503E+01  0.00000000000E+00 0.  1.
</event>
<event>
 8    1  0.1253703E-006  0.9118800E+02  0.7816164E-02  0.1184000E+00
        -11   -1    0    0    0    0  0.00000000000E+00  0.00000000000E+00  0.45593999997E+02  0.45594000000E+02  0.51100000000E-03 0.  1.
         11   -1    0    0    0    0 -0.00000000000E+00 -0.00000000000E+00 -0.45593999997E+02  0.45594000000E+02  0.51100000000E-03 0. -1.
         23    2    1    2    0    0  0.35527136788E-14  0.00000000000E+00  0.63837823916E-15  0.91188000000E+02  0.91188000000E+02 0.  0.
    9900012    2    3    3    0    0 -0.30494984577E+02  0.20634796771E+02 -0.20050620197E+00  0.54367093916E+02  0.40000022199E+02 0.  0.
        -12    1    3    3    0    0  0.30494984577E+02 -0.20634796771E+02  0.20050620197E+00  0.36820906084E+02  0.00000000000E+00 0.  1.
         11    1    4    4    0    0 -0.22869844146E+02 -0.24657915542E+01  0.86186138762E+01  0.24564006283E+02  0.51100000000E-03 0. -1.
        -11    1    4    4    0    0  0.20406285439E+01  0.15861192859E+02 -0.25414424826E+01  0.16192607384E+02  0.51100000000E-03 0.  1.
         12    1    4    4    0    0 -0.96657689746E+01  0.72393954670E+01 -0.62776775956E+01  0.13610480248E+02  0.00000000000E+00 0. -1.
</event>
<event>
 8    1  0.1253703E-006  0.9118800E+02  0.7816164E-02  0.1184000E+00
        -11   -1    0    0    0    0  0.00000000000E+00  0.00000000000E+00  0.45593999997E+02  0.45594000000E+02  0.51100000000E-03 0. -1.
         11   -1    0    0    0    0 -0.00000000000E+00 -0.00000000000E+00 -0.45593999997E+02  0.45594000000E+02  0.51100000000E-03 0.  1.
         23    2    1    2    0    0  0.00000000000E+00  0.00000000000E+00  0.00000000000E+00  0.91188000000E+02  0.91188000000E+02 0.  0.
    9900012    2    3    3    0    0  0.25345745962E+02  0.16401999712E+02  0.21079561186E+02  0.54367077515E+02  0.39999984810E+02 0.  0.
        -12    1    3    3    0    0 -0.25345745962E+02 -0.16401999712E+02 -0.21079561186E+02  0.36820922485E+02  0.00000000000E+00 0.  1.
         11    1    4    4    0    0  0.15643413277E+02 -0.30899133966E+01  0.21693425046E+02  0.26923384524E+02  0.51100000000E-03 0. -1.
        -11    1    4    4    0    0  0.67862510700E-01  0.27754214650E+01 -0.66672955412E+01  0.72222157074E+01  0.51100000000E-03 0.  1.
        -12    1    4    4    0    0  0.96344701739E+01  0.16716491643E+02  0.60534316812E+01  0.20221477283E+02  0.00000000000E+00 0.  1.
</event>
<event>
 8    1  0.1253703E-006  0.9118800E+02  0.7816164E-02  0.1184000E+00
        -11   -1    0    0    0    0  0.00000000000E+00  0.00000000000E+00  0.45593999997E+02  0.45594000000E+02  0.51100000000E-03 0.  1.
         11   -1    0    0    0    0 -0.00000000000E+00 -0.00000000000E+00 -0.45593999997E+02  0.45594000000E+02  0.51100000000E-03 0. -1.
         23    2    1    2    0    0  0.71054273576E-14  0.17763568394E-14  0.00000000000E+00  0.91188000000E+02  0.91188000000E+02 0.  0.
    9900012    2    3    3    0    0  0.34154775604E+02  0.10571180547E+02  0.88023339795E+01  0.54367086945E+02  0.40000006309E+02 0.  0.
         12    1    3    3    0    0 -0.34154775604E+02 -0.10571180547E+02 -0.88023339795E+01  0.36820913055E+02  0.00000000000E+00 0. -1.
         11    1    4    4    0    0  0.10993629763E+02  0.94798117514E+01  0.35465277101E+01  0.14943379313E+02  0.51100000000E-03 0. -1.
        -11    1    4    4    0    0  0.19761250245E+02 -0.32721127808E+01 -0.10577691718E+02  0.22651739351E+02  0.51100000000E-03 0.  1.
        -12    1    4    4    0    0  0.33998955956E+01  0.43634815766E+01  0.15833497987E+02  0.16771968282E+02  0.00000000000E+00 0.  1.
</event>
<event>
 8    1  0.1253703E-006  0.9118800E+02  0.7816164E-02  0.1184000E+00
        -11   -1    0    0    0    0  0.00000000000E+00  0.00000000000E+00  0.45593999997E+02  0.45594000000E+02  0.51100000000E-03 0.  1.
         11   -1    0    0    0    0 -0.00000000000E+00 -0.00000000000E+00 -0.45593999997E+02  0.45594000000E+02  0.51100000000E-03 0. -1.
         23    2    1    2    0    0  0.44408920985E-15  0.88817841970E-15  0.00000000000E+00  0.91188000000E+02  0.91188000000E+02 0.  0.
    9900012    2    3    3    0    0  0.28330436058E+01  0.48801506679E+01 -0.36385968151E+02  0.54367072731E+02  0.39999973906E+02 0.  0.
        -12    1    3    3    0    0 -0.28330436058E+01 -0.48801506679E+01  0.36385968151E+02  0.36820927269E+02  0.00000000000E+00 0.  1.
         11    1    4    4    0    0  0.44722746078E+00 -0.57918503419E+01 -0.13243264229E+02  0.14461313581E+02  0.51100000000E-03 0. -1.
        -11    1    4    4    0    0 -0.12696659006E+02  0.11473317961E+02 -0.96104841508E+01  0.19626603905E+02  0.51100000000E-03 0.  1.
        -12    1    4    4    0    0  0.15082475151E+02 -0.80131695115E+00 -0.13532219771E+02  0.20279155246E+02  0.00000000000E+00 0.  1.
</event>
<event>
 8    1  0.1253703E-006  0.9118800E+02  0.7816164E-02  0.1184000E+00
        -11   -1    0    0    0    0  0.00000000000E+00  0.00000000000E+00  0.45593999997E+02  0.45594000000E+02  0.51100000000E-03 0. -1.
         11   -1    0    0    0    0 -0.00000000000E+00 -0.00000000000E+00 -0.45593999997E+02  0.45594000000E+02  0.51100000000E-03 0.  1.
         23    2    1    2    0    0  0.00000000000E+00 -0.35527136788E-14  0.00000000000E+00  0.91188000000E+02  0.91188000000E+02 0.  0.
    9900012    2    3    3    0    0  0.29879492225E+02  0.21376119250E+02 -0.24610668550E+01  0.54367090453E+02  0.40000014306E+02 0.  0.
         12    1    3    3    0    0 -0.29879492225E+02 -0.21376119250E+02  0.24610668550E+01  0.36820909547E+02  0.00000000000E+00 0. -1.
         11    1    4    4    0    0  0.12573448157E+02 -0.52794630898E+01 -0.43195400899E+01  0.14304641063E+02  0.51100000000E-03 0. -1.
        -11    1    4    4    0    0  0.47095952321E+01  0.19741975152E+01 -0.89619791150E+01  0.10314786134E+02  0.51100000000E-03 0.  1.
         12    1    4    4    0    0  0.12596448835E+02  0.24681384825E+02  0.10820452350E+02  0.29747663256E+02  0.00000000000E+00 0. -1.
</event>
<event>
 8    1  0.1253703E-006  0.9118800E+02  0.7816164E-02  0.1184000E+00
        -11   -1    0    0    0    0  0.00000000000E+00  0.00000000000E+00  0.45593999997E+02  0.45594000000E+02  0.51100000000E-03 0.  1.
         11   -1    0    0    0    0 -0.00000000000E+00 -0.00000000000E+00 -0.45593999997E+02  0.45594000000E+02  0.51100000000E-03 0. -1.
         23    2    1    2    0    0 -0.88817841970E-15  0.00000000000E+00 -0.35527136788E-14  0.91188000000E+02  0.91188000000E+02 0.  0.
    9900012    2    3    3    0    0 -0.21405686996E+01  0.29587170796E+02  0.21812780101E+02  0.54367080867E+02  0.39999992453E+02 0.  0.
         12    1    3    3    0    0  0.21405686996E+01 -0.29587170796E+02 -0.21812780101E+02  0.36820919133E+02  0.00000000000E+00 0. -1.
         11    1    4    4    0    0 -0.89670025849E+01  0.85591061592E+01 -0.67010977449E+01  0.14091491931E+02  0.51100000000E-03 0. -1.
        -11    1    4    4    0    0  0.43170874149E+01  0.13327312496E+02  0.41651931320E+01  0.14615174861E+02  0.51100000000E-03 0.  1.
         12    1    4    4    0    0  0.25093464704E+01  0.77007521405E+01  0.24348684713E+02  0.25660414075E+02  0.00000000000E+00 0. -1.
</event>
<event>
 8    1  0.1253703E-006  0.9118800E+02  0.7816164E-02  0.1184000E+00
        -11   -1    0    0    0    0  0.00000000000E+00  0.00000000000E+00  0.45593999997E+02  0.45594000000E+02  0.51100000000E-03 0. -1.
         11   -1    0    0    0    0 -0.00000000000E+00 -0.00000000000E+00 -0.45593999997E+02  0.45594000000E+02  0.51100000000E-03 0.  1.
         23    2    1    2    0    0  0.35527136788E-14  0.00000000000E+00 -0.17763568394E-14  0.91188000000E+02  0.91188000000E+02 0.  0.
    9900012    2    3    3    0    0  0.15098356234E+02 -0.31016523037E+02 -0.12876258288E+02  0.54367040075E+02  0.39999899459E+02 0.  0.
         12    1    3    3    0    0 -0.15098356234E+02  0.31016523037E+02  0.12876258288E+02  0.36820959925E+02  0.00000000000E+00 0. -1.
         11    1    4    4    0    0 -0.69870213620E+01 -0.65208916375E+01  0.59420303012E+01  0.11253809116E+02  0.51100000000E-03 0. -1.
        -11    1    4    4    0    0 -0.35811783042E+01 -0.65676498350E+01 -0.35073365517E+01  0.82619775084E+01  0.51100000000E-03 0.  1.
         12    1    4    4    0    0  0.25666555900E+02 -0.17927981565E+02 -0.15310952038E+02  0.34851253450E+02  0.00000000000E+00 0. -1.
</event>
<event>
 8    1  0.1253703E-006  0.9118800E+02  0.7816164E-02  0.1184000E+00
        -11   -1    0    0    0    0  0.00000000000E+00  0.00000000000E+00  0.45593999997E+02  0.45594000000E+02  0.51100000000E-03 0. -1.
         11   -1    0    0    0    0 -0.00000000000E+00 -0.00000000000E+00 -0.45593999997E+02  0.45594000000E+02  0.51100000000E-03 0.  1.
         23    2    1    2    0    0  0.17763568394E-14  0.00000000000E+00  0.00000000000E+00  0.91188000000E+02  0.91188000000E+02 0.  0.
    9900012    2    3    3    0    0  0.90515617706E+01  0.32150485823E+02 -0.15498389770E+02  0.54367019641E+02  0.39999852875E+02 0.  0.
        -12    1    3    3    0    0 -0.90515617706E+01 -0.32150485823E+02  0.15498389770E+02  0.36820980359E+02  0.00000000000E+00 0.  1.
         11    1    4    4    0    0  0.28611956535E+01  0.48458305465E+01 -0.93645077641E+01  0.10925315564E+02  0.51100000000E-03 0. -1.
        -11    1    4    4    0    0  0.17904891377E+01 -0.63535303651E+01 -0.68184818930E+01  0.94902526330E+01  0.51100000000E-03 0.  1.
         12    1    4    4    0    0  0.43998769793E+01  0.33658185642E+02  0.68459988751E+00  0.33951451444E+02  0.00000000000E+00 0. -1.
</event>
<event>
 8    1  0.1253703E-006  0.9118800E+02  0.7816164E-02  0.1184000E+00
        -11   -1    0    0    0    0  0.00000000000E+00  0.00000000000E+00  0.45593999997E+02  0.45594000000E+02  0.51100000000E-03 0. -1.
         11   -1    0    0    0    0 -0.00000000000E+00 -0.00000000000E+00 -0.45593999997E+02  0.45594000000E+02  0.51100000000E-03 0.  1.
         23    2    1    2    0    0  0.00000000000E+00  0.88817841970E-15  0.00000000000E+00  0.91188000000E+02  0.91188000000E+02 0.  0.
    9900012    2    3    3    0    0 -0.35435387087E+02  0.55141325509E+01  0.83490815733E+01  0.54367089108E+02  0.40000011240E+02 0.  0.
        -12    1    3    3    0    0  0.35435387087E+02 -0.55141325509E+01 -0.83490815733E+01  0.36820910892E+02  0.00000000000E+00 0.  1.
         11    1    4    4    0    0 -0.30643675207E+02 -0.38235083421E+01  0.13957294100E+02  0.33888937798E+02  0.51100000000E-03 0. -1.
        -11    1    4    4    0    0 -0.24994251560E+01 -0.36233000794E+01 -0.58411634756E+01  0.73140016807E+01  0.51100000000E-03 0.  1.
         12    1    4    4    0    0 -0.22922867240E+01  0.12960940972E+02  0.23295094877E+00  0.13164149629E+02  0.00000000000E+00 0. -1.
</event>
<event>
 8    1  0.1253703E-006  0.9118800E+02  0.7816164E-02  0.1184000E+00
        -11   -1    0    0    0    0  0.00000000000E+00  0.00000000000E+00  0.45593999997E+02  0.45594000000E+02  0.51100000000E-03 0.  1.
         11   -1    0    0    0    0 -0.00000000000E+00 -0.00000000000E+00 -0.45593999997E+02  0.45594000000E+02  0.51100000000E-03 0. -1.
         23    2    1    2    0    0  0.11102230246E-15  0.35527136788E-14  0.00000000000E+00  0.91188000000E+02  0.91188000000E+02 0.  0.
    9900012    2    3    3    0    0  0.28668303560E+00  0.31141486626E+02  0.19644480334E+02  0.54367082248E+02  0.39999995602E+02 0.  0.
         12    1    3    3    0    0 -0.28668303560E+00 -0.31141486626E+02 -0.19644480334E+02  0.36820917752E+02  0.00000000000E+00 0. -1.
         11    1    4    4    0    0  0.80752387478E+01  0.23706285601E+01  0.78537562089E+01  0.11511335607E+02  0.51100000000E-03 0. -1.
        -11    1    4    4    0    0 -0.15474334742E+02  0.17135020554E+02 -0.20866465068E+01  0.23182278987E+02  0.51100000000E-03 0.  1.
        -12    1    4    4    0    0  0.76857790301E+01  0.11635837512E+02  0.13877370632E+02  0.19673467655E+02  0.00000000000E+00 0.  1.
</event>
<event>
 8    1  0.1253703E-006  0.9118800E+02  0.7816164E-02  0.1184000E+00
        -11   -1    0    0    0    0  0.00000000000E+00  0.00000000000E+00  0.45593999997E+02  0.45594000000E+02  0.51100000000E-03 0. -1.
         11   -1    0    0    0    0 -0.00000000000E+00 -0.00000000000E+00 -0.45593999997E+02  0.45594000000E+02  0.51100000000E-03 0.  1.
         23    2    1    2    0    0  0.17763568394E-14  0.00000000000E+00  0.17763568394E-14  0.91188000000E+02  0.91188000000E+02 0.  0.
    9900012    2    3    3    0    0 -0.47894579208E+01 -0.35208443906E+02 -0.96543593292E+01  0.54367080898E+02  0.39999992524E+02 0.  0.
        -12    1    3    3    0    0  0.47894579208E+01  0.35208443906E+02  0.96543593292E+01  0.36820919102E+02  0.00000000000E+00 0.  1.
         11    1    4    4    0    0 -0.18780488444E+02 -0.20637750540E+02 -0.77414900526E+01  0.28957799676E+02  0.51100000000E-03 0. -1.
        -11    1    4    4    0    0  0.13706887191E+02 -0.13687068397E+02 -0.67279103198E+01  0.20505593757E+02  0.51100000000E-03 0.  1.
         12    1    4    4    0    0  0.28414333201E+00 -0.88362496818E+00  0.48150410432E+01  0.49036874661E+01  0.00000000000E+00 0. -1.
</event>
<event>
 8    1  0.1253703E-006  0.9118800E+02  0.7816164E-02  0.1184000E+00
        -11   -1    0    0    0    0  0.00000000000E+00  0.00000000000E+00  0.45593999997E+02  0.45594000000E+02  0.51100000000E-03 0.  1.
         11   -1    0    0    0    0 -0.00000000000E+00 -0.00000000000E+00 -0.45593999997E+02  0.45594000000E+02  0.51100000000E-03 0. -1.
         23    2    1    2    0    0  0.17763568394E-14  0.17763568394E-14  0.00000000000E+00  0.91188000000E+02  0.91188000000E+02 0.  0.
    9900012    2    3    3    0    0  0.10382911336E+02  0.14317427747E+02 -0.32295339792E+02  0.54367047305E+02  0.39999915941E+02 0.  0.
        -12    1    3    3    0    0 -0.10382911336E+02 -0.14317427747E+02  0.32295339792E+02  0.36820952695E+02  0.00000000000E+00 0.  1.
         11    1    4    4    0    0  0.87684806278E+00  0.52405664138E+01 -0.16570472138E+02  0.17401521370E+02  0.51100000000E-03 0.  1.
        -11    1    4    4    0    0  0.42315700681E+01 -0.41212624033E+01 -0.20992520211E+02  0.21807725560E+02  0.51100000000E-03 0. -1.
         12    1    4    4    0    0  0.52744932046E+01  0.13198123737E+02  0.52676525567E+01  0.15157800375E+02  0.00000000000E+00 0. -1.
</event>
<event>
 8    1  0.1253703E-006  0.9118800E+02  0.7816164E-02  0.1184000E+00
        -11   -1    0    0    0    0  0.00000000000E+00  0.00000000000E+00  0.45593999997E+02  0.45594000000E+02  0.51100000000E-03 0.  1.
         11   -1    0    0    0    0 -0.00000000000E+00 -0.00000000000E+00 -0.45593999997E+02  0.45594000000E+02  0.51100000000E-03 0. -1.
         23    2    1    2    0    0 -0.66613381478E-15  0.71054273576E-14 -0.88817841970E-15  0.91188000000E+02  0.91188000000E+02 0.  0.
    9900012    2    3    3    0    0 -0.66432602551E+00  0.36218540293E+02 -0.65996447410E+01  0.54367091528E+02  0.40000016756E+02 0.  0.
        -12    1    3    3    0    0  0.66432602551E+00 -0.36218540293E+02  0.65996447410E+01  0.36820908472E+02  0.00000000000E+00 0.  1.
         11    1    4    4    0    0 -0.38418614741E+01  0.15745945949E+02 -0.64159592153E+01  0.17431558918E+02  0.51100000000E-03 0. -1.
        -11    1    4    4    0    0 -0.52441013405E+01  0.24645565592E+02  0.57173200532E+01  0.25837806623E+02  0.51100000000E-03 0.  1.
         12    1    4    4    0    0  0.84216367891E+01 -0.41729712477E+01 -0.59010055788E+01  0.11097725987E+02  0.00000000000E+00 0. -1.
</event>
<event>
 8    1  0.1253703E-006  0.9118800E+02  0.7816164E-02  0.1184000E+00
        -11   -1    0    0    0    0  0.00000000000E+00  0.00000000000E+00  0.45593999997E+02  0.45594000000E+02  0.51100000000E-03 0.  1.
         11   -1    0    0    0    0 -0.00000000000E+00 -0.00000000000E+00 -0.45593999997E+02  0.45594000000E+02  0.51100000000E-03 0. -1.
         23    2    1    2    0    0  0.00000000000E+00 -0.17763568394E-14  0.35527136788E-14  0.91188000000E+02  0.91188000000E+02 0.  0.
    9900012    2    3    3    0    0  0.16872606773E+02 -0.13780440916E+02 -0.29684913231E+02  0.54367089029E+02  0.40000011060E+02 0.  0.
        -12    1    3    3    0    0 -0.16872606773E+02  0.13780440916E+02  0.29684913231E+02  0.36820910971E+02  0.00000000000E+00 0.  1.
         11    1    4    4    0    0  0.12185090510E+02 -0.89921348169E+01  0.60712436507E+01  0.16315480962E+02  0.51100000000E-03 0. -1.
        -11    1    4    4    0    0  0.36107809886E+01 -0.37240442308E+01 -0.36123271459E+02  0.36493793801E+02  0.51100000000E-03 0.  1.
        -12    1    4    4    0    0  0.10767352745E+01 -0.10642618681E+01  0.36711457750E+00  0.15578142663E+01  0.00000000000E+00 0.  1.
</event>
<event>
 8    1  0.1253703E-006  0.9118800E+02  0.7816164E-02  0.1184000E+00
        -11   -1    0    0    0    0  0.00000000000E+00  0.00000000000E+00  0.45593999997E+02  0.45594000000E+02  0.51100000000E-03 0.  1.
         11   -1    0    0    0    0 -0.00000000000E+00 -0.00000000000E+00 -0.45593999997E+02  0.45594000000E+02  0.51100000000E-03 0. -1.
         23    2    1    2    0    0  0.71054273576E-14  0.44408920985E-15  0.00000000000E+00  0.91188000000E+02  0.91188000000E+02 0.  0.
    9900012    2    3    3    0    0 -0.32091210247E+02  0.29660030756E+01 -0.17808342486E+02  0.54367081877E+02  0.39999994754E+02 0.  0.
        -12    1    3    3    0    0  0.32091210247E+02 -0.29660030756E+01  0.17808342486E+02  0.36820918123E+02  0.00000000000E+00 0.  1.
         11    1    4    4    0    0  0.33835433169E+01  0.10531189688E+02  0.10764387967E+00  0.11061912542E+02  0.51100000000E-03 0. -1.
        -11    1    4    4    0    0 -0.10029536022E+01 -0.29756561114E+01  0.14958190532E+01  0.34782064519E+01  0.51100000000E-03 0.  1.
         12    1    4    4    0    0 -0.34471799961E+02 -0.45895305012E+01 -0.19411805419E+02  0.39826962882E+02  0.00000000000E+00 0. -1.
</event>
<event>
 8    1  0.1253703E-006  0.9118800E+02  0.7816164E-02  0.1184000E+00
        -11   -1    0    0    0    0  0.00000000000E+00  0.00000000000E+00  0.45593999997E+02  0.45594000000E+02  0.51100000000E-03 0.  1.
         11   -1    0    0    0    0 -0.00000000000E+00 -0.00000000000E+00 -0.45593999997E+02  0.45594000000E+02  0.51100000000E-03 0. -1.
         23    2    1    2    0    0 -0.35527136788E-14 -0.35527136788E-14  0.17763568394E-14  0.91188000000E+02  0.91188000000E+02 0.  0.
    9900012    2    3    3    0    0 -0.15838963659E+02 -0.30842859686E+02  0.12394793062E+02  0.54367005194E+02  0.39999819941E+02 0.  0.
         12    1    3    3    0    0  0.15838963659E+02  0.30842859686E+02 -0.12394793062E+02  0.36820994806E+02  0.00000000000E+00 0. -1.
         11    1    4    4    0    0 -0.42373610786E+01 -0.23057764420E+02 -0.14294957037E+01  0.23487426150E+02  0.51100000000E-03 0. -1.
        -11    1    4    4    0    0 -0.12321935517E+02 -0.63878436178E+00  0.18552274229E+02  0.22280597382E+02  0.51100000000E-03 0.  1.
         12    1    4    4    0    0  0.72033293657E+00 -0.71463109048E+01 -0.47279854635E+01  0.85989816624E+01  0.00000000000E+00 0. -1.
</event>
<event>
 8    1  0.1253703E-006  0.9118800E+02  0.7816164E-02  0.1184000E+00
        -11   -1    0    0    0    0  0.00000000000E+00  0.00000000000E+00  0.45593999997E+02  0.45594000000E+02  0.51100000000E-03 0.  1.
         11   -1    0    0    0    0 -0.00000000000E+00 -0.00000000000E+00 -0.45593999997E+02  0.45594000000E+02  0.51100000000E-03 0. -1.
         23    2    1    2    0    0  0.00000000000E+00  0.00000000000E+00  0.00000000000E+00  0.91188000000E+02  0.91188000000E+02 0.  0.
    9900012    2    3    3    0    0  0.47699367427E+01  0.14310538657E+02  0.33589217444E+02  0.54367090972E+02  0.40000015488E+02 0.  0.
         12    1    3    3    0    0 -0.47699367427E+01 -0.14310538657E+02 -0.33589217444E+02  0.36820909028E+02  0.00000000000E+00 0. -1.
         11    1    4    4    0    0 -0.92318491669E+01 -0.24965099451E+01  0.29370617050E+02  0.30888391786E+02  0.51100000000E-03 0. -1.
        -11    1    4    4    0    0  0.13956467118E+02  0.12939935602E+02  0.46364511529E+01  0.19588812812E+02  0.51100000000E-03 0.  1.
        -12    1    4    4    0    0  0.45318791424E-01  0.38671129997E+01 -0.41785075942E+00  0.38898863739E+01  0.00000000000E+00 0.  1.
</event>
<event>
 8    1  0.1253703E-006  0.9118800E+02  0.7816164E-02  0.1184000E+00
        -11   -1    0    0    0    0  0.00000000000E+00  0.00000000000E+00  0.45593999997E+02  0.45594000000E+02  0.51100000000E-03 0. -1.
         11   -1    0    0    0    0 -0.00000000000E+00 -0.00000000000E+00 -0.45593999997E+02  0.45594000000E+02  0.51100000000E-03 0.  1.
         23    2    1    2    0    0 -0.22204460493E-14  0.00000000000E+00  0.00000000000E+00  0.91188000000E+02  0.91188000000E+02 0.  0.
    9900012    2    3    3    0    0  0.22761784638E+01  0.34154554866E+02 -0.13567066673E+02  0.54367083328E+02  0.39999998062E+02 0.  0.
         12    1    3    3    0    0 -0.22761784638E+01 -0.34154554866E+02  0.13567066673E+02  0.36820916672E+02  0.00000000000E+00 0. -1.
         11    1    4    4    0    0 -0.16075898674E+02  0.15368000968E+02 -0.34928587553E+01  0.22512441770E+02  0.51100000000E-03 0. -1.
        -11    1    4    4    0    0  0.11395943211E+02  0.75630977067E+01 -0.12382871985E+02  0.18450026760E+02  0.51100000000E-03 0.  1.
         12    1    4    4    0    0  0.69561339269E+01  0.11223456191E+02  0.23086640668E+01  0.13404614797E+02  0.00000000000E+00 0. -1.
</event>
<event>
 8    1  0.1253703E-006  0.9118800E+02  0.7816164E-02  0.1184000E+00
        -11   -1    0    0    0    0  0.00000000000E+00  0.00000000000E+00  0.45593999997E+02  0.45594000000E+02  0.51100000000E-03 0.  1.
         11   -1    0    0    0    0 -0.00000000000E+00 -0.00000000000E+00 -0.45593999997E+02  0.45594000000E+02  0.51100000000E-03 0. -1.
         23    2    1    2    0    0 -0.35527136788E-14  0.88817841970E-15 -0.71054273576E-14  0.91188000000E+02  0.91188000000E+02 0.  0.
    9900012    2    3    3    0    0  0.12425533700E+02 -0.59507233920E+01  0.34146368714E+02  0.54367088917E+02  0.40000010804E+02 0.  0.
         12    1    3    3    0    0 -0.12425533700E+02  0.59507233920E+01 -0.34146368714E+02  0.36820911083E+02  0.00000000000E+00 0. -1.
         11    1    4    4    0    0 -0.84125213903E+01  0.41906400251E+00  0.15036568583E+02  0.17234979716E+02  0.51100000000E-03 0. -1.
        -11    1    4    4    0    0  0.13341374071E+02 -0.11204847524E-01  0.22976347655E+02  0.26568871626E+02  0.51100000000E-03 0.  1.
         12    1    4    4    0    0  0.74966810192E+01 -0.63585825470E+01 -0.38665475242E+01  0.10563237575E+02  0.00000000000E+00 0. -1.
</event>
<event>
 8    1  0.1253703E-006  0.9118800E+02  0.7816164E-02  0.1184000E+00
        -11   -1    0    0    0    0  0.00000000000E+00  0.00000000000E+00  0.45593999997E+02  0.45594000000E+02  0.51100000000E-03 0.  1.
         11   -1    0    0    0    0 -0.00000000000E+00 -0.00000000000E+00 -0.45593999997E+02  0.45594000000E+02  0.51100000000E-03 0. -1.
         23    2    1    2    0    0 -0.35527136788E-14  0.14432899320E-14  0.00000000000E+00  0.91188000000E+02  0.91188000000E+02 0.  0.
    9900012    2    3    3    0    0 -0.20797028619E+02  0.78282188359E+00 -0.30375153333E+02  0.54367093582E+02  0.40000021438E+02 0.  0.
        -12    1    3    3    0    0  0.20797028619E+02 -0.78282188359E+00  0.30375153333E+02  0.36820906418E+02  0.00000000000E+00 0.  1.
         11    1    4    4    0    0 -0.57535310249E+01 -0.59200040460E+01 -0.10425752143E+02  0.13298341068E+02  0.51100000000E-03 0. -1.
        -11    1    4    4    0    0 -0.98136548571E+01 -0.12548580374E+02 -0.95140367987E+01  0.18555095998E+02  0.51100000000E-03 0.  1.
         12    1    4    4    0    0 -0.52298427367E+01  0.19251406303E+02 -0.10435364391E+02  0.22513656515E+02  0.00000000000E+00 0. -1.
</event>
<event>
 8    1  0.1253703E-006  0.9118800E+02  0.7816164E-02  0.1184000E+00
        -11   -1    0    0    0    0  0.00000000000E+00  0.00000000000E+00  0.45593999997E+02  0.45594000000E+02  0.51100000000E-03 0. -1.
         11   -1    0    0    0    0 -0.00000000000E+00 -0.00000000000E+00 -0.45593999997E+02  0.45594000000E+02  0.51100000000E-03 0.  1.
         23    2    1    2    0    0 -0.17763568394E-14  0.00000000000E+00  0.15543122345E-14  0.91188000000E+02  0.91188000000E+02 0.  0.
    9900012    2    3    3    0    0  0.15026194352E+02  0.33568795072E+02  0.17694842181E+01  0.54367060391E+02  0.39999945772E+02 0.  0.
        -12    1    3    3    0    0 -0.15026194352E+02 -0.33568795072E+02 -0.17694842181E+01  0.36820939609E+02  0.00000000000E+00 0.  1.
         11    1    4    4    0    0  0.35269958033E+01  0.23207315133E+02  0.16354364407E+02  0.28609166546E+02  0.51100000000E-03 0. -1.
        -11    1    4    4    0    0  0.94363780202E+00  0.10552728737E+02 -0.61970229976E+01  0.12274104056E+02  0.51100000000E-03 0.  1.
         12    1    4    4    0    0  0.10555560747E+02 -0.19124879714E+00 -0.83878571911E+01  0.13483789788E+02  0.00000000000E+00 0. -1.
</event>
<event>
 8    1  0.1253703E-006  0.9118800E+02  0.7816164E-02  0.1184000E+00
        -11   -1    0    0    0    0  0.00000000000E+00  0.00000000000E+00  0.45593999997E+02  0.45594000000E+02  0.51100000000E-03 0.  1.
         11   -1    0    0    0    0 -0.00000000000E+00 -0.00000000000E+00 -0.45593999997E+02  0.45594000000E+02  0.51100000000E-03 0. -1.
         23    2    1    2    0    0  0.00000000000E+00  0.00000000000E+00  0.00000000000E+00  0.91188000000E+02  0.91188000000E+02 0.  0.
    9900012    2    3    3    0    0 -0.12708885905E+02  0.33976205194E+02  0.63151322357E+01  0.54367092956E+02  0.40000020013E+02 0.  0.
         12    1    3    3    0    0  0.12708885905E+02 -0.33976205194E+02 -0.63151322357E+01  0.36820907044E+02  0.00000000000E+00 0. -1.
         11    1    4    4    0    0 -0.12468746905E+02  0.13012272451E+02  0.65176303348E+01  0.19164247680E+02  0.51100000000E-03 0. -1.
        -11    1    4    4    0    0  0.76089258183E+01  0.24318962077E+02  0.38204280556E+01  0.25766321806E+02  0.51100000000E-03 0.  1.
         12    1    4    4    0    0 -0.78490648189E+01 -0.33550293337E+01 -0.40229261547E+01  0.94365234704E+01  0.00000000000E+00 0. -1.
</event>
<event>
 8    1  0.1253703E-006  0.9118800E+02  0.7816164E-02  0.1184000E+00
        -11   -1    0    0    0    0  0.00000000000E+00  0.00000000000E+00  0.45593999997E+02  0.45594000000E+02  0.51100000000E-03 0. -1.
         11   -1    0    0    0    0 -0.00000000000E+00 -0.00000000000E+00 -0.45593999997E+02  0.45594000000E+02  0.51100000000E-03 0.  1.
         23    2    1    2    0    0  0.17763568394E-14  0.00000000000E+00 -0.71054273576E-14  0.91188000000E+02  0.91188000000E+02 0.  0.
    9900012    2    3    3    0    0 -0.90211605809E+01 -0.10985982404E+02  0.33966257181E+02  0.54367085094E+02  0.40000002090E+02 0.  0.
        -12    1    3    3    0    0  0.90211605809E+01  0.10985982404E+02 -0.33966257181E+02  0.36820914906E+02  0.00000000000E+00 0.  1.
         11    1    4    4    0    0  0.35714092040E+01  0.48910909768E+01  0.84606409008E+01  0.10404815201E+02  0.51100000000E-03 0. -1.
        -11    1    4    4    0    0  0.93605796887E+01 -0.31800894193E+01  0.38340890269E+01  0.10603473947E+02  0.51100000000E-03 0.  1.
        -12    1    4    4    0    0 -0.21953149474E+02 -0.12696983961E+02  0.21671527253E+02  0.33358795947E+02  0.00000000000E+00 0.  1.
</event>
<event>
 8    1  0.1253703E-006  0.9118800E+02  0.7816164E-02  0.1184000E+00
        -11   -1    0    0    0    0  0.00000000000E+00  0.00000000000E+00  0.45593999997E+02  0.45594000000E+02  0.51100000000E-03 0. -1.
         11   -1    0    0    0    0 -0.00000000000E+00 -0.00000000000E+00 -0.45593999997E+02  0.45594000000E+02  0.51100000000E-03 0.  1.
         23    2    1    2    0    0 -0.71054273576E-14  0.00000000000E+00 -0.17763568394E-14  0.91188000000E+02  0.91188000000E+02 0.  0.
    9900012    2    3    3    0    0  0.35827156837E+02  0.73924578447E+01 -0.41889817761E+01  0.54367066167E+02  0.39999958941E+02 0.  0.
        -12    1    3    3    0    0 -0.35827156837E+02 -0.73924578447E+01  0.41889817761E+01  0.36820933833E+02  0.00000000000E+00 0.  1.
         11    1    4    4    0    0  0.33153092403E+02 -0.16587212743E+01  0.11113425643E+02  0.35005529877E+02  0.51100000000E-03 0. -1.
        -11    1    4    4    0    0  0.51562279409E+01  0.58508270447E+01 -0.10499198668E+02  0.13078686349E+02  0.51100000000E-03 0.  1.
         12    1    4    4    0    0 -0.24821635074E+01  0.32003520744E+01 -0.48032087518E+01  0.62828499418E+01  0.00000000000E+00 0. -1.
</event>
<event>
 8    1  0.1253703E-006  0.9118800E+02  0.7816164E-02  0.1184000E+00
        -11   -1    0    0    0    0  0.00000000000E+00  0.00000000000E+00  0.45593999997E+02  0.45594000000E+02  0.51100000000E-03 0. -1.
         11   -1    0    0    0    0 -0.00000000000E+00 -0.00000000000E+00 -0.45593999997E+02  0.45594000000E+02  0.51100000000E-03 0.  1.
         23    2    1    2    0    0  0.00000000000E+00  0.00000000000E+00  0.00000000000E+00  0.91188000000E+02  0.91188000000E+02 0.  0.
    9900012    2    3    3    0    0 -0.11828162176E+02 -0.82260839275E+01 -0.33885187390E+02  0.54367084725E+02  0.40000001248E+02 0.  0.
         12    1    3    3    0    0  0.11828162176E+02  0.82260839275E+01  0.33885187390E+02  0.36820915275E+02  0.00000000000E+00 0. -1.
         11    1    4    4    0    0 -0.11407481221E+02 -0.22857062690E+01  0.95223760447E+00  0.11673124589E+02  0.51100000000E-03 0. -1.
        -11    1    4    4    0    0  0.17124725525E+01 -0.11791916459E+02 -0.62877985541E+01  0.13472871517E+02  0.51100000000E-03 0.  1.
        -12    1    4    4    0    0 -0.21331535072E+01  0.58515388000E+01 -0.28549626440E+02  0.29221088619E+02  0.00000000000E+00 0.  1.
</event>
<event>
 8    1  0.1253703E-006  0.9118800E+02  0.7816164E-02  0.1184000E+00
        -11   -1    0    0    0    0  0.00000000000E+00  0.00000000000E+00  0.45593999997E+02  0.45594000000E+02  0.51100000000E-03 0. -1.
         11   -1    0    0    0    0 -0.00000000000E+00 -0.00000000000E+00 -0.45593999997E+02  0.45594000000E+02  0.51100000000E-03 0.  1.
         23    2    1    2    0    0 -0.71054273576E-14  0.88817841970E-15  0.00000000000E+00  0.91188000000E+02  0.91188000000E+02 0.  0.
    9900012    2    3    3    0    0 -0.34898243309E+02  0.76608892728E+01 -0.88996919249E+01  0.54367066730E+02  0.39999960224E+02 0.  0.
         12    1    3    3    0    0  0.34898243309E+02 -0.76608892728E+01  0.88996919249E+01  0.36820933270E+02  0.00000000000E+00 0. -1.
         11    1    4    4    0    0 -0.16593582558E+02 -0.68686399321E+01  0.11629130427E+02  0.21395370326E+02  0.51100000000E-03 0. -1.
        -11    1    4    4    0    0 -0.19059072724E+02  0.11475713916E+02 -0.19707067653E+02  0.29720511078E+02  0.51100000000E-03 0.  1.
         12    1    4    4    0    0  0.75441197243E+00  0.30538152888E+01 -0.82175469881E+00  0.32511853265E+01  0.00000000000E+00 0. -1.
</event>
<event>
 8    1  0.1253703E-006  0.9118800E+02  0.7816164E-02  0.1184000E+00
        -11   -1    0    0    0    0  0.00000000000E+00  0.00000000000E+00  0.45593999997E+02  0.45594000000E+02  0.51100000000E-03 0. -1.
         11   -1    0    0    0    0 -0.00000000000E+00 -0.00000000000E+00 -0.45593999997E+02  0.45594000000E+02  0.51100000000E-03 0.  1.
         23    2    1    2    0    0  0.00000000000E+00 -0.88817841970E-15  0.88817841970E-15  0.91188000000E+02  0.91188000000E+02 0.  0.
    9900012    2    3    3    0    0 -0.36103233784E+02 -0.50025224189E+01  0.52260061576E+01  0.54367083925E+02  0.39999999424E+02 0.  0.
         12    1    3    3    0    0  0.36103233784E+02  0.50025224189E+01 -0.52260061576E+01  0.36820916075E+02  0.00000000000E+00 0. -1.
         11    1    4    4    0    0 -0.26039978173E+02 -0.14912245236E+02 -0.23228661332E+01  0.30097362485E+02  0.51100000000E-03 0. -1.
        -11    1    4    4    0    0 -0.72181903580E+01  0.31972130169E+01 -0.52915396781E+01  0.95039378968E+01  0.51100000000E-03 0.  1.
         12    1    4    4    0    0 -0.28450652538E+01  0.67125098004E+01  0.12840411969E+02  0.14765783543E+02  0.00000000000E+00 0. -1.
</event>
<event>
 8    1  0.1253703E-006  0.9118800E+02  0.7816164E-02  0.1184000E+00
        -11   -1    0    0    0    0  0.00000000000E+00  0.00000000000E+00  0.45593999997E+02  0.45594000000E+02  0.51100000000E-03 0. -1.
         11   -1    0    0    0    0 -0.00000000000E+00 -0.00000000000E+00 -0.45593999997E+02  0.45594000000E+02  0.51100000000E-03 0.  1.
         23    2    1    2    0    0  0.00000000000E+00  0.00000000000E+00  0.44408920985E-15  0.91188000000E+02  0.91188000000E+02 0.  0.
    9900012    2    3    3    0    0  0.32007535856E+02  0.17995436468E+02  0.27316691594E+01  0.54367080652E+02  0.39999991962E+02 0.  0.
        -12    1    3    3    0    0 -0.32007535856E+02 -0.17995436468E+02 -0.27316691594E+01  0.36820919348E+02  0.00000000000E+00 0.  1.
         11    1    4    4    0    0  0.23755991398E+02  0.54057966922E+01  0.37338662102E+00  0.24366148301E+02  0.51100000000E-03 0. -1.
        -11    1    4    4    0    0 -0.88441746041E+01  0.94092634999E+00  0.27519007873E+01  0.93100872728E+01  0.51100000000E-03 0.  1.
        -12    1    4    4    0    0  0.17095719062E+02  0.11648713426E+02 -0.39361824886E+00  0.20690845078E+02  0.00000000000E+00 0.  1.
</event>
<event>
 8    1  0.1253703E-006  0.9118800E+02  0.7816164E-02  0.1184000E+00
        -11   -1    0    0    0    0  0.00000000000E+00  0.00000000000E+00  0.45593999997E+02  0.45594000000E+02  0.51100000000E-03 0. -1.
         11   -1    0    0    0    0 -0.00000000000E+00 -0.00000000000E+00 -0.45593999997E+02  0.45594000000E+02  0.51100000000E-03 0.  1.
         23    2    1    2    0    0 -0.71054273576E-14 -0.35527136788E-14 -0.26645352591E-14  0.91188000000E+02  0.91188000000E+02 0.  0.
    9900012    2    3    3    0    0  0.32303377259E+02  0.16623155672E+02  0.59949342329E+01  0.54367126528E+02  0.40000096545E+02 0.  0.
         12    1    3    3    0    0 -0.32303377259E+02 -0.16623155672E+02 -0.59949342329E+01  0.36820873472E+02  0.00000000000E+00 0. -1.
         11    1    4    4    0    0 -0.16958858199E+01 -0.33104416748E-01 -0.17852419577E+01  0.24625624307E+01  0.51100000000E-03 0. -1.
        -11    1    4    4    0    0  0.17707387508E+02  0.18919614490E+02 -0.99149053459E+01  0.27745427247E+02  0.51100000000E-03 0.  1.
         12    1    4    4    0    0  0.16291875571E+02 -0.22633544019E+01  0.17695081536E+02  0.24159136850E+02  0.00000000000E+00 0. -1.
</event>
<event>
 8    1  0.1253703E-006  0.9118800E+02  0.7816164E-02  0.1184000E+00
        -11   -1    0    0    0    0  0.00000000000E+00  0.00000000000E+00  0.45593999997E+02  0.45594000000E+02  0.51100000000E-03 0.  1.
         11   -1    0    0    0    0 -0.00000000000E+00 -0.00000000000E+00 -0.45593999997E+02  0.45594000000E+02  0.51100000000E-03 0. -1.
         23    2    1    2    0    0  0.35527136788E-14 -0.17763568394E-14 -0.35527136788E-14  0.91188000000E+02  0.91188000000E+02 0.  0.
    9900012    2    3    3    0    0 -0.19121836373E+02 -0.69411066937E+01  0.30691304897E+02  0.54367084956E+02  0.40000001774E+02 0.  0.
        -12    1    3    3    0    0  0.19121836373E+02  0.69411066937E+01 -0.30691304897E+02  0.36820915044E+02  0.00000000000E+00 0.  1.
         11    1    4    4    0    0 -0.12454196655E+02 -0.17684039074E+02  0.18299027440E+02  0.28331725288E+02  0.51100000000E-03 0. -1.
        -11    1    4    4    0    0 -0.13363310297E+02  0.59769821359E+01  0.71992707125E+01  0.16313548865E+02  0.51100000000E-03 0.  1.
         12    1    4    4    0    0  0.66956705790E+01  0.47659502441E+01  0.51930067448E+01  0.97218108027E+01  0.00000000000E+00 0. -1.
</event>
<event>
 8    1  0.1253703E-006  0.9118800E+02  0.7816164E-02  0.1184000E+00
        -11   -1    0    0    0    0  0.00000000000E+00  0.00000000000E+00  0.45593999997E+02  0.45594000000E+02  0.51100000000E-03 0.  1.
         11   -1    0    0    0    0 -0.00000000000E+00 -0.00000000000E+00 -0.45593999997E+02  0.45594000000E+02  0.51100000000E-03 0. -1.
         23    2    1    2    0    0  0.00000000000E+00  0.35527136788E-14  0.00000000000E+00  0.91188000000E+02  0.91188000000E+02 0.  0.
    9900012    2    3    3    0    0 -0.67708640537E+01  0.24515546332E+02  0.26625653895E+02  0.54367054095E+02  0.39999931420E+02 0.  0.
         12    1    3    3    0    0  0.67708640537E+01 -0.24515546332E+02 -0.26625653895E+02  0.36820945905E+02  0.00000000000E+00 0. -1.
         11    1    4    4    0    0 -0.32209499565E+01  0.17881801613E+02  0.40315589312E+01  0.18611469991E+02  0.51100000000E-03 0. -1.
        -11    1    4    4    0    0  0.16467806149E+01  0.16465348248E+02  0.12515750102E+02  0.20747616253E+02  0.51100000000E-03 0.  1.
         12    1    4    4    0    0 -0.51966947121E+01 -0.98316035282E+01  0.10078344861E+02  0.15007967851E+02  0.00000000000E+00 0. -1.
</event>
<event>
 8    1  0.1253703E-006  0.9118800E+02  0.7816164E-02  0.1184000E+00
        -11   -1    0    0    0    0  0.00000000000E+00  0.00000000000E+00  0.45593999997E+02  0.45594000000E+02  0.51100000000E-03 0. -1.
         11   -1    0    0    0    0 -0.00000000000E+00 -0.00000000000E+00 -0.45593999997E+02  0.45594000000E+02  0.51100000000E-03 0.  1.
         23    2    1    2    0    0  0.00000000000E+00  0.17763568394E-14  0.00000000000E+00  0.91188000000E+02  0.91188000000E+02 0.  0.
    9900012    2    3    3    0    0  0.19686235069E+02 -0.12620774471E+02 -0.28442015341E+02  0.54367081542E+02  0.39999993991E+02 0.  0.
         12    1    3    3    0    0 -0.19686235069E+02  0.12620774471E+02  0.28442015341E+02  0.36820918458E+02  0.00000000000E+00 0. -1.
         11    1    4    4    0    0  0.10222472630E+02 -0.55449891241E+01 -0.35874074374E+01  0.12170264724E+02  0.51100000000E-03 0. -1.
        -11    1    4    4    0    0 -0.79622911822E+01 -0.14979186172E+01 -0.22295214083E+02  0.23721686541E+02  0.51100000000E-03 0.  1.
        -12    1    4    4    0    0  0.17426053621E+02 -0.55778667299E+01 -0.25593938204E+01  0.18475130277E+02  0.00000000000E+00 0.  1.
</event>
<event>
 8    1  0.1253703E-006  0.9118800E+02  0.7816164E-02  0.1184000E+00
        -11   -1    0    0    0    0  0.00000000000E+00  0.00000000000E+00  0.45593999997E+02  0.45594000000E+02  0.51100000000E-03 0. -1.
         11   -1    0    0    0    0 -0.00000000000E+00 -0.00000000000E+00 -0.45593999997E+02  0.45594000000E+02  0.51100000000E-03 0.  1.
         23    2    1    2    0    0  0.17763568394E-14 -0.35527136788E-14  0.00000000000E+00  0.91188000000E+02  0.91188000000E+02 0.  0.
    9900012    2    3    3    0    0 -0.14701214785E+02  0.18230694556E+02 -0.28412981776E+02  0.54367062023E+02  0.39999949493E+02 0.  0.
         12    1    3    3    0    0  0.14701214785E+02 -0.18230694556E+02  0.28412981776E+02  0.36820937977E+02  0.00000000000E+00 0. -1.
         11    1    4    4    0    0 -0.14272561261E+02  0.21346466602E+02 -0.14136520701E+02  0.29312435231E+02  0.51100000000E-03 0. -1.
        -11    1    4    4    0    0 -0.43705507627E+01  0.67395254127E+01 -0.10580609999E+01  0.81020003763E+01  0.51100000000E-03 0.  1.
        -12    1    4    4    0    0  0.39418972396E+01 -0.98552974587E+01 -0.13218400075E+02  0.16952626415E+02  0.00000000000E+00 0.  1.
</event>
<event>
 8    1  0.1253703E-006  0.9118800E+02  0.7816164E-02  0.1184000E+00
        -11   -1    0    0    0    0  0.00000000000E+00  0.00000000000E+00  0.45593999997E+02  0.45594000000E+02  0.51100000000E-03 0. -1.
         11   -1    0    0    0    0 -0.00000000000E+00 -0.00000000000E+00 -0.45593999997E+02  0.45594000000E+02  0.51100000000E-03 0.  1.
         23    2    1    2    0    0  0.00000000000E+00  0.44408920985E-15  0.00000000000E+00  0.91188000000E+02  0.91188000000E+02 0.  0.
    9900012    2    3    3    0    0 -0.74698575983E+01 -0.14186272146E+01  0.36027326077E+02  0.54367088822E+02  0.40000010589E+02 0.  0.
        -12    1    3    3    0    0  0.74698575983E+01  0.14186272146E+01 -0.36027326077E+02  0.36820911178E+02  0.00000000000E+00 0.  1.
         11    1    4    4    0    0  0.60642387914E+01  0.29570366163E+00  0.17221268751E+00  0.60738859263E+01  0.51100000000E-03 0. -1.
        -11    1    4    4    0    0  0.29194029895E+01  0.27301929003E+01 -0.35590558831E+01  0.53519852511E+01  0.51100000000E-03 0.  1.
         12    1    4    4    0    0 -0.16453499379E+02 -0.44445237765E+01  0.39414169272E+02  0.42941217645E+02  0.00000000000E+00 0. -1.
</event>
<event>
 8    1  0.1253703E-006  0.9118800E+02  0.7816164E-02  0.1184000E+00
        -11   -1    0    0    0    0  0.00000000000E+00  0.00000000000E+00  0.45593999997E+02  0.45594000000E+02  0.51100000000E-03 0.  1.
         11   -1    0    0    0    0 -0.00000000000E+00 -0.00000000000E+00 -0.45593999997E+02  0.45594000000E+02  0.51100000000E-03 0. -1.
         23    2    1    2    0    0  0.00000000000E+00  0.88817841970E-15  0.00000000000E+00  0.91188000000E+02  0.91188000000E+02 0.  0.
    9900012    2    3    3    0    0  0.31797474563E+02  0.10577769972E+01  0.18536027255E+02  0.54367046901E+02  0.39999915020E+02 0.  0.
         12    1    3    3    0    0 -0.31797474563E+02 -0.10577769972E+01 -0.18536027255E+02  0.36820953099E+02  0.00000000000E+00 0. -1.
         11    1    4    4    0    0  0.21473256435E+01  0.59513964519E+01 -0.67470995289E+01  0.92495123904E+01  0.51100000000E-03 0. -1.
        -11    1    4    4    0    0  0.10920022571E+02  0.77792443953E+01  0.38245913580E+01  0.13942418572E+02  0.51100000000E-03 0.  1.
        -12    1    4    4    0    0  0.18730126348E+02 -0.12672863850E+02  0.21458535426E+02  0.31175115938E+02  0.00000000000E+00 0.  1.
</event>
<event>
 8    1  0.1253703E-006  0.9118800E+02  0.7816164E-02  0.1184000E+00
        -11   -1    0    0    0    0  0.00000000000E+00  0.00000000000E+00  0.45593999997E+02  0.45594000000E+02  0.51100000000E-03 0.  1.
         11   -1    0    0    0    0 -0.00000000000E+00 -0.00000000000E+00 -0.45593999997E+02  0.45594000000E+02  0.51100000000E-03 0. -1.
         23    2    1    2    0    0  0.00000000000E+00 -0.35527136788E-14 -0.13322676296E-14  0.91188000000E+02  0.91188000000E+02 0.  0.
    9900012    2    3    3    0    0  0.31119808112E+02  0.19573469598E+02 -0.20535681409E+01  0.54367077807E+02  0.39999985477E+02 0.  0.
        -12    1    3    3    0    0 -0.31119808112E+02 -0.19573469598E+02  0.20535681409E+01  0.36820922193E+02  0.00000000000E+00 0.  1.
         11    1    4    4    0    0  0.22878535124E+02  0.20739194295E+02 -0.54475234479E+01  0.31356292214E+02  0.51100000000E-03 0.  1.
        -11    1    4    4    0    0  0.43624521293E+01  0.64225451089E+01 -0.63757755780E+01  0.10046421688E+02  0.51100000000E-03 0. -1.
         12    1    4    4    0    0  0.38788208586E+01 -0.75882698056E+01  0.97697308850E+01  0.12964363905E+02  0.00000000000E+00 0. -1.
</event>
<event>
 8    1  0.1253703E-006  0.9118800E+02  0.7816164E-02  0.1184000E+00
        -11   -1    0    0    0    0  0.00000000000E+00  0.00000000000E+00  0.45593999997E+02  0.45594000000E+02  0.51100000000E-03 0.  1.
         11   -1    0    0    0    0 -0.00000000000E+00 -0.00000000000E+00 -0.45593999997E+02  0.45594000000E+02  0.51100000000E-03 0. -1.
         23    2    1    2    0    0  0.00000000000E+00  0.35527136788E-14  0.71054273576E-14  0.91188000000E+02  0.91188000000E+02 0.  0.
    9900012    2    3    3    0    0 -0.20227887079E+02  0.24643470380E+02  0.18420427570E+02  0.54367079317E+02  0.39999988919E+02 0.  0.
         12    1    3    3    0    0  0.20227887079E+02 -0.24643470380E+02 -0.18420427570E+02  0.36820920683E+02  0.00000000000E+00 0. -1.
         11    1    4    4    0    0 -0.16454387739E+02 -0.52736984387E+01  0.11104665195E+02  0.20539531651E+02  0.51100000000E-03 0. -1.
        -11    1    4    4    0    0 -0.10483944450E+01 -0.94254006033E+00  0.19190107849E+01  0.23812003971E+01  0.51100000000E-03 0.  1.
        -12    1    4    4    0    0 -0.27251048950E+01  0.30859708879E+02  0.53967515899E+01  0.31446347269E+02  0.00000000000E+00 0.  1.
</event>
<event>
 8    1  0.1253703E-006  0.9118800E+02  0.7816164E-02  0.1184000E+00
        -11   -1    0    0    0    0  0.00000000000E+00  0.00000000000E+00  0.45593999997E+02  0.45594000000E+02  0.51100000000E-03 0. -1.
         11   -1    0    0    0    0 -0.00000000000E+00 -0.00000000000E+00 -0.45593999997E+02  0.45594000000E+02  0.51100000000E-03 0.  1.
         23    2    1    2    0    0 -0.88817841970E-15 -0.33306690739E-15 -0.71054273576E-14  0.91188000000E+02  0.91188000000E+02 0.  0.
    9900012    2    3    3    0    0  0.22252226834E+01  0.94110938697E-01  0.36753507793E+02  0.54367071061E+02  0.39999970097E+02 0.  0.
        -12    1    3    3    0    0 -0.22252226834E+01 -0.94110938697E-01 -0.36753507793E+02  0.36820928939E+02  0.00000000000E+00 0.  1.
         11    1    4    4    0    0  0.12937906202E+02 -0.93782539828E-01  0.10521997217E+02  0.16676649476E+02  0.51100000000E-03 0. -1.
        -11    1    4    4    0    0 -0.85970427131E+01  0.67892630225E+01  0.41826902284E+00  0.10962581130E+02  0.51100000000E-03 0.  1.
         12    1    4    4    0    0 -0.21156408055E+01 -0.66013695440E+01  0.25813241553E+02  0.26727840455E+02  0.00000000000E+00 0. -1.
</event>
<event>
 8    1  0.1253703E-006  0.9118800E+02  0.7816164E-02  0.1184000E+00
        -11   -1    0    0    0    0  0.00000000000E+00  0.00000000000E+00  0.45593999997E+02  0.45594000000E+02  0.51100000000E-03 0. -1.
         11   -1    0    0    0    0 -0.00000000000E+00 -0.00000000000E+00 -0.45593999997E+02  0.45594000000E+02  0.51100000000E-03 0.  1.
         23    2    1    2    0    0  0.00000000000E+00  0.00000000000E+00  0.35527136788E-14  0.91188000000E+02  0.91188000000E+02 0.  0.
    9900012    2    3    3    0    0  0.13162788971E+02  0.19925356277E+02  0.28026797697E+02  0.54367078972E+02  0.39999988132E+02 0.  0.
        -12    1    3    3    0    0 -0.13162788971E+02 -0.19925356277E+02 -0.28026797697E+02  0.36820921028E+02  0.00000000000E+00 0.  1.
         11    1    4    4    0    0  0.14681370986E+02  0.94512673279E+01  0.20280499843E+02  0.26761311296E+02  0.51100000000E-03 0. -1.
        -11    1    4    4    0    0  0.50089423001E+01 -0.57863389595E+01 -0.14927936725E+01  0.77974133358E+01  0.51100000000E-03 0.  1.
         12    1    4    4    0    0 -0.65275243154E+01  0.16260427908E+02  0.92390915265E+01  0.19808354341E+02  0.00000000000E+00 0. -1.
</event>
<event>
 8    1  0.1253703E-006  0.9118800E+02  0.7816164E-02  0.1184000E+00
        -11   -1    0    0    0    0  0.00000000000E+00  0.00000000000E+00  0.45593999997E+02  0.45594000000E+02  0.51100000000E-03 0.  1.
         11   -1    0    0    0    0 -0.00000000000E+00 -0.00000000000E+00 -0.45593999997E+02  0.45594000000E+02  0.51100000000E-03 0. -1.
         23    2    1    2    0    0  0.00000000000E+00 -0.35527136788E-14  0.00000000000E+00  0.91188000000E+02  0.91188000000E+02 0.  0.
    9900012    2    3    3    0    0 -0.30043675090E+02 -0.17141221872E+02 -0.12622874115E+02  0.54367070474E+02  0.39999968760E+02 0.  0.
         12    1    3    3    0    0  0.30043675090E+02  0.17141221872E+02  0.12622874115E+02  0.36820929526E+02  0.00000000000E+00 0. -1.
         11    1    4    4    0    0  0.60905725276E+01  0.70820481252E+00  0.70985800307E+00  0.61725623866E+01  0.51100000000E-03 0. -1.
        -11    1    4    4    0    0 -0.30157720190E+02 -0.73786469968E+01 -0.11706692924E+01  0.31069325474E+02  0.51100000000E-03 0.  1.
         12    1    4    4    0    0 -0.59765274279E+01 -0.10470779688E+02 -0.12162062826E+02  0.17125182614E+02  0.00000000000E+00 0. -1.
</event>
<event>
 8    1  0.1253703E-006  0.9118800E+02  0.7816164E-02  0.1184000E+00
        -11   -1    0    0    0    0  0.00000000000E+00  0.00000000000E+00  0.45593999997E+02  0.45594000000E+02  0.51100000000E-03 0.  1.
         11   -1    0    0    0    0 -0.00000000000E+00 -0.00000000000E+00 -0.45593999997E+02  0.45594000000E+02  0.51100000000E-03 0. -1.
         23    2    1    2    0    0  0.71054273576E-14 -0.17763568394E-14  0.00000000000E+00  0.91188000000E+02  0.91188000000E+02 0.  0.
    9900012    2    3    3    0    0  0.32103735414E+02 -0.10674387474E+02 -0.14532321188E+02  0.54367072057E+02  0.39999972369E+02 0.  0.
         12    1    3    3    0    0 -0.32103735414E+02  0.10674387474E+02  0.14532321188E+02  0.36820927943E+02  0.00000000000E+00 0. -1.
         11    1    4    4    0    0  0.10348181333E+01  0.47813732782E+01 -0.38901195664E+01  0.62502327554E+01  0.51100000000E-03 0. -1.
        -11    1    4    4    0    0 -0.50027577360E+01 -0.61597456668E+01 -0.71878038799E+01  0.10706753781E+02  0.51100000000E-03 0.  1.
        -12    1    4    4    0    0  0.36071675016E+02 -0.92960150857E+01 -0.34543977413E+01  0.37410085521E+02  0.00000000000E+00 0.  1.
</event>
<event>
 8    1  0.1253703E-006  0.9118800E+02  0.7816164E-02  0.1184000E+00
        -11   -1    0    0    0    0  0.00000000000E+00  0.00000000000E+00  0.45593999997E+02  0.45594000000E+02  0.51100000000E-03 0. -1.
         11   -1    0    0    0    0 -0.00000000000E+00 -0.00000000000E+00 -0.45593999997E+02  0.45594000000E+02  0.51100000000E-03 0.  1.
         23    2    1    2    0    0  0.22204460493E-15  0.17763568394E-14  0.00000000000E+00  0.91188000000E+02  0.91188000000E+02 0.  0.
    9900012    2    3    3    0    0  0.16656998884E+01  0.11806955645E+02  0.34836793558E+02  0.54367069225E+02  0.39999965912E+02 0.  0.
         12    1    3    3    0    0 -0.16656998884E+01 -0.11806955645E+02 -0.34836793558E+02  0.36820930775E+02  0.00000000000E+00 0. -1.
         11    1    4    4    0    0 -0.17509995290E+01 -0.69828994884E+01  0.28022762999E+02  0.28932717310E+02  0.51100000000E-03 0. -1.
        -11    1    4    4    0    0  0.95405069559E+01  0.11606993724E+02  0.48969492003E+01  0.15802648133E+02  0.51100000000E-03 0.  1.
         12    1    4    4    0    0 -0.61238075385E+01  0.71828614095E+01  0.19170813590E+01  0.96317037815E+01  0.00000000000E+00 0. -1.
</event>
<event>
 8    1  0.1253703E-006  0.9118800E+02  0.7816164E-02  0.1184000E+00
        -11   -1    0    0    0    0  0.00000000000E+00  0.00000000000E+00  0.45593999997E+02  0.45594000000E+02  0.51100000000E-03 0. -1.
         11   -1    0    0    0    0 -0.00000000000E+00 -0.00000000000E+00 -0.45593999997E+02  0.45594000000E+02  0.51100000000E-03 0.  1.
         23    2    1    2    0    0 -0.88817841970E-15  0.17763568394E-14  0.00000000000E+00  0.91188000000E+02  0.91188000000E+02 0.  0.
    9900012    2    3    3    0    0  0.51986661801E+01 -0.99750132660E+01 -0.35060713201E+02  0.54367073479E+02  0.39999975610E+02 0.  0.
         12    1    3    3    0    0 -0.51986661801E+01  0.99750132660E+01  0.35060713201E+02  0.36820926521E+02  0.00000000000E+00 0. -1.
         11    1    4    4    0    0  0.10730936651E+01 -0.13670114875E+01  0.58461723077E+00  0.18335833738E+01  0.51100000000E-03 0. -1.
        -11    1    4    4    0    0 -0.20375829621E+01  0.54868401524E+01  0.58519294056E+01  0.82766078326E+01  0.51100000000E-03 0.  1.
        -12    1    4    4    0    0  0.61631554771E+01 -0.14094841931E+02 -0.41497259837E+02  0.44256882273E+02  0.00000000000E+00 0.  1.
</event>
<event>
 8    1  0.1253703E-006  0.9118800E+02  0.7816164E-02  0.1184000E+00
        -11   -1    0    0    0    0  0.00000000000E+00  0.00000000000E+00  0.45593999997E+02  0.45594000000E+02  0.51100000000E-03 0.  1.
         11   -1    0    0    0    0 -0.00000000000E+00 -0.00000000000E+00 -0.45593999997E+02  0.45594000000E+02  0.51100000000E-03 0. -1.
         23    2    1    2    0    0 -0.26645352591E-14  0.88817841970E-15  0.71054273576E-14  0.91188000000E+02  0.91188000000E+02 0.  0.
    9900012    2    3    3    0    0  0.49154484224E+01 -0.57699017173E+01  0.36032333362E+02  0.54367048810E+02  0.39999919373E+02 0.  0.
         12    1    3    3    0    0 -0.49154484224E+01  0.57699017173E+01 -0.36032333362E+02  0.36820951190E+02  0.00000000000E+00 0. -1.
         11    1    4    4    0    0 -0.14600889216E+02  0.35279068243E+01  0.90091799218E+01  0.17515633462E+02  0.51100000000E-03 0. -1.
        -11    1    4    4    0    0  0.31990362115E+01 -0.64582276907E+01  0.14130807746E+02  0.15862605883E+02  0.51100000000E-03 0.  1.
         12    1    4    4    0    0  0.16317301427E+02 -0.28395808509E+01  0.12892345694E+02  0.20988809465E+02  0.00000000000E+00 0. -1.
</event>
<event>
 8    1  0.1253703E-006  0.9118800E+02  0.7816164E-02  0.1184000E+00
        -11   -1    0    0    0    0  0.00000000000E+00  0.00000000000E+00  0.45593999997E+02  0.45594000000E+02  0.51100000000E-03 0.  1.
         11   -1    0    0    0    0 -0.00000000000E+00 -0.00000000000E+00 -0.45593999997E+02  0.45594000000E+02  0.51100000000E-03 0. -1.
         23    2    1    2    0    0 -0.88817841970E-15  0.71054273576E-14  0.17763568394E-14  0.91188000000E+02  0.91188000000E+02 0.  0.
    9900012    2    3    3    0    0  0.64993347904E+01 -0.34840398064E+02 -0.99842001441E+01  0.54367096392E+02  0.40000027845E+02 0.  0.
        -12    1    3    3    0    0 -0.64993347904E+01  0.34840398064E+02  0.99842001441E+01  0.36820903608E+02  0.00000000000E+00 0.  1.
         11    1    4    4    0    0  0.63533743030E+01 -0.17899867381E+01 -0.48362318217E+01  0.81828207882E+01  0.51100000000E-03 0. -1.
        -11    1    4    4    0    0  0.87048100330E+00 -0.15449401446E+00 -0.12448792778E+02  0.12480146132E+02  0.51100000000E-03 0.  1.
        -12    1    4    4    0    0 -0.72452051593E+00 -0.32895917311E+02  0.73008244559E+01  0.33704129472E+02  0.00000000000E+00 0.  1.
</event>
<event>
 8    1  0.1253703E-006  0.9118800E+02  0.7816164E-02  0.1184000E+00
        -11   -1    0    0    0    0  0.00000000000E+00  0.00000000000E+00  0.45593999997E+02  0.45594000000E+02  0.51100000000E-03 0.  1.
         11   -1    0    0    0    0 -0.00000000000E+00 -0.00000000000E+00 -0.45593999997E+02  0.45594000000E+02  0.51100000000E-03 0. -1.
         23    2    1    2    0    0 -0.17763568394E-14 -0.17763568394E-14  0.00000000000E+00  0.91188000000E+02  0.91188000000E+02 0.  0.
    9900012    2    3    3    0    0 -0.12212270495E+02  0.74464293330E+01 -0.33929214709E+02  0.54367075633E+02  0.39999980520E+02 0.  0.
        -12    1    3    3    0    0  0.12212270495E+02 -0.74464293330E+01  0.33929214709E+02  0.36820924367E+02  0.00000000000E+00 0.  1.
         11    1    4    4    0    0 -0.61631799768E+01  0.18505237972E+02 -0.84267908794E+01  0.21247103912E+02  0.51100000000E-03 0. -1.
        -11    1    4    4    0    0  0.10837011609E+01  0.19895302452E+01 -0.14361006633E+02  0.14538608963E+02  0.51100000000E-03 0.  1.
        -12    1    4    4    0    0 -0.71327916796E+01 -0.13048338885E+02 -0.11141417197E+02  0.18581362758E+02  0.00000000000E+00 0.  1.
</event>
<event>
 8    1  0.1253703E-006  0.9118800E+02  0.7816164E-02  0.1184000E+00
        -11   -1    0    0    0    0  0.00000000000E+00  0.00000000000E+00  0.45593999997E+02  0.45594000000E+02  0.51100000000E-03 0.  1.
         11   -1    0    0    0    0 -0.00000000000E+00 -0.00000000000E+00 -0.45593999997E+02  0.45594000000E+02  0.51100000000E-03 0. -1.
         23    2    1    2    0    0 -0.17763568394E-14 -0.77715611724E-15  0.00000000000E+00  0.91188000000E+02  0.91188000000E+02 0.  0.
    9900012    2    3    3    0    0 -0.14691190238E+02  0.39326721541E+00  0.33760810383E+02  0.54367108547E+02  0.40000055554E+02 0.  0.
         12    1    3    3    0    0  0.14691190238E+02 -0.39326721541E+00 -0.33760810383E+02  0.36820891453E+02  0.00000000000E+00 0. -1.
         11    1    4    4    0    0  0.53582509304E+01  0.45463983192E+01  0.73089721304E+00  0.70650408142E+01  0.51100000000E-03 0. -1.
        -11    1    4    4    0    0  0.11048442605E+01 -0.10169883950E+02  0.42421120209E+01  0.11074418046E+02  0.51100000000E-03 0.  1.
        -12    1    4    4    0    0 -0.21154285428E+02  0.60167528467E+01  0.28787801149E+02  0.36227649686E+02  0.00000000000E+00 0.  1.
</event>
<event>
 8    1  0.1253703E-006  0.9118800E+02  0.7816164E-02  0.1184000E+00
        -11   -1    0    0    0    0  0.00000000000E+00  0.00000000000E+00  0.45593999997E+02  0.45594000000E+02  0.51100000000E-03 0.  1.
         11   -1    0    0    0    0 -0.00000000000E+00 -0.00000000000E+00 -0.45593999997E+02  0.45594000000E+02  0.51100000000E-03 0. -1.
         23    2    1    2    0    0  0.33306690739E-15  0.00000000000E+00  0.00000000000E+00  0.91188000000E+02  0.91188000000E+02 0.  0.
    9900012    2    3    3    0    0  0.19757402660E+00 -0.36663734597E+02 -0.33928555270E+01  0.54367082864E+02  0.39999997005E+02 0.  0.
        -12    1    3    3    0    0 -0.19757402660E+00  0.36663734597E+02  0.33928555270E+01  0.36820917136E+02  0.00000000000E+00 0.  1.
         11    1    4    4    0    0  0.12490678594E+01  0.24483097613E+01 -0.84678414469E+00  0.28760102318E+01  0.51100000000E-03 0. -1.
        -11    1    4    4    0    0 -0.93695833690E+01 -0.18009311844E+02  0.12896102710E+02  0.24050652194E+02  0.51100000000E-03 0.  1.
         12    1    4    4    0    0  0.83180895362E+01 -0.21102732515E+02 -0.15442174092E+02  0.27440420438E+02  0.00000000000E+00 0. -1.
</event>
<event>
 8    1  0.1253703E-006  0.9118800E+02  0.7816164E-02  0.1184000E+00
        -11   -1    0    0    0    0  0.00000000000E+00  0.00000000000E+00  0.45593999997E+02  0.45594000000E+02  0.51100000000E-03 0. -1.
         11   -1    0    0    0    0 -0.00000000000E+00 -0.00000000000E+00 -0.45593999997E+02  0.45594000000E+02  0.51100000000E-03 0.  1.
         23    2    1    2    0    0  0.00000000000E+00  0.88817841970E-15  0.00000000000E+00  0.91188000000E+02  0.91188000000E+02 0.  0.
    9900012    2    3    3    0    0 -0.25342256401E+02  0.75121878749E+01  0.25634301724E+02  0.54367077265E+02  0.39999984241E+02 0.  0.
        -12    1    3    3    0    0  0.25342256401E+02 -0.75121878749E+01 -0.25634301724E+02  0.36820922735E+02  0.00000000000E+00 0.  1.
         11    1    4    4    0    0 -0.32640758714E+00  0.41983687934E+01  0.63929067379E+00  0.42592881171E+01  0.51100000000E-03 0. -1.
        -11    1    4    4    0    0 -0.23050831390E+02  0.20760666038E+01 -0.17984191841E+01  0.23213900839E+02  0.51100000000E-03 0.  1.
        -12    1    4    4    0    0 -0.19650174237E+01  0.12377524778E+01  0.26793430234E+02  0.26893888309E+02  0.00000000000E+00 0.  1.
</event>
<event>
 8    1  0.1253703E-006  0.9118800E+02  0.7816164E-02  0.1184000E+00
        -11   -1    0    0    0    0  0.00000000000E+00  0.00000000000E+00  0.45593999997E+02  0.45594000000E+02  0.51100000000E-03 0. -1.
         11   -1    0    0    0    0 -0.00000000000E+00 -0.00000000000E+00 -0.45593999997E+02  0.45594000000E+02  0.51100000000E-03 0.  1.
         23    2    1    2    0    0  0.00000000000E+00  0.00000000000E+00  0.00000000000E+00  0.91188000000E+02  0.91188000000E+02 0.  0.
    9900012    2    3    3    0    0 -0.20983652937E+02  0.16153593635E+02  0.25583752228E+02  0.54367073124E+02  0.39999974802E+02 0.  0.
        -12    1    3    3    0    0  0.20983652937E+02 -0.16153593635E+02 -0.25583752228E+02  0.36820926876E+02  0.00000000000E+00 0.  1.
         11    1    4    4    0    0 -0.61371777403E+01  0.35389474682E+00  0.78432571229E+01  0.99652834714E+01  0.51100000000E-03 0. -1.
        -11    1    4    4    0    0 -0.13333928113E+02  0.26540477312E+02  0.11246496765E+02  0.31759632627E+02  0.51100000000E-03 0.  1.
        -12    1    4    4    0    0 -0.15125470842E+01 -0.10740778424E+02  0.64939983402E+01  0.12642157026E+02  0.00000000000E+00 0.  1.
</event>
<event>
 8    1  0.1253703E-006  0.9118800E+02  0.7816164E-02  0.1184000E+00
        -11   -1    0    0    0    0  0.00000000000E+00  0.00000000000E+00  0.45593999997E+02  0.45594000000E+02  0.51100000000E-03 0.  1.
         11   -1    0    0    0    0 -0.00000000000E+00 -0.00000000000E+00 -0.45593999997E+02  0.45594000000E+02  0.51100000000E-03 0. -1.
         23    2    1    2    0    0  0.00000000000E+00  0.00000000000E+00 -0.35527136788E-14  0.91188000000E+02  0.91188000000E+02 0.  0.
    9900012    2    3    3    0    0 -0.16048486139E+02  0.10138154256E+02 -0.31550659362E+02  0.54367079516E+02  0.39999989373E+02 0.  0.
        -12    1    3    3    0    0  0.16048486139E+02 -0.10138154256E+02  0.31550659362E+02  0.36820920484E+02  0.00000000000E+00 0.  1.
         11    1    4    4    0    0 -0.38101412036E+00 -0.11876693370E+02 -0.19807936060E+02  0.23098817035E+02  0.51100000000E-03 0. -1.
        -11    1    4    4    0    0 -0.35410312533E+01  0.66392273056E+01 -0.86142141121E+01  0.11437785038E+02  0.51100000000E-03 0.  1.
         12    1    4    4    0    0 -0.12126440766E+02  0.15375620321E+02 -0.31285091898E+01  0.19830477443E+02  0.00000000000E+00 0. -1.
</event>
<event>
 8    1  0.1253703E-006  0.9118800E+02  0.7816164E-02  0.1184000E+00
        -11   -1    0    0    0    0  0.00000000000E+00  0.00000000000E+00  0.45593999997E+02  0.45594000000E+02  0.51100000000E-03 0. -1.
         11   -1    0    0    0    0 -0.00000000000E+00 -0.00000000000E+00 -0.45593999997E+02  0.45594000000E+02  0.51100000000E-03 0.  1.
         23    2    1    2    0    0  0.00000000000E+00  0.00000000000E+00  0.00000000000E+00  0.91188000000E+02  0.91188000000E+02 0.  0.
    9900012    2    3    3    0    0 -0.34530040164E+02  0.41767961495E+01  0.12084036093E+02  0.54366902405E+02  0.39999585611E+02 0.  0.
        -12    1    3    3    0    0  0.34530040164E+02 -0.41767961495E+01 -0.12084036093E+02  0.36821097595E+02  0.00000000000E+00 0.  1.
         11    1    4    4    0    0 -0.32781174791E+00  0.40862267213E+01  0.61004510132E+01  0.73498443647E+01  0.51100000000E-03 0. -1.
        -11    1    4    4    0    0 -0.25615786645E+02 -0.16150770520E+01  0.18573974755E+02  0.31682322165E+02  0.51100000000E-03 0.  1.
        -12    1    4    4    0    0 -0.85864417705E+01  0.17056464801E+01 -0.12590389675E+02  0.15334735875E+02  0.00000000000E+00 0.  1.
</event>
<event>
 8    1  0.1253703E-006  0.9118800E+02  0.7816164E-02  0.1184000E+00
        -11   -1    0    0    0    0  0.00000000000E+00  0.00000000000E+00  0.45593999997E+02  0.45594000000E+02  0.51100000000E-03 0. -1.
         11   -1    0    0    0    0 -0.00000000000E+00 -0.00000000000E+00 -0.45593999997E+02  0.45594000000E+02  0.51100000000E-03 0.  1.
         23    2    1    2    0    0  0.00000000000E+00 -0.17763568394E-14  0.35527136788E-14  0.91188000000E+02  0.91188000000E+02 0.  0.
    9900012    2    3    3    0    0 -0.27052800882E+02  0.11426254340E+02 -0.22211865570E+02  0.54367078014E+02  0.39999985949E+02 0.  0.
         12    1    3    3    0    0  0.27052800882E+02 -0.11426254340E+02  0.22211865570E+02  0.36820921986E+02  0.00000000000E+00 0. -1.
         11    1    4    4    0    0 -0.43519515135E+01  0.71332047434E+01 -0.12903500865E+02  0.15372782010E+02  0.51100000000E-03 0. -1.
        -11    1    4    4    0    0 -0.12970636047E+02  0.10952613613E+02 -0.17697540061E+02  0.24523459562E+02  0.51100000000E-03 0.  1.
         12    1    4    4    0    0 -0.97302133211E+01 -0.66595640163E+01  0.83891753566E+01  0.14470836442E+02  0.00000000000E+00 0. -1.
</event>
<event>
 8    1  0.1253703E-006  0.9118800E+02  0.7816164E-02  0.1184000E+00
        -11   -1    0    0    0    0  0.00000000000E+00  0.00000000000E+00  0.45593999997E+02  0.45594000000E+02  0.51100000000E-03 0. -1.
         11   -1    0    0    0    0 -0.00000000000E+00 -0.00000000000E+00 -0.45593999997E+02  0.45594000000E+02  0.51100000000E-03 0.  1.
         23    2    1    2    0    0 -0.88817841970E-15  0.00000000000E+00  0.71054273576E-14  0.91188000000E+02  0.91188000000E+02 0.  0.
    9900012    2    3    3    0    0 -0.69378365773E+01 -0.70127089554E+01  0.35474738880E+02  0.54367234638E+02  0.40000343002E+02 0.  0.
        -12    1    3    3    0    0  0.69378365773E+01  0.70127089554E+01 -0.35474738880E+02  0.36820765362E+02  0.00000000000E+00 0.  1.
         11    1    4    4    0    0 -0.67013950221E+01  0.29737500860E+01  0.13349993110E+02  0.15230699298E+02  0.51100000000E-03 0.  1.
        -11    1    4    4    0    0 -0.22942273665E+01 -0.20975812979E+02  0.14629042004E+02  0.25676002016E+02  0.51100000000E-03 0. -1.
         12    1    4    4    0    0  0.20577858114E+01  0.10989353937E+02  0.74957037658E+01  0.13460533323E+02  0.00000000000E+00 0. -1.
</event>
<event>
 8    1  0.1253703E-006  0.9118800E+02  0.7816164E-02  0.1184000E+00
        -11   -1    0    0    0    0  0.00000000000E+00  0.00000000000E+00  0.45593999997E+02  0.45594000000E+02  0.51100000000E-03 0.  1.
         11   -1    0    0    0    0 -0.00000000000E+00 -0.00000000000E+00 -0.45593999997E+02  0.45594000000E+02  0.51100000000E-03 0. -1.
         23    2    1    2    0    0  0.00000000000E+00  0.00000000000E+00  0.00000000000E+00  0.91188000000E+02  0.91188000000E+02 0.  0.
    9900012    2    3    3    0    0 -0.19574900963E+02 -0.93520766733E+01 -0.29751334791E+02  0.54367081928E+02  0.39999994872E+02 0.  0.
        -12    1    3    3    0    0  0.19574900963E+02  0.93520766733E+01  0.29751334791E+02  0.36820918072E+02  0.00000000000E+00 0.  1.
         11    1    4    4    0    0  0.11740209408E+01 -0.56100696063E+01 -0.22487542451E+02  0.23206481248E+02  0.51100000000E-03 0. -1.
        -11    1    4    4    0    0 -0.79331874417E+01 -0.77224453514E+01  0.57429046494E+01  0.12472071972E+02  0.51100000000E-03 0.  1.
        -12    1    4    4    0    0 -0.12815734462E+02  0.39804382844E+01 -0.13006696989E+02  0.18688528709E+02  0.00000000000E+00 0.  1.
</event>
<event>
 8    1  0.1253703E-006  0.9118800E+02  0.7816164E-02  0.1184000E+00
        -11   -1    0    0    0    0  0.00000000000E+00  0.00000000000E+00  0.45593999997E+02  0.45594000000E+02  0.51100000000E-03 0.  1.
         11   -1    0    0    0    0 -0.00000000000E+00 -0.00000000000E+00 -0.45593999997E+02  0.45594000000E+02  0.51100000000E-03 0. -1.
         23    2    1    2    0    0  0.88817841970E-15  0.00000000000E+00  0.00000000000E+00  0.91188000000E+02  0.91188000000E+02 0.  0.
    9900012    2    3    3    0    0 -0.18826329946E+01 -0.17563082508E+02 -0.32307481256E+02  0.54367088560E+02  0.40000009990E+02 0.  0.
        -12    1    3    3    0    0  0.18826329946E+01  0.17563082508E+02  0.32307481256E+02  0.36820911440E+02  0.00000000000E+00 0.  1.
         11    1    4    4    0    0 -0.24255471625E+01 -0.52634587624E+01 -0.20992073644E+02  0.21777383528E+02  0.51100000000E-03 0. -1.
        -11    1    4    4    0    0  0.53467206823E+01 -0.14747157688E+02 -0.18081975414E+02  0.23937917977E+02  0.51100000000E-03 0.  1.
        -12    1    4    4    0    0 -0.48038065144E+01  0.24475339424E+01  0.67665678022E+01  0.86517870552E+01  0.00000000000E+00 0.  1.
</event>
<event>
 8    1  0.1253703E-006  0.9118800E+02  0.7816164E-02  0.1184000E+00
        -11   -1    0    0    0    0  0.00000000000E+00  0.00000000000E+00  0.45593999997E+02  0.45594000000E+02  0.51100000000E-03 0.  1.
         11   -1    0    0    0    0 -0.00000000000E+00 -0.00000000000E+00 -0.45593999997E+02  0.45594000000E+02  0.51100000000E-03 0. -1.
         23    2    1    2    0    0  0.00000000000E+00 -0.71054273576E-14  0.00000000000E+00  0.91188000000E+02  0.91188000000E+02 0.  0.
    9900012    2    3    3    0    0 -0.12701267142E+02  0.34212551038E+02  0.48928944732E+01  0.54367336618E+02  0.40000575484E+02 0.  0.
         12    1    3    3    0    0  0.12701267142E+02 -0.34212551038E+02 -0.48928944732E+01  0.36820663382E+02  0.00000000000E+00 0. -1.
         11    1    4    4    0    0 -0.93661649561E+00  0.44637502037E+01  0.78837019890E+01  0.91079675918E+01  0.51100000000E-03 0. -1.
        -11    1    4    4    0    0 -0.19862042342E+02  0.30165275590E+02  0.11903166953E+01  0.36136704769E+02  0.51100000000E-03 0.  1.
         12    1    4    4    0    0  0.80973916953E+01 -0.41647475588E+00 -0.41811242111E+01  0.91226642577E+01  0.00000000000E+00 0. -1.
</event>
<event>
 8    1  0.1253703E-006  0.9118800E+02  0.7816164E-02  0.1184000E+00
        -11   -1    0    0    0    0  0.00000000000E+00  0.00000000000E+00  0.45593999997E+02  0.45594000000E+02  0.51100000000E-03 0.  1.
         11   -1    0    0    0    0 -0.00000000000E+00 -0.00000000000E+00 -0.45593999997E+02  0.45594000000E+02  0.51100000000E-03 0. -1.
         23    2    1    2    0    0  0.00000000000E+00  0.71054273576E-14  0.17763568394E-14  0.91188000000E+02  0.91188000000E+02 0.  0.
    9900012    2    3    3    0    0  0.15480479174E+02 -0.31640729223E+02 -0.10723792728E+02  0.54367072368E+02  0.39999973077E+02 0.  0.
         12    1    3    3    0    0 -0.15480479174E+02  0.31640729223E+02  0.10723792728E+02  0.36820927632E+02  0.00000000000E+00 0. -1.
         11    1    4    4    0    0  0.86063719884E+01 -0.76581207886E+01 -0.36051177884E+01  0.12071177546E+02  0.51100000000E-03 0. -1.
        -11    1    4    4    0    0  0.15852606318E+02 -0.23952211168E+02  0.28687630397E+01  0.28865954835E+02  0.51100000000E-03 0.  1.
         12    1    4    4    0    0 -0.89784991321E+01 -0.30397266271E-01 -0.99874379797E+01  0.13429939987E+02  0.00000000000E+00 0. -1.
</event>
<event>
 8    1  0.1253703E-006  0.9118800E+02  0.7816164E-02  0.1184000E+00
        -11   -1    0    0    0    0  0.00000000000E+00  0.00000000000E+00  0.45593999997E+02  0.45594000000E+02  0.51100000000E-03 0.  1.
         11   -1    0    0    0    0 -0.00000000000E+00 -0.00000000000E+00 -0.45593999997E+02  0.45594000000E+02  0.51100000000E-03 0. -1.
         23    2    1    2    0    0  0.00000000000E+00  0.17763568394E-14  0.00000000000E+00  0.91188000000E+02  0.91188000000E+02 0.  0.
    9900012    2    3    3    0    0  0.32674557185E+02 -0.12906511614E+02  0.11026084952E+02  0.54367091827E+02  0.40000017438E+02 0.  0.
         12    1    3    3    0    0 -0.32674557185E+02  0.12906511614E+02 -0.11026084952E+02  0.36820908173E+02  0.00000000000E+00 0. -1.
         11    1    4    4    0    0  0.22218285344E+02 -0.37058410435E+01 -0.53737187797E+01  0.23157338259E+02  0.51100000000E-03 0. -1.
        -11    1    4    4    0    0  0.78926701484E+01  0.67428039942E+01  0.70764207934E+01  0.12563255123E+02  0.51100000000E-03 0.  1.
        -12    1    4    4    0    0  0.25636016931E+01 -0.15943474565E+02  0.93233829385E+01  0.18646498445E+02  0.00000000000E+00 0.  1.
</event>
<event>
 8    1  0.1253703E-006  0.9118800E+02  0.7816164E-02  0.1184000E+00
        -11   -1    0    0    0    0  0.00000000000E+00  0.00000000000E+00  0.45593999997E+02  0.45594000000E+02  0.51100000000E-03 0.  1.
         11   -1    0    0    0    0 -0.00000000000E+00 -0.00000000000E+00 -0.45593999997E+02  0.45594000000E+02  0.51100000000E-03 0. -1.
         23    2    1    2    0    0  0.71054273576E-14  0.17763568394E-14 -0.88817841970E-15  0.91188000000E+02  0.91188000000E+02 0.  0.
    9900012    2    3    3    0    0 -0.33923476947E+02 -0.13260982322E+02 -0.53965767524E+01  0.54367095869E+02  0.40000026653E+02 0.  0.
         12    1    3    3    0    0  0.33923476947E+02  0.13260982322E+02  0.53965767524E+01  0.36820904131E+02  0.00000000000E+00 0. -1.
         11    1    4    4    0    0 -0.18341538931E+02  0.10080635496E+00 -0.20570212906E+02  0.27560041211E+02  0.51100000000E-03 0. -1.
        -11    1    4    4    0    0  0.88018590942E+00 -0.11671796479E+00  0.11280980111E+01  0.14356029055E+01  0.51100000000E-03 0.  1.
         12    1    4    4    0    0 -0.16462123926E+02 -0.13245070713E+02  0.14045538143E+02  0.25371451753E+02  0.00000000000E+00 0. -1.
</event>
<event>
 8    1  0.1253703E-006  0.9118800E+02  0.7816164E-02  0.1184000E+00
        -11   -1    0    0    0    0  0.00000000000E+00  0.00000000000E+00  0.45593999997E+02  0.45594000000E+02  0.51100000000E-03 0. -1.
         11   -1    0    0    0    0 -0.00000000000E+00 -0.00000000000E+00 -0.45593999997E+02  0.45594000000E+02  0.51100000000E-03 0.  1.
         23    2    1    2    0    0  0.35527136788E-14  0.00000000000E+00 -0.35527136788E-14  0.91188000000E+02  0.91188000000E+02 0.  0.
    9900012    2    3    3    0    0  0.23661307635E+02 -0.24133324106E+02 -0.14611901754E+02  0.54367048297E+02  0.39999918203E+02 0.  0.
         12    1    3    3    0    0 -0.23661307635E+02  0.24133324106E+02  0.14611901754E+02  0.36820951703E+02  0.00000000000E+00 0. -1.
         11    1    4    4    0    0  0.49508737292E+01 -0.93031537894E+01  0.42802574921E+01  0.11374551665E+02  0.51100000000E-03 0. -1.
        -11    1    4    4    0    0 -0.40104897519E+01  0.62757840020E+01 -0.52555242102E+01  0.91153731616E+01  0.51100000000E-03 0.  1.
        -12    1    4    4    0    0  0.22720923658E+02 -0.21105954318E+02 -0.13636635036E+02  0.33877123471E+02  0.00000000000E+00 0.  1.
</event>
<event>
 8    1  0.1253703E-006  0.9118800E+02  0.7816164E-02  0.1184000E+00
        -11   -1    0    0    0    0  0.00000000000E+00  0.00000000000E+00  0.45593999997E+02  0.45594000000E+02  0.51100000000E-03 0. -1.
         11   -1    0    0    0    0 -0.00000000000E+00 -0.00000000000E+00 -0.45593999997E+02  0.45594000000E+02  0.51100000000E-03 0.  1.
         23    2    1    2    0    0  0.00000000000E+00  0.71054273576E-14  0.00000000000E+00  0.91188000000E+02  0.91188000000E+02 0.  0.
    9900012    2    3    3    0    0 -0.11343421712E+02  0.32022152821E+02  0.14201650277E+02  0.54367104329E+02  0.40000045939E+02 0.  0.
         12    1    3    3    0    0  0.11343421712E+02 -0.32022152821E+02 -0.14201650277E+02  0.36820895671E+02  0.00000000000E+00 0. -1.
         11    1    4    4    0    0  0.35877771650E+01  0.30269318777E+01  0.10321348452E+02  0.11338637295E+02  0.51100000000E-03 0.  1.
        -11    1    4    4    0    0  0.58741198293E+00  0.17011336381E+02  0.12986564798E+02  0.21409845488E+02  0.51100000000E-03 0. -1.
         12    1    4    4    0    0 -0.15518610860E+02  0.11983884562E+02 -0.91062629727E+01  0.21618621546E+02  0.00000000000E+00 0. -1.
</event>
<event>
 8    1  0.1253703E-006  0.9118800E+02  0.7816164E-02  0.1184000E+00
        -11   -1    0    0    0    0  0.00000000000E+00  0.00000000000E+00  0.45593999997E+02  0.45594000000E+02  0.51100000000E-03 0. -1.
         11   -1    0    0    0    0 -0.00000000000E+00 -0.00000000000E+00 -0.45593999997E+02  0.45594000000E+02  0.51100000000E-03 0.  1.
         23    2    1    2    0    0 -0.17763568394E-14 -0.71054273576E-14 -0.71054273576E-14  0.91188000000E+02  0.91188000000E+02 0.  0.
    9900012    2    3    3    0    0  0.92841764973E+01  0.19881489990E+02  0.29568792490E+02  0.54367040387E+02  0.39999900171E+02 0.  0.
        -12    1    3    3    0    0 -0.92841764973E+01 -0.19881489990E+02 -0.29568792490E+02  0.36820959613E+02  0.00000000000E+00 0.  1.
         11    1    4    4    0    0  0.11563740539E+02  0.17549226755E+02  0.19219816568E+02  0.28479761308E+02  0.51100000000E-03 0. -1.
        -11    1    4    4    0    0  0.35588938487E+01 -0.55870198249E+01  0.13923723350E+02  0.15419163017E+02  0.51100000000E-03 0.  1.
        -12    1    4    4    0    0 -0.58384578905E+01  0.79192830604E+01 -0.35747474282E+01  0.10468116063E+02  0.00000000000E+00 0.  1.
</event>
<event>
 8    1  0.1253703E-006  0.9118800E+02  0.7816164E-02  0.1184000E+00
        -11   -1    0    0    0    0  0.00000000000E+00  0.00000000000E+00  0.45593999997E+02  0.45594000000E+02  0.51100000000E-03 0.  1.
         11   -1    0    0    0    0 -0.00000000000E+00 -0.00000000000E+00 -0.45593999997E+02  0.45594000000E+02  0.51100000000E-03 0. -1.
         23    2    1    2    0    0  0.00000000000E+00 -0.35527136788E-14 -0.44408920985E-15  0.91188000000E+02  0.91188000000E+02 0.  0.
    9900012    2    3    3    0    0  0.25707821214E+02  0.26262408841E+02  0.22744487931E+01  0.54367091442E+02  0.40000016560E+02 0.  0.
         12    1    3    3    0    0 -0.25707821214E+02 -0.26262408841E+02 -0.22744487931E+01  0.36820908558E+02  0.00000000000E+00 0. -1.
         11    1    4    4    0    0 -0.56701701916E+01  0.96628974258E+01 -0.32876542227E+01  0.11676090408E+02  0.51100000000E-03 0. -1.
        -11    1    4    4    0    0  0.27924289175E+02  0.21391539132E+02  0.93678037412E+00  0.35188654849E+02  0.51100000000E-03 0.  1.
         12    1    4    4    0    0  0.34537022314E+01 -0.47920277168E+01  0.46253226417E+01  0.75023461852E+01  0.00000000000E+00 0. -1.
</event>
<event>
 8    1  0.1253703E-006  0.9118800E+02  0.7816164E-02  0.1184000E+00
        -11   -1    0    0    0    0  0.00000000000E+00  0.00000000000E+00  0.45593999997E+02  0.45594000000E+02  0.51100000000E-03 0. -1.
         11   -1    0    0    0    0 -0.00000000000E+00 -0.00000000000E+00 -0.45593999997E+02  0.45594000000E+02  0.51100000000E-03 0.  1.
         23    2    1    2    0    0 -0.35527136788E-14  0.00000000000E+00  0.35527136788E-14  0.91188000000E+02  0.91188000000E+02 0.  0.
    9900012    2    3    3    0    0 -0.19739399313E+02  0.14065785331E+02 -0.27718048775E+02  0.54367076191E+02  0.39999981793E+02 0.  0.
         12    1    3    3    0    0  0.19739399313E+02 -0.14065785331E+02  0.27718048775E+02  0.36820923809E+02  0.00000000000E+00 0. -1.
         11    1    4    4    0    0 -0.42348788938E+01 -0.55090009014E+00  0.79095981290E+01  0.89888504815E+01  0.51100000000E-03 0. -1.
        -11    1    4    4    0    0  0.32150290409E+01  0.61279905288E+01 -0.51886278686E+01  0.86493085894E+01  0.51100000000E-03 0.  1.
        -12    1    4    4    0    0 -0.18719549461E+02  0.84886948928E+01 -0.30439019035E+02  0.36728917120E+02  0.00000000000E+00 0.  1.
</event>
<event>
 8    1  0.1253703E-006  0.9118800E+02  0.7816164E-02  0.1184000E+00
        -11   -1    0    0    0    0  0.00000000000E+00  0.00000000000E+00  0.45593999997E+02  0.45594000000E+02  0.51100000000E-03 0. -1.
         11   -1    0    0    0    0 -0.00000000000E+00 -0.00000000000E+00 -0.45593999997E+02  0.45594000000E+02  0.51100000000E-03 0.  1.
         23    2    1    2    0    0  0.00000000000E+00  0.35527136788E-14  0.00000000000E+00  0.91188000000E+02  0.91188000000E+02 0.  0.
    9900012    2    3    3    0    0 -0.13436359292E+02  0.21239604148E+02 -0.26909548755E+02  0.54367077285E+02  0.39999984287E+02 0.  0.
         12    1    3    3    0    0  0.13436359292E+02 -0.21239604148E+02  0.26909548755E+02  0.36820922715E+02  0.00000000000E+00 0. -1.
         11    1    4    4    0    0 -0.75126021147E+01 -0.58086860455E+01 -0.20877954402E+01  0.97231123706E+01  0.51100000000E-03 0. -1.
        -11    1    4    4    0    0 -0.12620322310E+02  0.21837729152E+02 -0.25826925317E+02  0.36099709435E+02  0.51100000000E-03 0.  1.
         12    1    4    4    0    0  0.66965651328E+01  0.52105610413E+01  0.10051720016E+01  0.85442554793E+01  0.00000000000E+00 0. -1.
</event>
<event>
 8    1  0.1253703E-006  0.9118800E+02  0.7816164E-02  0.1184000E+00
        -11   -1    0    0    0    0  0.00000000000E+00  0.00000000000E+00  0.45593999997E+02  0.45594000000E+02  0.51100000000E-03 0.  1.
         11   -1    0    0    0    0 -0.00000000000E+00 -0.00000000000E+00 -0.45593999997E+02  0.45594000000E+02  0.51100000000E-03 0. -1.
         23    2    1    2    0    0  0.88817841970E-15  0.00000000000E+00  0.00000000000E+00  0.91188000000E+02  0.91188000000E+02 0.  0.
    9900012    2    3    3    0    0 -0.56925263243E+01  0.21635325901E+02 -0.29245495722E+02  0.54366929906E+02  0.39999648306E+02 0.  0.
        -12    1    3    3    0    0  0.56925263243E+01 -0.21635325901E+02  0.29245495722E+02  0.36821070094E+02  0.00000000000E+00 0.  1.
         11    1    4    4    0    0 -0.10808359398E+02 -0.30422824586E+01 -0.55262409519E+01  0.12514609653E+02  0.51100000000E-03 0. -1.
        -11    1    4    4    0    0 -0.76367378487E+01  0.62787799631E+01 -0.96726063216E+00  0.99337020384E+01  0.51100000000E-03 0.  1.
         12    1    4    4    0    0  0.12752570923E+02  0.18398828396E+02 -0.22751994138E+02  0.31918618215E+02  0.00000000000E+00 0. -1.
</event>
<event>
 8    1  0.1253703E-006  0.9118800E+02  0.7816164E-02  0.1184000E+00
        -11   -1    0    0    0    0  0.00000000000E+00  0.00000000000E+00  0.45593999997E+02  0.45594000000E+02  0.51100000000E-03 0. -1.
         11   -1    0    0    0    0 -0.00000000000E+00 -0.00000000000E+00 -0.45593999997E+02  0.45594000000E+02  0.51100000000E-03 0.  1.
         23    2    1    2    0    0  0.17763568394E-14  0.88817841970E-15  0.00000000000E+00  0.91188000000E+02  0.91188000000E+02 0.  0.
    9900012    2    3    3    0    0  0.10787492541E+02  0.54160205569E+01 -0.34786181986E+02  0.54367058524E+02  0.39999941518E+02 0.  0.
         12    1    3    3    0    0 -0.10787492541E+02 -0.54160205569E+01  0.34786181986E+02  0.36820941476E+02  0.00000000000E+00 0. -1.
         11    1    4    4    0    0  0.13262413048E+02 -0.10907077434E+02 -0.17141715535E+02  0.24263024332E+02  0.51100000000E-03 0. -1.
        -11    1    4    4    0    0  0.36457924713E+01  0.31627708288E+01 -0.14460716757E+02  0.15244909033E+02  0.51100000000E-03 0.  1.
         12    1    4    4    0    0 -0.61207129779E+01  0.13160327162E+02 -0.31837496944E+01  0.14859125159E+02  0.00000000000E+00 0. -1.
</event>
<event>
 8    1  0.1253703E-006  0.9118800E+02  0.7816164E-02  0.1184000E+00
        -11   -1    0    0    0    0  0.00000000000E+00  0.00000000000E+00  0.45593999997E+02  0.45594000000E+02  0.51100000000E-03 0. -1.
         11   -1    0    0    0    0 -0.00000000000E+00 -0.00000000000E+00 -0.45593999997E+02  0.45594000000E+02  0.51100000000E-03 0.  1.
         23    2    1    2    0    0  0.17763568394E-14 -0.35527136788E-14  0.00000000000E+00  0.91188000000E+02  0.91188000000E+02 0.  0.
    9900012    2    3    3    0    0 -0.11607575644E+02 -0.28023197440E+02 -0.20874435001E+02  0.54367116745E+02  0.40000074242E+02 0.  0.
         12    1    3    3    0    0  0.11607575644E+02  0.28023197440E+02  0.20874435001E+02  0.36820883255E+02  0.00000000000E+00 0. -1.
         11    1    4    4    0    0  0.44757708849E+01 -0.10214272990E+02  0.21030697629E+01  0.11348427222E+02  0.51100000000E-03 0. -1.
        -11    1    4    4    0    0 -0.22636050190E+02 -0.19163969954E+02 -0.19264303806E+02  0.35366112509E+02  0.51100000000E-03 0.  1.
         12    1    4    4    0    0  0.65527036611E+01  0.13550455043E+01 -0.37132009583E+01  0.76525770134E+01  0.00000000000E+00 0. -1.
</event>
<event>
 8    1  0.1253703E-006  0.9118800E+02  0.7816164E-02  0.1184000E+00
        -11   -1    0    0    0    0  0.00000000000E+00  0.00000000000E+00  0.45593999997E+02  0.45594000000E+02  0.51100000000E-03 0.  1.
         11   -1    0    0    0    0 -0.00000000000E+00 -0.00000000000E+00 -0.45593999997E+02  0.45594000000E+02  0.51100000000E-03 0. -1.
         23    2    1    2    0    0  0.88817841970E-15  0.00000000000E+00  0.71054273576E-14  0.91188000000E+02  0.91188000000E+02 0.  0.
    9900012    2    3    3    0    0  0.73133434808E+01 -0.15324263980E+02  0.32672032464E+02  0.54367085227E+02  0.40000002393E+02 0.  0.
         12    1    3    3    0    0 -0.73133434808E+01  0.15324263980E+02 -0.32672032464E+02  0.36820914773E+02  0.00000000000E+00 0. -1.
         11    1    4    4    0    0  0.14638308523E+02  0.61011634938E+01  0.42789113724E+01  0.16425996322E+02  0.51100000000E-03 0. -1.
        -11    1    4    4    0    0  0.17019581630E+01  0.16562695504E-01  0.89914955816E+00  0.19249431421E+01  0.51100000000E-03 0.  1.
         12    1    4    4    0    0 -0.90269232048E+01 -0.21441990169E+02  0.27493971533E+02  0.36016145763E+02  0.00000000000E+00 0. -1.
</event>
<event>
 8    1  0.1253703E-006  0.9118800E+02  0.7816164E-02  0.1184000E+00
        -11   -1    0    0    0    0  0.00000000000E+00  0.00000000000E+00  0.45593999997E+02  0.45594000000E+02  0.51100000000E-03 0. -1.
         11   -1    0    0    0    0 -0.00000000000E+00 -0.00000000000E+00 -0.45593999997E+02  0.45594000000E+02  0.51100000000E-03 0.  1.
         23    2    1    2    0    0  0.00000000000E+00  0.00000000000E+00 -0.55511151231E-16  0.91188000000E+02  0.91188000000E+02 0.  0.
    9900012    2    3    3    0    0  0.35918066096E+02 -0.80933661949E+01  0.41297702691E+00  0.54367073906E+02  0.39999976582E+02 0.  0.
         12    1    3    3    0    0 -0.35918066096E+02  0.80933661949E+01 -0.41297702691E+00  0.36820926094E+02  0.00000000000E+00 0. -1.
         11    1    4    4    0    0 -0.45326018220E+00 -0.99708701890E+01  0.10201191783E+02  0.14271930884E+02  0.51100000000E-03 0. -1.
        -11    1    4    4    0    0  0.13461307029E+02 -0.53641751940E+01 -0.10518319062E+01  0.14528851058E+02  0.51100000000E-03 0.  1.
        -12    1    4    4    0    0  0.22910019249E+02  0.72416791882E+01 -0.87363828497E+01  0.25566291963E+02  0.00000000000E+00 0.  1.
</event>
<event>
 8    1  0.1253703E-006  0.9118800E+02  0.7816164E-02  0.1184000E+00
        -11   -1    0    0    0    0  0.00000000000E+00  0.00000000000E+00  0.45593999997E+02  0.45594000000E+02  0.51100000000E-03 0. -1.
         11   -1    0    0    0    0 -0.00000000000E+00 -0.00000000000E+00 -0.45593999997E+02  0.45594000000E+02  0.51100000000E-03 0.  1.
         23    2    1    2    0    0  0.00000000000E+00  0.35527136788E-14  0.35527136788E-14  0.91188000000E+02  0.91188000000E+02 0.  0.
    9900012    2    3    3    0    0  0.18566161335E+02 -0.18796143832E+02 -0.25647264250E+02  0.54367088372E+02  0.40000009561E+02 0.  0.
         12    1    3    3    0    0 -0.18566161335E+02  0.18796143832E+02  0.25647264250E+02  0.36820911628E+02  0.00000000000E+00 0. -1.
         11    1    4    4    0    0  0.29818786596E+02 -0.12996159147E+02 -0.13782883278E+02  0.35327440586E+02  0.51100000000E-03 0.  1.
        -11    1    4    4    0    0 -0.33183752102E+01 -0.60863946600E+01 -0.60167107510E+01  0.91791406196E+01  0.51100000000E-03 0. -1.
        -12    1    4    4    0    0 -0.79342500516E+01  0.28640997469E+00 -0.58476702210E+01  0.98605071659E+01  0.00000000000E+00 0.  1.
</event>
<event>
 8    1  0.1253703E-006  0.9118800E+02  0.7816164E-02  0.1184000E+00
        -11   -1    0    0    0    0  0.00000000000E+00  0.00000000000E+00  0.45593999997E+02  0.45594000000E+02  0.51100000000E-03 0. -1.
         11   -1    0    0    0    0 -0.00000000000E+00 -0.00000000000E+00 -0.45593999997E+02  0.45594000000E+02  0.51100000000E-03 0.  1.
         23    2    1    2    0    0 -0.88817841970E-15  0.35527136788E-14 -0.35527136788E-14  0.91188000000E+02  0.91188000000E+02 0.  0.
    9900012    2    3    3    0    0 -0.40253479851E+01  0.31141430502E+02  0.19229856720E+02  0.54367088692E+02  0.40000010290E+02 0.  0.
        -12    1    3    3    0    0  0.40253479851E+01 -0.31141430502E+02 -0.19229856720E+02  0.36820911308E+02  0.00000000000E+00 0.  1.
         11    1    4    4    0    0 -0.93799383735E+01  0.42575798507E+01 -0.91225028565E+01  0.13759734325E+02  0.51100000000E-03 0. -1.
        -11    1    4    4    0    0  0.60070046810E+01  0.73426925734E+01  0.83828359751E+01  0.12659825382E+02  0.51100000000E-03 0.  1.
         12    1    4    4    0    0 -0.65241429265E+00  0.19541158078E+02  0.19969523602E+02  0.27947528984E+02  0.00000000000E+00 0. -1.
</event>
<event>
 8    1  0.1253703E-006  0.9118800E+02  0.7816164E-02  0.1184000E+00
        -11   -1    0    0    0    0  0.00000000000E+00  0.00000000000E+00  0.45593999997E+02  0.45594000000E+02  0.51100000000E-03 0. -1.
         11   -1    0    0    0    0 -0.00000000000E+00 -0.00000000000E+00 -0.45593999997E+02  0.45594000000E+02  0.51100000000E-03 0.  1.
         23    2    1    2    0    0 -0.17763568394E-14  0.44408920985E-15  0.00000000000E+00  0.91188000000E+02  0.91188000000E+02 0.  0.
    9900012    2    3    3    0    0  0.15152153725E+02  0.89555236932E+00  0.33546820669E+02  0.54367096242E+02  0.40000027504E+02 0.  0.
        -12    1    3    3    0    0 -0.15152153725E+02 -0.89555236932E+00 -0.33546820669E+02  0.36820903758E+02  0.00000000000E+00 0.  1.
         11    1    4    4    0    0  0.14468655812E+01  0.26849628197E+00  0.20837911912E+02  0.20889808122E+02  0.51100000000E-03 0. -1.
        -11    1    4    4    0    0 -0.71672525001E+01 -0.55922542976E+01  0.25278248664E+01  0.94357148826E+01  0.51100000000E-03 0.  1.
         12    1    4    4    0    0  0.20872540643E+02  0.62193103849E+01  0.10181083891E+02  0.24041573238E+02  0.00000000000E+00 0. -1.
</event>
<event>
 8    1  0.1253703E-006  0.9118800E+02  0.7816164E-02  0.1184000E+00
        -11   -1    0    0    0    0  0.00000000000E+00  0.00000000000E+00  0.45593999997E+02  0.45594000000E+02  0.51100000000E-03 0. -1.
         11   -1    0    0    0    0 -0.00000000000E+00 -0.00000000000E+00 -0.45593999997E+02  0.45594000000E+02  0.51100000000E-03 0.  1.
         23    2    1    2    0    0  0.35527136788E-14  0.00000000000E+00  0.17763568394E-14  0.91188000000E+02  0.91188000000E+02 0.  0.
    9900012    2    3    3    0    0  0.28875893995E+02 -0.21026930061E+02  0.89348169251E+01  0.54367082096E+02  0.39999995254E+02 0.  0.
        -12    1    3    3    0    0 -0.28875893995E+02  0.21026930061E+02 -0.89348169251E+01  0.36820917904E+02  0.00000000000E+00 0.  1.
         11    1    4    4    0    0  0.12257371498E+02  0.51552021564E+01  0.79233400534E+01  0.15478972290E+02  0.51100000000E-03 0. -1.
        -11    1    4    4    0    0  0.89501691394E+01 -0.14056338457E+01 -0.73192145783E+01  0.11646984006E+02  0.51100000000E-03 0.  1.
         12    1    4    4    0    0  0.76683533581E+01 -0.24776498372E+02  0.83306914500E+01  0.27241125800E+02  0.00000000000E+00 0. -1.
</event>
<event>
 8    1  0.1253703E-006  0.9118800E+02  0.7816164E-02  0.1184000E+00
        -11   -1    0    0    0    0  0.00000000000E+00  0.00000000000E+00  0.45593999997E+02  0.45594000000E+02  0.51100000000E-03 0. -1.
         11   -1    0    0    0    0 -0.00000000000E+00 -0.00000000000E+00 -0.45593999997E+02  0.45594000000E+02  0.51100000000E-03 0.  1.
         23    2    1    2    0    0  0.00000000000E+00  0.00000000000E+00  0.26645352591E-14  0.91188000000E+02  0.91188000000E+02 0.  0.
    9900012    2    3    3    0    0  0.15179986230E+02 -0.33477183210E+02 -0.21508217218E+01  0.54367084589E+02  0.40000000938E+02 0.  0.
        -12    1    3    3    0    0 -0.15179986230E+02  0.33477183210E+02  0.21508217218E+01  0.36820915411E+02  0.00000000000E+00 0.  1.
         11    1    4    4    0    0  0.74087134907E+01 -0.27141271333E+02  0.11802242898E+02  0.30509516267E+02  0.51100000000E-03 0. -1.
        -11    1    4    4    0    0 -0.21831467158E+01 -0.77711512282E+01 -0.10456647062E+02  0.13209783838E+02  0.51100000000E-03 0.  1.
         12    1    4    4    0    0  0.99544194554E+01  0.14352393519E+01 -0.34964175575E+01  0.10647784484E+02  0.00000000000E+00 0. -1.
</event>
<event>
 8    1  0.1253703E-006  0.9118800E+02  0.7816164E-02  0.1184000E+00
        -11   -1    0    0    0    0  0.00000000000E+00  0.00000000000E+00  0.45593999997E+02  0.45594000000E+02  0.51100000000E-03 0. -1.
         11   -1    0    0    0    0 -0.00000000000E+00 -0.00000000000E+00 -0.45593999997E+02  0.45594000000E+02  0.51100000000E-03 0.  1.
         23    2    1    2    0    0  0.00000000000E+00  0.00000000000E+00  0.00000000000E+00  0.91188000000E+02  0.91188000000E+02 0.  0.
    9900012    2    3    3    0    0  0.11219083965E+02  0.13129879429E+02  0.32519408439E+02  0.54367170242E+02  0.40000196200E+02 0.  0.
        -12    1    3    3    0    0 -0.11219083965E+02 -0.13129879429E+02 -0.32519408439E+02  0.36820829758E+02  0.00000000000E+00 0.  1.
         11    1    4    4    0    0  0.12065643410E+02 -0.81160829306E+01  0.53786769505E+01  0.15504216169E+02  0.51100000000E-03 0. -1.
        -11    1    4    4    0    0 -0.47547277287E+01  0.29080698493E+01 -0.35273977214E+00  0.55846872455E+01  0.51100000000E-03 0.  1.
         12    1    4    4    0    0  0.39081682844E+01  0.18337892511E+02  0.27493471261E+02  0.33278266827E+02  0.00000000000E+00 0. -1.
</event>
<event>
 8    1  0.1253703E-006  0.9118800E+02  0.7816164E-02  0.1184000E+00
        -11   -1    0    0    0    0  0.00000000000E+00  0.00000000000E+00  0.45593999997E+02  0.45594000000E+02  0.51100000000E-03 0. -1.
         11   -1    0    0    0    0 -0.00000000000E+00 -0.00000000000E+00 -0.45593999997E+02  0.45594000000E+02  0.51100000000E-03 0.  1.
         23    2    1    2    0    0 -0.17763568394E-14  0.35527136788E-14 -0.35527136788E-14  0.91188000000E+02  0.91188000000E+02 0.  0.
    9900012    2    3    3    0    0  0.86366609018E+01 -0.24623257400E+02  0.25978521005E+02  0.54367078364E+02  0.39999986746E+02 0.  0.
        -12    1    3    3    0    0 -0.86366609018E+01  0.24623257400E+02 -0.25978521005E+02  0.36820921636E+02  0.00000000000E+00 0.  1.
         11    1    4    4    0    0  0.42258916247E+00 -0.18501271667E+02  0.63591332697E+01  0.19568193864E+02  0.51100000000E-03 0. -1.
        -11    1    4    4    0    0  0.82217466477E+01 -0.12262921644E+02  0.56002777160E+00  0.14774640319E+02  0.51100000000E-03 0.  1.
        -12    1    4    4    0    0 -0.76749083540E-02  0.61409359117E+01  0.19059359964E+02  0.20024244181E+02  0.00000000000E+00 0.  1.
</event>
<event>
 8    1  0.1253703E-006  0.9118800E+02  0.7816164E-02  0.1184000E+00
        -11   -1    0    0    0    0  0.00000000000E+00  0.00000000000E+00  0.45593999997E+02  0.45594000000E+02  0.51100000000E-03 0.  1.
         11   -1    0    0    0    0 -0.00000000000E+00 -0.00000000000E+00 -0.45593999997E+02  0.45594000000E+02  0.51100000000E-03 0. -1.
         23    2    1    2    0    0 -0.35527136788E-14  0.71054273576E-14 -0.44408920985E-15  0.91188000000E+02  0.91188000000E+02 0.  0.
    9900012    2    3    3    0    0  0.16156811361E+02 -0.32980218519E+02 -0.26539912759E+01  0.54367067956E+02  0.39999963018E+02 0.  0.
        -12    1    3    3    0    0 -0.16156811361E+02  0.32980218519E+02  0.26539912759E+01  0.36820932044E+02  0.00000000000E+00 0.  1.
         11    1    4    4    0    0 -0.13918721774E+00 -0.17057220516E+02 -0.24256914099E+01  0.17229397084E+02  0.51100000000E-03 0. -1.
        -11    1    4    4    0    0  0.30250919129E+00 -0.18135629850E+02 -0.72469529640E+01  0.19532304252E+02  0.51100000000E-03 0.  1.
        -12    1    4    4    0    0  0.15993489388E+02  0.22126318469E+01  0.70186530980E+01  0.17605366619E+02  0.00000000000E+00 0.  1.
</event>
<event>
 8    1  0.1253703E-006  0.9118800E+02  0.7816164E-02  0.1184000E+00
        -11   -1    0    0    0    0  0.00000000000E+00  0.00000000000E+00  0.45593999997E+02  0.45594000000E+02  0.51100000000E-03 0. -1.
         11   -1    0    0    0    0 -0.00000000000E+00 -0.00000000000E+00 -0.45593999997E+02  0.45594000000E+02  0.51100000000E-03 0.  1.
         23    2    1    2    0    0  0.00000000000E+00  0.00000000000E+00  0.00000000000E+00  0.91188000000E+02  0.91188000000E+02 0.  0.
    9900012    2    3    3    0    0  0.10562822393E+02 -0.24334004395E+02 -0.25535531484E+02  0.54367077212E+02  0.39999984121E+02 0.  0.
         12    1    3    3    0    0 -0.10562822393E+02  0.24334004395E+02  0.25535531484E+02  0.36820922788E+02  0.00000000000E+00 0. -1.
         11    1    4    4    0    0  0.13495894267E+02  0.38472815984E+01 -0.18550809717E+02  0.23260981905E+02  0.51100000000E-03 0. -1.
        -11    1    4    4    0    0 -0.24336561299E+01 -0.25071049289E+02 -0.20769752645E+01  0.25274374792E+02  0.51100000000E-03 0.  1.
         12    1    4    4    0    0 -0.49941574401E+00 -0.31102367042E+01 -0.49077465023E+01  0.58317205157E+01  0.00000000000E+00 0. -1.
</event>
<event>
 8    1  0.1253703E-006  0.9118800E+02  0.7816164E-02  0.1184000E+00
        -11   -1    0    0    0    0  0.00000000000E+00  0.00000000000E+00  0.45593999997E+02  0.45594000000E+02  0.51100000000E-03 0.  1.
         11   -1    0    0    0    0 -0.00000000000E+00 -0.00000000000E+00 -0.45593999997E+02  0.45594000000E+02  0.51100000000E-03 0. -1.
         23    2    1    2    0    0 -0.71054273576E-14 -0.88817841970E-15  0.17763568394E-14  0.91188000000E+02  0.91188000000E+02 0.  0.
    9900012    2    3    3    0    0 -0.34585622711E+02 -0.53282085731E+01  0.11455376033E+02  0.54367071916E+02  0.39999972047E+02 0.  0.
         12    1    3    3    0    0  0.34585622711E+02  0.53282085731E+01 -0.11455376033E+02  0.36820928084E+02  0.00000000000E+00 0. -1.
         11    1    4    4    0    0  0.42041257124E+01  0.41814401200E+01  0.43595507457E+00  0.59455169305E+01  0.51100000000E-03 0. -1.
        -11    1    4    4    0    0 -0.29775130233E+01  0.36386557526E+00 -0.66424131481E+01  0.72883217994E+01  0.51100000000E-03 0.  1.
        -12    1    4    4    0    0 -0.35812235400E+02 -0.98735142684E+01  0.17661834107E+02  0.41133233186E+02  0.00000000000E+00 0.  1.
</event>
<event>
 8    1  0.1253703E-006  0.9118800E+02  0.7816164E-02  0.1184000E+00
        -11   -1    0    0    0    0  0.00000000000E+00  0.00000000000E+00  0.45593999997E+02  0.45594000000E+02  0.51100000000E-03 0.  1.
         11   -1    0    0    0    0 -0.00000000000E+00 -0.00000000000E+00 -0.45593999997E+02  0.45594000000E+02  0.51100000000E-03 0. -1.
         23    2    1    2    0    0  0.00000000000E+00 -0.15543122345E-14  0.00000000000E+00  0.91188000000E+02  0.91188000000E+02 0.  0.
    9900012    2    3    3    0    0  0.29718764944E+02 -0.11894781597E+01 -0.21706367633E+02  0.54366997245E+02  0.39999801818E+02 0.  0.
        -12    1    3    3    0    0 -0.29718764944E+02  0.11894781597E+01  0.21706367633E+02  0.36821002755E+02  0.00000000000E+00 0.  1.
         11    1    4    4    0    0  0.20794179199E+02  0.69801730240E+01 -0.16527795114E+02  0.27464317133E+02  0.51100000000E-03 0. -1.
        -11    1    4    4    0    0 -0.28363282857E+01  0.64652372971E+01  0.10147697555E+01  0.71325878452E+01  0.51100000000E-03 0.  1.
         12    1    4    4    0    0  0.11760914031E+02 -0.14634888481E+02 -0.61933422745E+01  0.19770092266E+02  0.00000000000E+00 0. -1.
</event>
<event>
 8    1  0.1253703E-006  0.9118800E+02  0.7816164E-02  0.1184000E+00
        -11   -1    0    0    0    0  0.00000000000E+00  0.00000000000E+00  0.45593999997E+02  0.45594000000E+02  0.51100000000E-03 0. -1.
         11   -1    0    0    0    0 -0.00000000000E+00 -0.00000000000E+00 -0.45593999997E+02  0.45594000000E+02  0.51100000000E-03 0.  1.
         23    2    1    2    0    0 -0.35527136788E-14 -0.35527136788E-14  0.35527136788E-14  0.91188000000E+02  0.91188000000E+02 0.  0.
    9900012    2    3    3    0    0  0.10906087630E+02 -0.24945318816E+02 -0.24790476113E+02  0.54367090395E+02  0.40000014174E+02 0.  0.
         12    1    3    3    0    0 -0.10906087630E+02  0.24945318816E+02  0.24790476113E+02  0.36820909605E+02  0.00000000000E+00 0. -1.
         11    1    4    4    0    0  0.94989363507E+00  0.38197904903E-01  0.62847655878E+01  0.63562595725E+01  0.51100000000E-03 0. -1.
        -11    1    4    4    0    0  0.15955149682E+02 -0.66817019603E+01 -0.13588607689E+02  0.21996867996E+02  0.51100000000E-03 0.  1.
         12    1    4    4    0    0 -0.59989556873E+01 -0.18301814760E+02 -0.17486634012E+02  0.26013962826E+02  0.00000000000E+00 0. -1.
</event>
<event>
 8    1  0.1253703E-006  0.9118800E+02  0.7816164E-02  0.1184000E+00
        -11   -1    0    0    0    0  0.00000000000E+00  0.00000000000E+00  0.45593999997E+02  0.45594000000E+02  0.51100000000E-03 0.  1.
         11   -1    0    0    0    0 -0.00000000000E+00 -0.00000000000E+00 -0.45593999997E+02  0.45594000000E+02  0.51100000000E-03 0. -1.
         23    2    1    2    0    0 -0.35527136788E-14  0.71054273576E-14  0.00000000000E+00  0.91188000000E+02  0.91188000000E+02 0.  0.
    9900012    2    3    3    0    0 -0.12220179865E+02 -0.32783336112E+02  0.11476046642E+02  0.54367087883E+02  0.40000008447E+02 0.  0.
         12    1    3    3    0    0  0.12220179865E+02  0.32783336112E+02 -0.11476046642E+02  0.36820912117E+02  0.00000000000E+00 0. -1.
         11    1    4    4    0    0 -0.78150114873E+00  0.17995635973E+01  0.10864162180E+01  0.22426488014E+01  0.51100000000E-03 0. -1.
        -11    1    4    4    0    0 -0.20747029280E+02 -0.16670541167E+02  0.16150743210E+02  0.31131859457E+02  0.51100000000E-03 0.  1.
        -12    1    4    4    0    0  0.93083505636E+01 -0.17912358543E+02 -0.57611127864E+01  0.20992579625E+02  0.00000000000E+00 0.  1.
</event>
<event>
 8    1  0.1253703E-006  0.9118800E+02  0.7816164E-02  0.1184000E+00
        -11   -1    0    0    0    0  0.00000000000E+00  0.00000000000E+00  0.45593999997E+02  0.45594000000E+02  0.51100000000E-03 0.  1.
         11   -1    0    0    0    0 -0.00000000000E+00 -0.00000000000E+00 -0.45593999997E+02  0.45594000000E+02  0.51100000000E-03 0. -1.
         23    2    1    2    0    0  0.00000000000E+00  0.00000000000E+00  0.14432899320E-14  0.91188000000E+02  0.91188000000E+02 0.  0.
    9900012    2    3    3    0    0  0.31358089303E+02  0.19277625140E+02  0.90598454691E+00  0.54367117287E+02  0.40000075479E+02 0.  0.
        -12    1    3    3    0    0 -0.31358089303E+02 -0.19277625140E+02 -0.90598454691E+00  0.36820882713E+02  0.00000000000E+00 0.  1.
         11    1    4    4    0    0  0.24324687696E+02  0.49898720005E+01  0.62207886597E+01  0.25598583279E+02  0.51100000000E-03 0. -1.
        -11    1    4    4    0    0 -0.48070479133E+01 -0.35987309743E+01 -0.41247844524E+01  0.72850821070E+01  0.51100000000E-03 0.  1.
        -12    1    4    4    0    0  0.11840449521E+02  0.17886484113E+02 -0.11900196604E+01  0.21483451901E+02  0.00000000000E+00 0.  1.
</event>
<event>
 8    1  0.1253703E-006  0.9118800E+02  0.7816164E-02  0.1184000E+00
        -11   -1    0    0    0    0  0.00000000000E+00  0.00000000000E+00  0.45593999997E+02  0.45594000000E+02  0.51100000000E-03 0. -1.
         11   -1    0    0    0    0 -0.00000000000E+00 -0.00000000000E+00 -0.45593999997E+02  0.45594000000E+02  0.51100000000E-03 0.  1.
         23    2    1    2    0    0  0.88817841970E-15 -0.35527136788E-14  0.00000000000E+00  0.91188000000E+02  0.91188000000E+02 0.  0.
    9900012    2    3    3    0    0  0.66069764825E+01  0.30063584740E+02 -0.20206615708E+02  0.54367101260E+02  0.40000038942E+02 0.  0.
         12    1    3    3    0    0 -0.66069764825E+01 -0.30063584740E+02  0.20206615708E+02  0.36820898740E+02  0.00000000000E+00 0. -1.
         11    1    4    4    0    0  0.86189428717E+01  0.20578680180E+02 -0.63458683376E+00  0.22319743612E+02  0.51100000000E-03 0. -1.
        -11    1    4    4    0    0  0.48967218704E+01  0.77419233120E+01  0.19593005320E+01  0.93677169300E+01  0.51100000000E-03 0.  1.
        -12    1    4    4    0    0 -0.69086882596E+01  0.17429812483E+01 -0.21531329406E+02  0.22679640718E+02  0.00000000000E+00 0.  1.
</event>
<event>
 8    1  0.1253703E-006  0.9118800E+02  0.7816164E-02  0.1184000E+00
        -11   -1    0    0    0    0  0.00000000000E+00  0.00000000000E+00  0.45593999997E+02  0.45594000000E+02  0.51100000000E-03 0.  1.
         11   -1    0    0    0    0 -0.00000000000E+00 -0.00000000000E+00 -0.45593999997E+02  0.45594000000E+02  0.51100000000E-03 0. -1.
         23    2    1    2    0    0  0.66613381478E-15  0.71054273576E-14  0.17763568394E-14  0.91188000000E+02  0.91188000000E+02 0.  0.
    9900012    2    3    3    0    0  0.56855708175E+00 -0.34847629464E+02 -0.11878498900E+02  0.54367091910E+02  0.40000017628E+02 0.  0.
         12    1    3    3    0    0 -0.56855708175E+00  0.34847629464E+02  0.11878498900E+02  0.36820908090E+02  0.00000000000E+00 0. -1.
         11    1    4    4    0    0  0.39764301702E+01 -0.14250013703E+02 -0.30240025919E+01  0.15100313883E+02  0.51100000000E-03 0. -1.
        -11    1    4    4    0    0 -0.15297136496E+02 -0.11947505045E+02  0.39055014324E+01  0.19798944504E+02  0.51100000000E-03 0.  1.
         12    1    4    4    0    0  0.11889263407E+02 -0.86501107167E+01 -0.12759997740E+02  0.19467833524E+02  0.00000000000E+00 0. -1.
</event>
<event>
 8    1  0.1253703E-006  0.9118800E+02  0.7816164E-02  0.1184000E+00
        -11   -1    0    0    0    0  0.00000000000E+00  0.00000000000E+00  0.45593999997E+02  0.45594000000E+02  0.51100000000E-03 0. -1.
         11   -1    0    0    0    0 -0.00000000000E+00 -0.00000000000E+00 -0.45593999997E+02  0.45594000000E+02  0.51100000000E-03 0.  1.
         23    2    1    2    0    0  0.00000000000E+00  0.00000000000E+00  0.00000000000E+00  0.91188000000E+02  0.91188000000E+02 0.  0.
    9900012    2    3    3    0    0 -0.31862661419E+02 -0.79988811107E+01 -0.16630360226E+02  0.54367079683E+02  0.39999989754E+02 0.  0.
        -12    1    3    3    0    0  0.31862661419E+02  0.79988811107E+01  0.16630360226E+02  0.36820920317E+02  0.00000000000E+00 0.  1.
         11    1    4    4    0    0 -0.10123121930E+02  0.11150844067E+01  0.10743881680E+01  0.10240865249E+02  0.51100000000E-03 0. -1.
        -11    1    4    4    0    0  0.51960113443E+01  0.26969844804E+01 -0.13110633565E+02  0.14358306722E+02  0.51100000000E-03 0.  1.
         12    1    4    4    0    0 -0.26935550833E+02 -0.11810949998E+02 -0.45941148292E+01  0.29767907712E+02  0.00000000000E+00 0. -1.
</event>
<event>
 8    1  0.1253703E-006  0.9118800E+02  0.7816164E-02  0.1184000E+00
        -11   -1    0    0    0    0  0.00000000000E+00  0.00000000000E+00  0.45593999997E+02  0.45594000000E+02  0.51100000000E-03 0.  1.
         11   -1    0    0    0    0 -0.00000000000E+00 -0.00000000000E+00 -0.45593999997E+02  0.45594000000E+02  0.51100000000E-03 0. -1.
         23    2    1    2    0    0 -0.35527136788E-14  0.00000000000E+00  0.88817841970E-15  0.91188000000E+02  0.91188000000E+02 0.  0.
    9900012    2    3    3    0    0  0.27623255180E+02  0.23066580969E+02  0.77890589354E+01  0.54367070850E+02  0.39999969617E+02 0.  0.
         12    1    3    3    0    0 -0.27623255180E+02 -0.23066580969E+02 -0.77890589354E+01  0.36820929150E+02  0.00000000000E+00 0. -1.
         11    1    4    4    0    0  0.43975337078E+01  0.35492686047E+01 -0.13939298544E+02  0.15041265057E+02  0.51100000000E-03 0. -1.
        -11    1    4    4    0    0  0.67975768264E+01 -0.54576987046E+00  0.38789686711E+01  0.78454645289E+01  0.51100000000E-03 0.  1.
         12    1    4    4    0    0  0.16428144646E+02  0.20063082235E+02  0.17849388809E+02  0.31480341264E+02  0.00000000000E+00 0. -1.
</event>
<event>
 8    1  0.1253703E-006  0.9118800E+02  0.7816164E-02  0.1184000E+00
        -11   -1    0    0    0    0  0.00000000000E+00  0.00000000000E+00  0.45593999997E+02  0.45594000000E+02  0.51100000000E-03 0.  1.
         11   -1    0    0    0    0 -0.00000000000E+00 -0.00000000000E+00 -0.45593999997E+02  0.45594000000E+02  0.51100000000E-03 0. -1.
         23    2    1    2    0    0  0.00000000000E+00  0.00000000000E+00  0.00000000000E+00  0.91188000000E+02  0.91188000000E+02 0.  0.
    9900012    2    3    3    0    0  0.80484403850E+01 -0.28923672717E+02  0.21317214718E+02  0.54367083670E+02  0.39999998842E+02 0.  0.
         12    1    3    3    0    0 -0.80484403850E+01  0.28923672717E+02 -0.21317214718E+02  0.36820916330E+02  0.00000000000E+00 0. -1.
         11    1    4    4    0    0 -0.11558512536E+01 -0.19485078031E+02  0.93237173430E+01  0.21631827555E+02  0.51100000000E-03 0. -1.
        -11    1    4    4    0    0 -0.93081990547E+00 -0.16485239795E+02  0.11965375899E+02  0.20391169105E+02  0.51100000000E-03 0.  1.
         12    1    4    4    0    0  0.10135111544E+02  0.70466451094E+01  0.28121476223E-01  0.12344087011E+02  0.00000000000E+00 0. -1.
</event>
<event>
 8    1  0.1253703E-006  0.9118800E+02  0.7816164E-02  0.1184000E+00
        -11   -1    0    0    0    0  0.00000000000E+00  0.00000000000E+00  0.45593999997E+02  0.45594000000E+02  0.51100000000E-03 0. -1.
         11   -1    0    0    0    0 -0.00000000000E+00 -0.00000000000E+00 -0.45593999997E+02  0.45594000000E+02  0.51100000000E-03 0.  1.
         23    2    1    2    0    0  0.00000000000E+00  0.35527136788E-14  0.00000000000E+00  0.91188000000E+02  0.91188000000E+02 0.  0.
    9900012    2    3    3    0    0 -0.15024319691E+02 -0.24058524634E+02 -0.23478408293E+02  0.54367103138E+02  0.40000043224E+02 0.  0.
         12    1    3    3    0    0  0.15024319691E+02  0.24058524634E+02  0.23478408293E+02  0.36820896862E+02  0.00000000000E+00 0. -1.
         11    1    4    4    0    0 -0.10538029244E+01 -0.11680616179E+02  0.15081480838E+01  0.11824627091E+02  0.51100000000E-03 0. -1.
        -11    1    4    4    0    0 -0.41084595413E+01  0.95273105958E+01 -0.84048509741E+01  0.13352550586E+02  0.51100000000E-03 0.  1.
        -12    1    4    4    0    0 -0.98620572252E+01 -0.21905219051E+02 -0.16581705403E+02  0.29189925461E+02  0.00000000000E+00 0.  1.
</event>
<event>
 8    1  0.1253703E-006  0.9118800E+02  0.7816164E-02  0.1184000E+00
        -11   -1    0    0    0    0  0.00000000000E+00  0.00000000000E+00  0.45593999997E+02  0.45594000000E+02  0.51100000000E-03 0. -1.
         11   -1    0    0    0    0 -0.00000000000E+00 -0.00000000000E+00 -0.45593999997E+02  0.45594000000E+02  0.51100000000E-03 0.  1.
         23    2    1    2    0    0 -0.88817841970E-15 -0.35527136788E-14 -0.35527136788E-14  0.91188000000E+02  0.91188000000E+02 0.  0.
    9900012    2    3    3    0    0  0.77627553314E+01  0.26839343972E+02  0.23982681773E+02  0.54367085017E+02  0.40000001913E+02 0.  0.
        -12    1    3    3    0    0 -0.77627553314E+01 -0.26839343972E+02 -0.23982681773E+02  0.36820914983E+02  0.00000000000E+00 0.  1.
         11    1    4    4    0    0  0.17518004118E+02  0.17539068494E+02  0.72696420903E+01  0.25833061923E+02  0.51100000000E-03 0. -1.
        -11    1    4    4    0    0 -0.14758350276E+02  0.10330748511E+02  0.13245275295E+02  0.22360022039E+02  0.51100000000E-03 0.  1.
        -12    1    4    4    0    0  0.50031014896E+01 -0.10304730337E+01  0.34677643870E+01  0.61740010554E+01  0.00000000000E+00 0.  1.
</event>
<event>
 8    1  0.1253703E-006  0.9118800E+02  0.7816164E-02  0.1184000E+00
        -11   -1    0    0    0    0  0.00000000000E+00  0.00000000000E+00  0.45593999997E+02  0.45594000000E+02  0.51100000000E-03 0. -1.
         11   -1    0    0    0    0 -0.00000000000E+00 -0.00000000000E+00 -0.45593999997E+02  0.45594000000E+02  0.51100000000E-03 0.  1.
         23    2    1    2    0    0 -0.88817841970E-15  0.17763568394E-14  0.00000000000E+00  0.91188000000E+02  0.91188000000E+02 0.  0.
    9900012    2    3    3    0    0  0.70673568944E+01  0.15760677617E+02  0.32518194024E+02  0.54367089704E+02  0.40000012598E+02 0.  0.
        -12    1    3    3    0    0 -0.70673568944E+01 -0.15760677617E+02 -0.32518194024E+02  0.36820910296E+02  0.00000000000E+00 0.  1.
         11    1    4    4    0    0 -0.17865029836E+01 -0.47288898317E+01 -0.13749997916E+01  0.52387609832E+01  0.51100000000E-03 0. -1.
        -11    1    4    4    0    0 -0.98854492306E+01  0.93180515946E+01  0.15328765460E+02  0.20482168899E+02  0.51100000000E-03 0.  1.
        -12    1    4    4    0    0  0.18739309109E+02  0.11171515854E+02  0.18564428356E+02  0.28646159822E+02  0.00000000000E+00 0.  1.
</event>
<event>
 8    1  0.1253703E-006  0.9118800E+02  0.7816164E-02  0.1184000E+00
        -11   -1    0    0    0    0  0.00000000000E+00  0.00000000000E+00  0.45593999997E+02  0.45594000000E+02  0.51100000000E-03 0. -1.
         11   -1    0    0    0    0 -0.00000000000E+00 -0.00000000000E+00 -0.45593999997E+02  0.45594000000E+02  0.51100000000E-03 0.  1.
         23    2    1    2    0    0  0.35527136788E-14  0.00000000000E+00 -0.35527136788E-14  0.91188000000E+02  0.91188000000E+02 0.  0.
    9900012    2    3    3    0    0  0.22521611305E+02  0.16860087766E+02 -0.23754527710E+02  0.54367311224E+02  0.40000517594E+02 0.  0.
         12    1    3    3    0    0 -0.22521611305E+02 -0.16860087766E+02  0.23754527710E+02  0.36820688776E+02  0.00000000000E+00 0. -1.
         11    1    4    4    0    0 -0.15774983494E+01  0.85027831680E+01  0.69324359334E+01  0.11083523396E+02  0.51100000000E-03 0. -1.
        -11    1    4    4    0    0  0.24663033397E+02  0.60369363355E+01 -0.19968329833E+02  0.32302384018E+02  0.51100000000E-03 0.  1.
         12    1    4    4    0    0 -0.56392374333E+00  0.23203682622E+01 -0.10718633810E+02  0.10981403809E+02  0.00000000000E+00 0. -1.
</event>
<event>
 8    1  0.1253703E-006  0.9118800E+02  0.7816164E-02  0.1184000E+00
        -11   -1    0    0    0    0  0.00000000000E+00  0.00000000000E+00  0.45593999997E+02  0.45594000000E+02  0.51100000000E-03 0.  1.
         11   -1    0    0    0    0 -0.00000000000E+00 -0.00000000000E+00 -0.45593999997E+02  0.45594000000E+02  0.51100000000E-03 0. -1.
         23    2    1    2    0    0  0.71054273576E-14  0.35527136788E-14  0.00000000000E+00  0.91188000000E+02  0.91188000000E+02 0.  0.
    9900012    2    3    3    0    0 -0.25348463596E+02 -0.24990991415E+02 -0.94173823772E+01  0.54367063708E+02  0.39999953335E+02 0.  0.
        -12    1    3    3    0    0  0.25348463596E+02  0.24990991415E+02  0.94173823772E+01  0.36820936292E+02  0.00000000000E+00 0.  1.
         11    1    4    4    0    0  0.79447708169E+01 -0.44332442156E+01 -0.35764021498E+01  0.97756682742E+01  0.51100000000E-03 0. -1.
        -11    1    4    4    0    0 -0.17508798963E+02  0.83194090984E+00 -0.89049854282E+00  0.17551158216E+02  0.51100000000E-03 0.  1.
         12    1    4    4    0    0 -0.15784435450E+02 -0.21389688109E+02 -0.49504816846E+01  0.27040237217E+02  0.00000000000E+00 0. -1.
</event>
<event>
 8    1  0.1253703E-006  0.9118800E+02  0.7816164E-02  0.1184000E+00
        -11   -1    0    0    0    0  0.00000000000E+00  0.00000000000E+00  0.45593999997E+02  0.45594000000E+02  0.51100000000E-03 0. -1.
         11   -1    0    0    0    0 -0.00000000000E+00 -0.00000000000E+00 -0.45593999997E+02  0.45594000000E+02  0.51100000000E-03 0.  1.
         23    2    1    2    0    0  0.00000000000E+00  0.35527136788E-14 -0.17763568394E-14  0.91188000000E+02  0.91188000000E+02 0.  0.
    9900012    2    3    3    0    0  0.32789795292E+02  0.14381166047E+02 -0.85901597271E+01  0.54367089415E+02  0.40000011940E+02 0.  0.
         12    1    3    3    0    0 -0.32789795292E+02 -0.14381166047E+02  0.85901597271E+01  0.36820910585E+02  0.00000000000E+00 0. -1.
         11    1    4    4    0    0  0.12433213212E+02  0.16594896379E+02 -0.75252240542E+01  0.22059110906E+02  0.51100000000E-03 0. -1.
        -11    1    4    4    0    0  0.21074856336E+02  0.28190340537E+01 -0.88329655509E+01  0.23024287247E+02  0.51100000000E-03 0.  1.
         12    1    4    4    0    0 -0.71827425615E+00 -0.50327643855E+01  0.77680298780E+01  0.92836912622E+01  0.00000000000E+00 0. -1.
</event>
<event>
 8    1  0.1253703E-006  0.9118800E+02  0.7816164E-02  0.1184000E+00
        -11   -1    0    0    0    0  0.00000000000E+00  0.00000000000E+00  0.45593999997E+02  0.45594000000E+02  0.51100000000E-03 0.  1.
         11   -1    0    0    0    0 -0.00000000000E+00 -0.00000000000E+00 -0.45593999997E+02  0.45594000000E+02  0.51100000000E-03 0. -1.
         23    2    1    2    0    0  0.00000000000E+00  0.35527136788E-14  0.35527136788E-14  0.91188000000E+02  0.91188000000E+02 0.  0.
    9900012    2    3    3    0    0 -0.64101624607E+01 -0.23607156175E+02 -0.27520776485E+02  0.54367066501E+02  0.39999959701E+02 0.  0.
        -12    1    3    3    0    0  0.64101624607E+01  0.23607156175E+02  0.27520776485E+02  0.36820933499E+02  0.00000000000E+00 0.  1.
         11    1    4    4    0    0 -0.83944045953E+01 -0.41207287568E+01 -0.48276103497E+01  0.10523889773E+02  0.51100000000E-03 0. -1.
        -11    1    4    4    0    0 -0.60744787633E+01 -0.18497619256E+02  0.28624000273E+00  0.19471598393E+02  0.51100000000E-03 0.  1.
         12    1    4    4    0    0  0.80587208979E+01 -0.98880816224E+00 -0.22979406138E+02  0.24371578335E+02  0.00000000000E+00 0. -1.
</event>
<event>
 8    1  0.1253703E-006  0.9118800E+02  0.7816164E-02  0.1184000E+00
        -11   -1    0    0    0    0  0.00000000000E+00  0.00000000000E+00  0.45593999997E+02  0.45594000000E+02  0.51100000000E-03 0.  1.
         11   -1    0    0    0    0 -0.00000000000E+00 -0.00000000000E+00 -0.45593999997E+02  0.45594000000E+02  0.51100000000E-03 0. -1.
         23    2    1    2    0    0  0.00000000000E+00  0.00000000000E+00  0.00000000000E+00  0.91188000000E+02  0.91188000000E+02 0.  0.
    9900012    2    3    3    0    0 -0.33512791080E+02 -0.81095394975E+01  0.12919219375E+02  0.54367108836E+02  0.40000056214E+02 0.  0.
         12    1    3    3    0    0  0.33512791080E+02  0.81095394975E+01 -0.12919219375E+02  0.36820891164E+02  0.00000000000E+00 0. -1.
         11    1    4    4    0    0  0.32616663599E+01  0.71143448409E+01  0.31723162750E+01  0.84448777829E+01  0.51100000000E-03 0.  1.
        -11    1    4    4    0    0 -0.97219935241E+01 -0.94421130898E+01 -0.51557042996E+01  0.14500067061E+02  0.51100000000E-03 0. -1.
        -12    1    4    4    0    0 -0.27052463916E+02 -0.57817712486E+01  0.14902607399E+02  0.31422163993E+02  0.00000000000E+00 0.  1.
</event>
<event>
 8    1  0.1253703E-006  0.9118800E+02  0.7816164E-02  0.1184000E+00
        -11   -1    0    0    0    0  0.00000000000E+00  0.00000000000E+00  0.45593999997E+02  0.45594000000E+02  0.51100000000E-03 0.  1.
         11   -1    0    0    0    0 -0.00000000000E+00 -0.00000000000E+00 -0.45593999997E+02  0.45594000000E+02  0.51100000000E-03 0. -1.
         23    2    1    2    0    0  0.00000000000E+00  0.00000000000E+00  0.00000000000E+00  0.91188000000E+02  0.91188000000E+02 0.  0.
    9900012    2    3    3    0    0 -0.25583476888E+02 -0.19960377332E+02 -0.17402154096E+02  0.54367273227E+02  0.40000430974E+02 0.  0.
        -12    1    3    3    0    0  0.25583476888E+02  0.19960377332E+02  0.17402154096E+02  0.36820726773E+02  0.00000000000E+00 0.  1.
         11    1    4    4    0    0 -0.11944820066E+02 -0.20547622513E+02 -0.18101274528E+02  0.29875402209E+02  0.51100000000E-03 0. -1.
        -11    1    4    4    0    0 -0.40050636713E+01  0.30667277547E+01 -0.91784712233E+01  0.10473284508E+02  0.51100000000E-03 0.  1.
         12    1    4    4    0    0 -0.96335931506E+01 -0.24794825738E+01  0.98775916559E+01  0.14018586510E+02  0.00000000000E+00 0. -1.
</event>
<event>
 8    1  0.1253703E-006  0.9118800E+02  0.7816164E-02  0.1184000E+00
        -11   -1    0    0    0    0  0.00000000000E+00  0.00000000000E+00  0.45593999997E+02  0.45594000000E+02  0.51100000000E-03 0.  1.
         11   -1    0    0    0    0 -0.00000000000E+00 -0.00000000000E+00 -0.45593999997E+02  0.45594000000E+02  0.51100000000E-03 0. -1.
         23    2    1    2    0    0 -0.35527136788E-14  0.00000000000E+00 -0.71054273576E-14  0.91188000000E+02  0.91188000000E+02 0.  0.
    9900012    2    3    3    0    0 -0.15365695028E+02 -0.20903238731E+02 -0.26129093951E+02  0.54367088498E+02  0.40000009848E+02 0.  0.
        -12    1    3    3    0    0  0.15365695028E+02  0.20903238731E+02  0.26129093951E+02  0.36820911502E+02  0.00000000000E+00 0.  1.
         11    1    4    4    0    0 -0.79749176284E+00 -0.85341344707E+01  0.19432299295E+01  0.87888330907E+01  0.51100000000E-03 0. -1.
        -11    1    4    4    0    0  0.82001738547E+01 -0.15824800678E+01 -0.70702195714E+00  0.83813468322E+01  0.51100000000E-03 0.  1.
         12    1    4    4    0    0 -0.22768377120E+02 -0.10786624193E+02 -0.27365301924E+02  0.37196908575E+02  0.00000000000E+00 0. -1.
</event>
<event>
 8    1  0.1253703E-006  0.9118800E+02  0.7816164E-02  0.1184000E+00
        -11   -1    0    0    0    0  0.00000000000E+00  0.00000000000E+00  0.45593999997E+02  0.45594000000E+02  0.51100000000E-03 0. -1.
         11   -1    0    0    0    0 -0.00000000000E+00 -0.00000000000E+00 -0.45593999997E+02  0.45594000000E+02  0.51100000000E-03 0.  1.
         23    2    1    2    0    0  0.00000000000E+00  0.00000000000E+00  0.71054273576E-14  0.91188000000E+02  0.91188000000E+02 0.  0.
    9900012    2    3    3    0    0  0.16271517566E+01 -0.81694920675E+01 -0.35866278342E+02  0.54367107213E+02  0.40000052514E+02 0.  0.
         12    1    3    3    0    0 -0.16271517566E+01  0.81694920675E+01  0.35866278342E+02  0.36820892787E+02  0.00000000000E+00 0. -1.
         11    1    4    4    0    0  0.35205914071E+01 -0.50526095434E+01  0.70756977676E+01  0.93802412662E+01  0.51100000000E-03 0. -1.
        -11    1    4    4    0    0 -0.46493688871E+00  0.20607124462E+00 -0.40759001840E+02  0.40762174413E+02  0.51100000000E-03 0.  1.
         12    1    4    4    0    0 -0.14285027617E+01 -0.33229537688E+01 -0.21829742703E+01  0.42246915336E+01  0.00000000000E+00 0. -1.
</event>
<event>
 8    1  0.1253703E-006  0.9118800E+02  0.7816164E-02  0.1184000E+00
        -11   -1    0    0    0    0  0.00000000000E+00  0.00000000000E+00  0.45593999997E+02  0.45594000000E+02  0.51100000000E-03 0.  1.
         11   -1    0    0    0    0 -0.00000000000E+00 -0.00000000000E+00 -0.45593999997E+02  0.45594000000E+02  0.51100000000E-03 0. -1.
         23    2    1    2    0    0  0.00000000000E+00  0.00000000000E+00 -0.88817841970E-15  0.91188000000E+02  0.91188000000E+02 0.  0.
    9900012    2    3    3    0    0 -0.11658721293E+02 -0.34556369964E+02  0.50706375730E+01  0.54367084033E+02  0.39999999670E+02 0.  0.
         12    1    3    3    0    0  0.11658721293E+02  0.34556369964E+02 -0.50706375730E+01  0.36820915967E+02  0.00000000000E+00 0. -1.
         11    1    4    4    0    0 -0.21922421972E+02 -0.28889987300E+02  0.95621925356E+01  0.37505459305E+02  0.51100000000E-03 0.  1.
        -11    1    4    4    0    0 -0.17455112728E+01 -0.16547087158E+01 -0.33840910515E+01  0.41517397611E+01  0.51100000000E-03 0. -1.
        -12    1    4    4    0    0  0.12009211952E+02 -0.40116739480E+01 -0.11074639110E+01  0.12709884967E+02  0.00000000000E+00 0.  1.
</event>
<event>
 8    1  0.1253703E-006  0.9118800E+02  0.7816164E-02  0.1184000E+00
        -11   -1    0    0    0    0  0.00000000000E+00  0.00000000000E+00  0.45593999997E+02  0.45594000000E+02  0.51100000000E-03 0. -1.
         11   -1    0    0    0    0 -0.00000000000E+00 -0.00000000000E+00 -0.45593999997E+02  0.45594000000E+02  0.51100000000E-03 0.  1.
         23    2    1    2    0    0  0.35527136788E-14  0.00000000000E+00  0.00000000000E+00  0.91188000000E+02  0.91188000000E+02 0.  0.
    9900012    2    3    3    0    0 -0.22248284964E+02  0.17453302181E+02 -0.23583349242E+02  0.54367105086E+02  0.40000047664E+02 0.  0.
         12    1    3    3    0    0  0.22248284964E+02 -0.17453302181E+02  0.23583349242E+02  0.36820894914E+02  0.00000000000E+00 0. -1.
         11    1    4    4    0    0  0.55638442449E+01  0.34743771331E+01  0.35927962378E+01  0.74790269629E+01  0.51100000000E-03 0. -1.
        -11    1    4    4    0    0 -0.18093875388E+02  0.15905483811E+02 -0.81415392987E+01  0.25429459377E+02  0.51100000000E-03 0.  1.
        -12    1    4    4    0    0 -0.97182538204E+01 -0.19265587633E+01 -0.19034606181E+02  0.21458618745E+02  0.00000000000E+00 0.  1.
</event>
<event>
 8    1  0.1253703E-006  0.9118800E+02  0.7816164E-02  0.1184000E+00
        -11   -1    0    0    0    0  0.00000000000E+00  0.00000000000E+00  0.45593999997E+02  0.45594000000E+02  0.51100000000E-03 0. -1.
         11   -1    0    0    0    0 -0.00000000000E+00 -0.00000000000E+00 -0.45593999997E+02  0.45594000000E+02  0.51100000000E-03 0.  1.
         23    2    1    2    0    0  0.17763568394E-14  0.00000000000E+00  0.00000000000E+00  0.91188000000E+02  0.91188000000E+02 0.  0.
    9900012    2    3    3    0    0 -0.15486451098E+02 -0.29107204615E+02 -0.16392647333E+02  0.54367103559E+02  0.40000044184E+02 0.  0.
         12    1    3    3    0    0  0.15486451098E+02  0.29107204615E+02  0.16392647333E+02  0.36820896441E+02  0.00000000000E+00 0. -1.
         11    1    4    4    0    0 -0.62069917659E+01 -0.12632216134E-01 -0.31408005269E+00  0.62149459286E+01  0.51100000000E-03 0. -1.
        -11    1    4    4    0    0 -0.51841551552E+01  0.15791028678E+01  0.74958756663E+01  0.92497125796E+01  0.51100000000E-03 0.  1.
        -12    1    4    4    0    0 -0.40953041771E+01 -0.30673675267E+02 -0.23574442947E+02  0.38902445051E+02  0.00000000000E+00 0.  1.
</event>
<event>
 8    1  0.1253703E-006  0.9118800E+02  0.7816164E-02  0.1184000E+00
        -11   -1    0    0    0    0  0.00000000000E+00  0.00000000000E+00  0.45593999997E+02  0.45594000000E+02  0.51100000000E-03 0. -1.
         11   -1    0    0    0    0 -0.00000000000E+00 -0.00000000000E+00 -0.45593999997E+02  0.45594000000E+02  0.51100000000E-03 0.  1.
         23    2    1    2    0    0 -0.44408920985E-15 -0.88817841970E-15  0.00000000000E+00  0.91188000000E+02  0.91188000000E+02 0.  0.
    9900012    2    3    3    0    0 -0.24331301530E+01 -0.66503164574E+01  0.36133550360E+02  0.54367078054E+02  0.39999986039E+02 0.  0.
        -12    1    3    3    0    0  0.24331301530E+01  0.66503164574E+01 -0.36133550360E+02  0.36820921946E+02  0.00000000000E+00 0.  1.
         11    1    4    4    0    0  0.17952580887E+01 -0.54329900341E+01  0.24070481059E+02  0.24741228566E+02  0.51100000000E-03 0. -1.
        -11    1    4    4    0    0  0.98891353476E+01 -0.59133031631E+01  0.85244205239E+01  0.14332756111E+02  0.51100000000E-03 0.  1.
         12    1    4    4    0    0 -0.14117523589E+02  0.46959767398E+01  0.35386487778E+01  0.15293093376E+02  0.00000000000E+00 0. -1.
</event>
<event>
 8    1  0.1253703E-006  0.9118800E+02  0.7816164E-02  0.1184000E+00
        -11   -1    0    0    0    0  0.00000000000E+00  0.00000000000E+00  0.45593999997E+02  0.45594000000E+02  0.51100000000E-03 0.  1.
         11   -1    0    0    0    0 -0.00000000000E+00 -0.00000000000E+00 -0.45593999997E+02  0.45594000000E+02  0.51100000000E-03 0. -1.
         23    2    1    2    0    0  0.17763568394E-14  0.00000000000E+00  0.00000000000E+00  0.91188000000E+02  0.91188000000E+02 0.  0.
    9900012    2    3    3    0    0 -0.10509428065E+02  0.32295389258E+02  0.14224580568E+02  0.54367096454E+02  0.40000027986E+02 0.  0.
         12    1    3    3    0    0  0.10509428065E+02 -0.32295389258E+02 -0.14224580568E+02  0.36820903546E+02  0.00000000000E+00 0. -1.
         11    1    4    4    0    0 -0.12234432992E+01 -0.79919296828E+00 -0.31214581872E+00  0.14943085961E+01  0.51100000000E-03 0. -1.
        -11    1    4    4    0    0 -0.15305155350E+02 -0.89807217442E+00  0.93666977724E+01  0.17966339119E+02  0.51100000000E-03 0.  1.
        -12    1    4    4    0    0  0.60191705834E+01  0.33992654401E+02  0.51700286148E+01  0.34906448739E+02  0.00000000000E+00 0.  1.
</event>
<event>
 8    1  0.1253703E-006  0.9118800E+02  0.7816164E-02  0.1184000E+00
        -11   -1    0    0    0    0  0.00000000000E+00  0.00000000000E+00  0.45593999997E+02  0.45594000000E+02  0.51100000000E-03 0.  1.
         11   -1    0    0    0    0 -0.00000000000E+00 -0.00000000000E+00 -0.45593999997E+02  0.45594000000E+02  0.51100000000E-03 0. -1.
         23    2    1    2    0    0  0.00000000000E+00  0.00000000000E+00  0.11102230246E-14  0.91188000000E+02  0.91188000000E+02 0.  0.
    9900012    2    3    3    0    0  0.28025362072E+01  0.36688323240E+02  0.13761704241E+01  0.54367066872E+02  0.39999960549E+02 0.  0.
         12    1    3    3    0    0 -0.28025362072E+01 -0.36688323240E+02 -0.13761704241E+01  0.36820933128E+02  0.00000000000E+00 0. -1.
         11    1    4    4    0    0 -0.47805383453E+01  0.24233240884E+01 -0.99647206250E+01  0.11314667644E+02  0.51100000000E-03 0. -1.
        -11    1    4    4    0    0 -0.71030251962E+01  0.16413429031E+02  0.15609164973E+01  0.17952439390E+02  0.51100000000E-03 0.  1.
        -12    1    4    4    0    0  0.14686099749E+02  0.17851570121E+02  0.97799745518E+01  0.25099959838E+02  0.00000000000E+00 0.  1.
</event>
<event>
 8    1  0.1253703E-006  0.9118800E+02  0.7816164E-02  0.1184000E+00
        -11   -1    0    0    0    0  0.00000000000E+00  0.00000000000E+00  0.45593999997E+02  0.45594000000E+02  0.51100000000E-03 0.  1.
         11   -1    0    0    0    0 -0.00000000000E+00 -0.00000000000E+00 -0.45593999997E+02  0.45594000000E+02  0.51100000000E-03 0. -1.
         23    2    1    2    0    0 -0.35527136788E-14  0.00000000000E+00  0.35527136788E-14  0.91188000000E+02  0.91188000000E+02 0.  0.
    9900012    2    3    3    0    0 -0.20279999898E+02 -0.98155266205E+01  0.29123155632E+02  0.54367066380E+02  0.39999959426E+02 0.  0.
         12    1    3    3    0    0  0.20279999898E+02  0.98155266205E+01 -0.29123155632E+02  0.36820933620E+02  0.00000000000E+00 0. -1.
         11    1    4    4    0    0 -0.19903199100E+02 -0.10570205074E+02  0.75273699180E+01  0.23759795198E+02  0.51100000000E-03 0.  1.
        -11    1    4    4    0    0  0.48633967056E+01 -0.92176818020E+01  0.10170816261E+02  0.14562410137E+02  0.51100000000E-03 0. -1.
        -12    1    4    4    0    0 -0.52401975032E+01  0.99723602555E+01  0.11424969453E+02  0.16044861045E+02  0.00000000000E+00 0.  1.
</event>
<event>
 8    1  0.1253703E-006  0.9118800E+02  0.7816164E-02  0.1184000E+00
        -11   -1    0    0    0    0  0.00000000000E+00  0.00000000000E+00  0.45593999997E+02  0.45594000000E+02  0.51100000000E-03 0.  1.
         11   -1    0    0    0    0 -0.00000000000E+00 -0.00000000000E+00 -0.45593999997E+02  0.45594000000E+02  0.51100000000E-03 0. -1.
         23    2    1    2    0    0 -0.35527136788E-14  0.44408920985E-15  0.00000000000E+00  0.91188000000E+02  0.91188000000E+02 0.  0.
    9900012    2    3    3    0    0  0.22402943824E+02  0.34838470644E+01 -0.29012928521E+02  0.54367094203E+02  0.40000022854E+02 0.  0.
         12    1    3    3    0    0 -0.22402943824E+02 -0.34838470644E+01  0.29012928521E+02  0.36820905797E+02  0.00000000000E+00 0. -1.
         11    1    4    4    0    0  0.15626700657E+02 -0.18690776504E+01 -0.19965703226E+02  0.25422756149E+02  0.51100000000E-03 0. -1.
        -11    1    4    4    0    0  0.50843580582E+01  0.37636562379E+01  0.88604499284E+01  0.10886844278E+02  0.51100000000E-03 0.  1.
        -12    1    4    4    0    0  0.16918851092E+01  0.15892684769E+01 -0.17907675224E+02  0.18057493775E+02  0.00000000000E+00 0.  1.
</event>
<event>
 8    1  0.1253703E-006  0.9118800E+02  0.7816164E-02  0.1184000E+00
        -11   -1    0    0    0    0  0.00000000000E+00  0.00000000000E+00  0.45593999997E+02  0.45594000000E+02  0.51100000000E-03 0.  1.
         11   -1    0    0    0    0 -0.00000000000E+00 -0.00000000000E+00 -0.45593999997E+02  0.45594000000E+02  0.51100000000E-03 0. -1.
         23    2    1    2    0    0  0.00000000000E+00  0.00000000000E+00  0.00000000000E+00  0.91188000000E+02  0.91188000000E+02 0.  0.
    9900012    2    3    3    0    0 -0.50333882438E+01 -0.22838360283E+02 -0.28440325701E+02  0.54367111586E+02  0.40000062483E+02 0.  0.
        -12    1    3    3    0    0  0.50333882438E+01  0.22838360283E+02  0.28440325701E+02  0.36820888414E+02  0.00000000000E+00 0.  1.
         11    1    4    4    0    0 -0.11681831990E+02 -0.13420180354E+02 -0.31017648585E+02  0.35758369137E+02  0.51100000000E-03 0. -1.
        -11    1    4    4    0    0 -0.19574083052E+01 -0.88899870862E+01  0.38679788595E+01  0.98906308386E+01  0.51100000000E-03 0.  1.
         12    1    4    4    0    0  0.86058520509E+01 -0.52819284327E+00 -0.12906559749E+01  0.87181116101E+01  0.00000000000E+00 0. -1.
</event>
<event>
 8    1  0.1253703E-006  0.9118800E+02  0.7816164E-02  0.1184000E+00
        -11   -1    0    0    0    0  0.00000000000E+00  0.00000000000E+00  0.45593999997E+02  0.45594000000E+02  0.51100000000E-03 0.  1.
         11   -1    0    0    0    0 -0.00000000000E+00 -0.00000000000E+00 -0.45593999997E+02  0.45594000000E+02  0.51100000000E-03 0. -1.
         23    2    1    2    0    0  0.35527136788E-14  0.35527136788E-14  0.00000000000E+00  0.91188000000E+02  0.91188000000E+02 0.  0.
    9900012    2    3    3    0    0  0.20820300097E+02  0.26429725366E+02 -0.14958791603E+02  0.54367072184E+02  0.39999972657E+02 0.  0.
        -12    1    3    3    0    0 -0.20820300097E+02 -0.26429725366E+02  0.14958791603E+02  0.36820927816E+02  0.00000000000E+00 0.  1.
         11    1    4    4    0    0 -0.56858251141E+00 -0.53948304165E+01 -0.89779237320E+01  0.10489546992E+02  0.51100000000E-03 0. -1.
        -11    1    4    4    0    0 -0.16910293602E+01 -0.67125049387E+00  0.25346419602E+01  0.31200268669E+01  0.51100000000E-03 0.  1.
         12    1    4    4    0    0  0.23079911969E+02  0.32495806276E+02 -0.85155098315E+01  0.40757498325E+02  0.00000000000E+00 0. -1.
</event>
<event>
 8    1  0.1253703E-006  0.9118800E+02  0.7816164E-02  0.1184000E+00
        -11   -1    0    0    0    0  0.00000000000E+00  0.00000000000E+00  0.45593999997E+02  0.45594000000E+02  0.51100000000E-03 0.  1.
         11   -1    0    0    0    0 -0.00000000000E+00 -0.00000000000E+00 -0.45593999997E+02  0.45594000000E+02  0.51100000000E-03 0. -1.
         23    2    1    2    0    0  0.17763568394E-14  0.55511151231E-15  0.00000000000E+00  0.91188000000E+02  0.91188000000E+02 0.  0.
    9900012    2    3    3    0    0 -0.15099830633E+02  0.62687040144E+00 -0.33576513577E+02  0.54367080462E+02  0.39999991528E+02 0.  0.
        -12    1    3    3    0    0  0.15099830633E+02 -0.62687040144E+00  0.33576513577E+02  0.36820919538E+02  0.00000000000E+00 0.  1.
         11    1    4    4    0    0 -0.11060141324E+02 -0.21321809539E+01 -0.20093221559E+02  0.23034983712E+02  0.51100000000E-03 0. -1.
        -11    1    4    4    0    0 -0.22887928498E+01 -0.12391379080E+02 -0.88297822966E+01  0.15386679430E+02  0.51100000000E-03 0.  1.
        -12    1    4    4    0    0 -0.17508964593E+01  0.15150430435E+02 -0.46535097221E+01  0.15945417320E+02  0.00000000000E+00 0.  1.
</event>
<event>
 8    1  0.1253703E-006  0.9118800E+02  0.7816164E-02  0.1184000E+00
        -11   -1    0    0    0    0  0.00000000000E+00  0.00000000000E+00  0.45593999997E+02  0.45594000000E+02  0.51100000000E-03 0.  1.
         11   -1    0    0    0    0 -0.00000000000E+00 -0.00000000000E+00 -0.45593999997E+02  0.45594000000E+02  0.51100000000E-03 0. -1.
         23    2    1    2    0    0  0.00000000000E+00  0.00000000000E+00  0.00000000000E+00  0.91188000000E+02  0.91188000000E+02 0.  0.
    9900012    2    3    3    0    0 -0.10294773862E+02 -0.32558865566E+02 -0.13773799936E+02  0.54367086643E+02  0.40000005619E+02 0.  0.
         12    1    3    3    0    0  0.10294773862E+02  0.32558865566E+02  0.13773799936E+02  0.36820913357E+02  0.00000000000E+00 0. -1.
         11    1    4    4    0    0 -0.10176097098E+02 -0.65286914111E+01 -0.12151967301E+02  0.17141968184E+02  0.51100000000E-03 0. -1.
        -11    1    4    4    0    0 -0.93042362732E-01 -0.30688757707E+02  0.27816174222E+01  0.30814702696E+02  0.51100000000E-03 0.  1.
        -12    1    4    4    0    0 -0.25634400816E-01  0.46585835524E+01 -0.44034500579E+01  0.64104157626E+01  0.00000000000E+00 0.  1.
</event>
<event>
 8    1  0.1253703E-006  0.9118800E+02  0.7816164E-02  0.1184000E+00
        -11   -1    0    0    0    0  0.00000000000E+00  0.00000000000E+00  0.45593999997E+02  0.45594000000E+02  0.51100000000E-03 0.  1.
         11   -1    0    0    0    0 -0.00000000000E+00 -0.00000000000E+00 -0.45593999997E+02  0.45594000000E+02  0.51100000000E-03 0. -1.
         23    2    1    2    0    0  0.00000000000E+00  0.00000000000E+00 -0.55511151231E-16  0.91188000000E+02  0.91188000000E+02 0.  0.
    9900012    2    3    3    0    0 -0.32574364032E+02 -0.17162305511E+02 -0.38481510081E+00  0.54367054803E+02  0.39999933035E+02 0.  0.
        -12    1    3    3    0    0  0.32574364032E+02  0.17162305511E+02  0.38481510081E+00  0.36820945197E+02  0.00000000000E+00 0.  1.
         11    1    4    4    0    0  0.35887319705E+01 -0.27901205077E+00 -0.66657606845E+01  0.75755666880E+01  0.51100000000E-03 0. -1.
        -11    1    4    4    0    0 -0.37323113516E+02 -0.15159932415E+02  0.10894645038E+02  0.41731662369E+02  0.51100000000E-03 0.  1.
        -12    1    4    4    0    0  0.11600175135E+01 -0.17233610453E+01 -0.46136994547E+01  0.50598257462E+01  0.00000000000E+00 0.  1.
</event>
<event>
 8    1  0.1253703E-006  0.9118800E+02  0.7816164E-02  0.1184000E+00
        -11   -1    0    0    0    0  0.00000000000E+00  0.00000000000E+00  0.45593999997E+02  0.45594000000E+02  0.51100000000E-03 0.  1.
         11   -1    0    0    0    0 -0.00000000000E+00 -0.00000000000E+00 -0.45593999997E+02  0.45594000000E+02  0.51100000000E-03 0. -1.
         23    2    1    2    0    0  0.00000000000E+00  0.22204460493E-15  0.00000000000E+00  0.91188000000E+02  0.91188000000E+02 0.  0.
    9900012    2    3    3    0    0  0.94322112008E+01  0.15621119886E+01 -0.35558028397E+02  0.54367079514E+02  0.39999989368E+02 0.  0.
        -12    1    3    3    0    0 -0.94322112008E+01 -0.15621119886E+01  0.35558028397E+02  0.36820920486E+02  0.00000000000E+00 0.  1.
         11    1    4    4    0    0  0.34732546373E+01  0.44064621752E+01 -0.26331602971E+02  0.26922736153E+02  0.51100000000E-03 0. -1.
        -11    1    4    4    0    0  0.62481462299E+01 -0.13477856307E+02 -0.75881618486E+01  0.16681491014E+02  0.51100000000E-03 0.  1.
        -12    1    4    4    0    0 -0.28918966637E+00  0.10633506121E+02 -0.16382635765E+01  0.10762852346E+02  0.00000000000E+00 0.  1.
</event>
<event>
 8    1  0.1253703E-006  0.9118800E+02  0.7816164E-02  0.1184000E+00
        -11   -1    0    0    0    0  0.00000000000E+00  0.00000000000E+00  0.45593999997E+02  0.45594000000E+02  0.51100000000E-03 0.  1.
         11   -1    0    0    0    0 -0.00000000000E+00 -0.00000000000E+00 -0.45593999997E+02  0.45594000000E+02  0.51100000000E-03 0. -1.
         23    2    1    2    0    0  0.15543122345E-14 -0.35527136788E-14  0.00000000000E+00  0.91188000000E+02  0.91188000000E+02 0.  0.
    9900012    2    3    3    0    0  0.19915778655E+01 -0.23399834172E+02 -0.28359580797E+02  0.54367021677E+02  0.39999857517E+02 0.  0.
        -12    1    3    3    0    0 -0.19915778655E+01  0.23399834172E+02  0.28359580797E+02  0.36820978323E+02  0.00000000000E+00 0.  1.
         11    1    4    4    0    0  0.81468233387E+01 -0.47493774445E+01 -0.12601190210E+02  0.15739037823E+02  0.51100000000E-03 0.  1.
        -11    1    4    4    0    0  0.70615382374E+01 -0.14854446532E+02 -0.18341931198E+02  0.24636281058E+02  0.51100000000E-03 0. -1.
        -12    1    4    4    0    0 -0.13216783711E+02 -0.37960101955E+01  0.25835406099E+01  0.13991702796E+02  0.00000000000E+00 0.  1.
</event>
<event>
 8    1  0.1253703E-006  0.9118800E+02  0.7816164E-02  0.1184000E+00
        -11   -1    0    0    0    0  0.00000000000E+00  0.00000000000E+00  0.45593999997E+02  0.45594000000E+02  0.51100000000E-03 0. -1.
         11   -1    0    0    0    0 -0.00000000000E+00 -0.00000000000E+00 -0.45593999997E+02  0.45594000000E+02  0.51100000000E-03 0.  1.
         23    2    1    2    0    0  0.00000000000E+00  0.00000000000E+00 -0.35527136788E-14  0.91188000000E+02  0.91188000000E+02 0.  0.
    9900012    2    3    3    0    0  0.27022176283E+02 -0.10849595907E+02 -0.22535930574E+02  0.54367083265E+02  0.39999997919E+02 0.  0.
        -12    1    3    3    0    0 -0.27022176283E+02  0.10849595907E+02  0.22535930574E+02  0.36820916735E+02  0.00000000000E+00 0.  1.
         11    1    4    4    0    0  0.17624531865E+02 -0.28219802015E+01 -0.73979960366E+01  0.19321439939E+02  0.51100000000E-03 0.  1.
        -11    1    4    4    0    0 -0.73930812181E+01 -0.11001882731E+02 -0.11635448615E+02  0.17637537761E+02  0.51100000000E-03 0. -1.
        -12    1    4    4    0    0  0.16790725636E+02  0.29742670257E+01 -0.35024859215E+01  0.17408105565E+02  0.00000000000E+00 0.  1.
</event>
<event>
 8    1  0.1253703E-006  0.9118800E+02  0.7816164E-02  0.1184000E+00
        -11   -1    0    0    0    0  0.00000000000E+00  0.00000000000E+00  0.45593999997E+02  0.45594000000E+02  0.51100000000E-03 0.  1.
         11   -1    0    0    0    0 -0.00000000000E+00 -0.00000000000E+00 -0.45593999997E+02  0.45594000000E+02  0.51100000000E-03 0. -1.
         23    2    1    2    0    0  0.88817841970E-15 -0.77715611724E-15  0.00000000000E+00  0.91188000000E+02  0.91188000000E+02 0.  0.
    9900012    2    3    3    0    0 -0.56165991608E+01  0.77467740688E+00 -0.36381756332E+02  0.54367102333E+02  0.40000041389E+02 0.  0.
        -12    1    3    3    0    0  0.56165991608E+01 -0.77467740688E+00  0.36381756332E+02  0.36820897667E+02  0.00000000000E+00 0.  1.
         11    1    4    4    0    0  0.48039282738E+00 -0.31167909919E+01 -0.27704387467E+02  0.27883296945E+02  0.51100000000E-03 0. -1.
        -11    1    4    4    0    0 -0.80446831476E+01  0.13204121259E+02 -0.45885382964E+01  0.16128249413E+02  0.51100000000E-03 0.  1.
        -12    1    4    4    0    0  0.19476911593E+01 -0.93126528599E+01 -0.40888305682E+01  0.10355555975E+02  0.00000000000E+00 0.  1.
</event>
<event>
 8    1  0.1253703E-006  0.9118800E+02  0.7816164E-02  0.1184000E+00
        -11   -1    0    0    0    0  0.00000000000E+00  0.00000000000E+00  0.45593999997E+02  0.45594000000E+02  0.51100000000E-03 0.  1.
         11   -1    0    0    0    0 -0.00000000000E+00 -0.00000000000E+00 -0.45593999997E+02  0.45594000000E+02  0.51100000000E-03 0. -1.
         23    2    1    2    0    0  0.00000000000E+00 -0.17763568394E-14  0.00000000000E+00  0.91188000000E+02  0.91188000000E+02 0.  0.
    9900012    2    3    3    0    0 -0.29168170652E+02  0.80745254348E+01  0.20971414122E+02  0.54367077273E+02  0.39999984260E+02 0.  0.
        -12    1    3    3    0    0  0.29168170652E+02 -0.80745254348E+01 -0.20971414122E+02  0.36820922727E+02  0.00000000000E+00 0.  1.
         11    1    4    4    0    0 -0.13543488611E+02  0.16039861724E+01  0.66641617037E+00  0.13654411967E+02  0.51100000000E-03 0. -1.
        -11    1    4    4    0    0 -0.14297229705E+02 -0.10803322150E+02  0.93177816962E+01  0.20197613788E+02  0.51100000000E-03 0.  1.
         12    1    4    4    0    0 -0.13274523360E+01  0.17273861412E+02  0.10987216255E+02  0.20515051519E+02  0.00000000000E+00 0. -1.
</event>
<event>
 8    1  0.1253703E-006  0.9118800E+02  0.7816164E-02  0.1184000E+00
        -11   -1    0    0    0    0  0.00000000000E+00  0.00000000000E+00  0.45593999997E+02  0.45594000000E+02  0.51100000000E-03 0.  1.
         11   -1    0    0    0    0 -0.00000000000E+00 -0.00000000000E+00 -0.45593999997E+02  0.45594000000E+02  0.51100000000E-03 0. -1.
         23    2    1    2    0    0 -0.71054273576E-14  0.88817841970E-15  0.00000000000E+00  0.91188000000E+02  0.91188000000E+02 0.  0.
    9900012    2    3    3    0    0 -0.36333062836E+02 -0.54051906168E+01 -0.25441502277E+01  0.54367078759E+02  0.39999987647E+02 0.  0.
        -12    1    3    3    0    0  0.36333062836E+02  0.54051906168E+01  0.25441502277E+01  0.36820921241E+02  0.00000000000E+00 0.  1.
         11    1    4    4    0    0 -0.65628515603E+01 -0.18151141028E+02 -0.11678416335E+01  0.19336462851E+02  0.51100000000E-03 0. -1.
        -11    1    4    4    0    0 -0.24539916878E+01  0.13532103407E+01 -0.44665949164E+01  0.52729236518E+01  0.51100000000E-03 0.  1.
         12    1    4    4    0    0 -0.27316219588E+02  0.11392740071E+02  0.30902863221E+01  0.29757692257E+02  0.00000000000E+00 0. -1.
</event>
<event>
 8    1  0.1253703E-006  0.9118800E+02  0.7816164E-02  0.1184000E+00
        -11   -1    0    0    0    0  0.00000000000E+00  0.00000000000E+00  0.45593999997E+02  0.45594000000E+02  0.51100000000E-03 0.  1.
         11   -1    0    0    0    0 -0.00000000000E+00 -0.00000000000E+00 -0.45593999997E+02  0.45594000000E+02  0.51100000000E-03 0. -1.
         23    2    1    2    0    0 -0.17763568394E-14  0.00000000000E+00  0.00000000000E+00  0.91188000000E+02  0.91188000000E+02 0.  0.
    9900012    2    3    3    0    0  0.13048175190E+02  0.25460647045E+02 -0.23179322635E+02  0.54367076308E+02  0.39999982059E+02 0.  0.
        -12    1    3    3    0    0 -0.13048175190E+02 -0.25460647045E+02  0.23179322635E+02  0.36820923692E+02  0.00000000000E+00 0.  1.
         11    1    4    4    0    0  0.20073973921E+01  0.11179630519E+02  0.91505352592E+01  0.14585817722E+02  0.51100000000E-03 0. -1.
        -11    1    4    4    0    0 -0.12994888412E+01  0.69826425811E+00  0.96575923840E+00  0.17632173406E+01  0.51100000000E-03 0.  1.
         12    1    4    4    0    0  0.12340266639E+02  0.13582752268E+02 -0.33295617133E+02  0.38018041245E+02  0.00000000000E+00 0. -1.
</event>
<event>
 8    1  0.1253703E-006  0.9118800E+02  0.7816164E-02  0.1184000E+00
        -11   -1    0    0    0    0  0.00000000000E+00  0.00000000000E+00  0.45593999997E+02  0.45594000000E+02  0.51100000000E-03 0.  1.
         11   -1    0    0    0    0 -0.00000000000E+00 -0.00000000000E+00 -0.45593999997E+02  0.45594000000E+02  0.51100000000E-03 0. -1.
         23    2    1    2    0    0  0.00000000000E+00 -0.35527136788E-14  0.00000000000E+00  0.91188000000E+02  0.91188000000E+02 0.  0.
    9900012    2    3    3    0    0 -0.85918446893E+01  0.30535601834E+02 -0.18695933601E+02  0.54367072421E+02  0.39999973199E+02 0.  0.
        -12    1    3    3    0    0  0.85918446893E+01 -0.30535601834E+02  0.18695933601E+02  0.36820927579E+02  0.00000000000E+00 0.  1.
         11    1    4    4    0    0  0.39291217601E+00 -0.52289874208E+00 -0.19041977614E+02  0.19053207467E+02  0.51100000000E-03 0. -1.
        -11    1    4    4    0    0 -0.25297263536E+00  0.24031608565E+02 -0.80800100345E+00  0.24046518901E+02  0.51100000000E-03 0.  1.
        -12    1    4    4    0    0 -0.87317842299E+01  0.70268920112E+01  0.11540450167E+01  0.11267346053E+02  0.00000000000E+00 0.  1.
</event>
<event>
 8    1  0.1253703E-006  0.9118800E+02  0.7816164E-02  0.1184000E+00
        -11   -1    0    0    0    0  0.00000000000E+00  0.00000000000E+00  0.45593999997E+02  0.45594000000E+02  0.51100000000E-03 0.  1.
         11   -1    0    0    0    0 -0.00000000000E+00 -0.00000000000E+00 -0.45593999997E+02  0.45594000000E+02  0.51100000000E-03 0. -1.
         23    2    1    2    0    0  0.00000000000E+00  0.00000000000E+00 -0.35527136788E-14  0.91188000000E+02  0.91188000000E+02 0.  0.
    9900012    2    3    3    0    0 -0.22331833198E+02 -0.19106581858E+02  0.22181246896E+02  0.54367082601E+02  0.39999996406E+02 0.  0.
         12    1    3    3    0    0  0.22331833198E+02  0.19106581858E+02 -0.22181246896E+02  0.36820917399E+02  0.00000000000E+00 0. -1.
         11    1    4    4    0    0 -0.69632718800E+00 -0.43216995792E+01 -0.30434926446E+01  0.53314919623E+01  0.51100000000E-03 0. -1.
        -11    1    4    4    0    0 -0.10356309364E+02 -0.29099993691E+00 -0.66055155550E+01  0.12287011867E+02  0.51100000000E-03 0.  1.
        -12    1    4    4    0    0 -0.11279196645E+02 -0.14493882341E+02  0.31830255096E+02  0.36748578772E+02  0.00000000000E+00 0.  1.
</event>
<event>
 8    1  0.1253703E-006  0.9118800E+02  0.7816164E-02  0.1184000E+00
        -11   -1    0    0    0    0  0.00000000000E+00  0.00000000000E+00  0.45593999997E+02  0.45594000000E+02  0.51100000000E-03 0.  1.
         11   -1    0    0    0    0 -0.00000000000E+00 -0.00000000000E+00 -0.45593999997E+02  0.45594000000E+02  0.51100000000E-03 0. -1.
         23    2    1    2    0    0  0.00000000000E+00  0.00000000000E+00 -0.35527136788E-14  0.91188000000E+02  0.91188000000E+02 0.  0.
    9900012    2    3    3    0    0  0.24063191950E+02 -0.12195710856E+02  0.25060082156E+02  0.54367078124E+02  0.39999986200E+02 0.  0.
        -12    1    3    3    0    0 -0.24063191950E+02  0.12195710856E+02 -0.25060082156E+02  0.36820921876E+02  0.00000000000E+00 0.  1.
         11    1    4    4    0    0  0.23062166535E+01  0.17857075428E+01 -0.12237041105E+01  0.31630426321E+01  0.51100000000E-03 0. -1.
        -11    1    4    4    0    0  0.16583921886E+02  0.33193627221E+01 -0.26285577581E+01  0.17115897585E+02  0.51100000000E-03 0.  1.
        -12    1    4    4    0    0  0.51730534110E+01 -0.17300781120E+02  0.28912344025E+02  0.34088137907E+02  0.00000000000E+00 0.  1.
</event>
<event>
 8    1  0.1253703E-006  0.9118800E+02  0.7816164E-02  0.1184000E+00
        -11   -1    0    0    0    0  0.00000000000E+00  0.00000000000E+00  0.45593999997E+02  0.45594000000E+02  0.51100000000E-03 0. -1.
         11   -1    0    0    0    0 -0.00000000000E+00 -0.00000000000E+00 -0.45593999997E+02  0.45594000000E+02  0.51100000000E-03 0.  1.
         23    2    1    2    0    0  0.00000000000E+00  0.00000000000E+00 -0.71054273576E-14  0.91188000000E+02  0.91188000000E+02 0.  0.
    9900012    2    3    3    0    0  0.11680575931E+02 -0.66217030851E+01  0.34285528121E+02  0.54367078714E+02  0.39999987545E+02 0.  0.
        -12    1    3    3    0    0 -0.11680575931E+02  0.66217030851E+01 -0.34285528121E+02  0.36820921286E+02  0.00000000000E+00 0.  1.
         11    1    4    4    0    0  0.70462213816E+01 -0.88404584131E+01  0.21650250466E+01  0.11510441974E+02  0.51100000000E-03 0.  1.
        -11    1    4    4    0    0 -0.13227659961E+01 -0.11871921355E+02  0.82968119021E+01  0.14544047392E+02  0.51100000000E-03 0. -1.
         12    1    4    4    0    0  0.59571205457E+01  0.14090676683E+02  0.23823691172E+02  0.28312589349E+02  0.00000000000E+00 0. -1.
</event>
<event>
 8    1  0.1253703E-006  0.9118800E+02  0.7816164E-02  0.1184000E+00
        -11   -1    0    0    0    0  0.00000000000E+00  0.00000000000E+00  0.45593999997E+02  0.45594000000E+02  0.51100000000E-03 0. -1.
         11   -1    0    0    0    0 -0.00000000000E+00 -0.00000000000E+00 -0.45593999997E+02  0.45594000000E+02  0.51100000000E-03 0.  1.
         23    2    1    2    0    0  0.00000000000E+00 -0.35527136788E-14  0.22204460493E-15  0.91188000000E+02  0.91188000000E+02 0.  0.
    9900012    2    3    3    0    0  0.26716542811E+02  0.25299420743E+02  0.13949490006E+01  0.54367078876E+02  0.39999987914E+02 0.  0.
         12    1    3    3    0    0 -0.26716542811E+02 -0.25299420743E+02 -0.13949490006E+01  0.36820921124E+02  0.00000000000E+00 0. -1.
         11    1    4    4    0    0  0.82155260437E+01 -0.82432857570E+01  0.73111843361E+01  0.13744091272E+02  0.51100000000E-03 0. -1.
        -11    1    4    4    0    0  0.19819381566E+02  0.33297680939E+02 -0.62259838594E+01  0.39246736385E+02  0.51100000000E-03 0.  1.
        -12    1    4    4    0    0 -0.13183647994E+01  0.24502556139E+00  0.30974852386E+00  0.13762512191E+01  0.00000000000E+00 0.  1.
</event>
<event>
 8    1  0.1253703E-006  0.9118800E+02  0.7816164E-02  0.1184000E+00
        -11   -1    0    0    0    0  0.00000000000E+00  0.00000000000E+00  0.45593999997E+02  0.45594000000E+02  0.51100000000E-03 0.  1.
         11   -1    0    0    0    0 -0.00000000000E+00 -0.00000000000E+00 -0.45593999997E+02  0.45594000000E+02  0.51100000000E-03 0. -1.
         23    2    1    2    0    0  0.00000000000E+00  0.44408920985E-15 -0.71054273576E-14  0.91188000000E+02  0.91188000000E+02 0.  0.
    9900012    2    3    3    0    0 -0.15061257989E+02 -0.29770126063E+01  0.33467527331E+02  0.54367089067E+02  0.40000011146E+02 0.  0.
         12    1    3    3    0    0  0.15061257989E+02  0.29770126063E+01 -0.33467527331E+02  0.36820910933E+02  0.00000000000E+00 0. -1.
         11    1    4    4    0    0 -0.74989401961E+01 -0.29552604412E+01  0.67450839792E+01  0.10510177281E+02  0.51100000000E-03 0. -1.
        -11    1    4    4    0    0 -0.39266357832E+01  0.80758901149E+01  0.32198512740E+02  0.33427274682E+02  0.51100000000E-03 0.  1.
         12    1    4    4    0    0 -0.36356820096E+01 -0.80976422800E+01 -0.54760693881E+01  0.10429637104E+02  0.00000000000E+00 0. -1.
</event>
<event>
 8    1  0.1253703E-006  0.9118800E+02  0.7816164E-02  0.1184000E+00
        -11   -1    0    0    0    0  0.00000000000E+00  0.00000000000E+00  0.45593999997E+02  0.45594000000E+02  0.51100000000E-03 0.  1.
         11   -1    0    0    0    0 -0.00000000000E+00 -0.00000000000E+00 -0.45593999997E+02  0.45594000000E+02  0.51100000000E-03 0. -1.
         23    2    1    2    0    0  0.00000000000E+00  0.00000000000E+00  0.00000000000E+00  0.91188000000E+02  0.91188000000E+02 0.  0.
    9900012    2    3    3    0    0  0.17441029278E+02  0.60462089152E+01  0.31859602565E+02  0.54367076327E+02  0.39999982102E+02 0.  0.
         12    1    3    3    0    0 -0.17441029278E+02 -0.60462089152E+01 -0.31859602565E+02  0.36820923673E+02  0.00000000000E+00 0. -1.
         11    1    4    4    0    0  0.22020821736E+02  0.15943968184E+02  0.24029925206E+02  0.36284487279E+02  0.51100000000E-03 0. -1.
        -11    1    4    4    0    0 -0.14875978381E+01 -0.77007596690E+01  0.10741822174E+02  0.13300428215E+02  0.51100000000E-03 0.  1.
        -12    1    4    4    0    0 -0.30921946197E+01 -0.21969996000E+01 -0.29121448154E+01  0.47821608332E+01  0.00000000000E+00 0.  1.
</event>
<event>
 8    1  0.1253703E-006  0.9118800E+02  0.7816164E-02  0.1184000E+00
        -11   -1    0    0    0    0  0.00000000000E+00  0.00000000000E+00  0.45593999997E+02  0.45594000000E+02  0.51100000000E-03 0. -1.
         11   -1    0    0    0    0 -0.00000000000E+00 -0.00000000000E+00 -0.45593999997E+02  0.45594000000E+02  0.51100000000E-03 0.  1.
         23    2    1    2    0    0  0.71054273576E-14 -0.17763568394E-14  0.00000000000E+00  0.91188000000E+02  0.91188000000E+02 0.  0.
    9900012    2    3    3    0    0  0.33604806573E+02  0.14096866644E+02  0.52702029496E+01  0.54367085928E+02  0.40000003990E+02 0.  0.
        -12    1    3    3    0    0 -0.33604806573E+02 -0.14096866644E+02 -0.52702029496E+01  0.36820914072E+02  0.00000000000E+00 0.  1.
         11    1    4    4    0    0  0.16308103707E+01  0.83285048135E+01 -0.10935387801E+01  0.85568313188E+01  0.51100000000E-03 0.  1.
        -11    1    4    4    0    0 -0.54259413886E+01 -0.69287514508E+00  0.56292882260E+01  0.78491911756E+01  0.51100000000E-03 0. -1.
         12    1    4    4    0    0  0.37399937591E+02  0.64612369761E+01  0.73445350374E+00  0.37961063433E+02  0.00000000000E+00 0. -1.
</event>
<event>
 8    1  0.1253703E-006  0.9118800E+02  0.7816164E-02  0.1184000E+00
        -11   -1    0    0    0    0  0.00000000000E+00  0.00000000000E+00  0.45593999997E+02  0.45594000000E+02  0.51100000000E-03 0. -1.
         11   -1    0    0    0    0 -0.00000000000E+00 -0.00000000000E+00 -0.45593999997E+02  0.45594000000E+02  0.51100000000E-03 0.  1.
         23    2    1    2    0    0  0.00000000000E+00  0.00000000000E+00  0.00000000000E+00  0.91188000000E+02  0.91188000000E+02 0.  0.
    9900012    2    3    3    0    0  0.29697447304E+02  0.13931050402E+02  0.16726257353E+02  0.54367078954E+02  0.39999988092E+02 0.  0.
         12    1    3    3    0    0 -0.29697447304E+02 -0.13931050402E+02 -0.16726257353E+02  0.36820921046E+02  0.00000000000E+00 0. -1.
         11    1    4    4    0    0  0.15910076529E+02  0.15215733230E+02  0.22272614520E+02  0.31316424296E+02  0.51100000000E-03 0. -1.
        -11    1    4    4    0    0  0.14232336976E+02  0.47872904493E+01 -0.30808574272E+00  0.15019070634E+02  0.51100000000E-03 0.  1.
        -12    1    4    4    0    0 -0.44496620085E+00 -0.60719732778E+01 -0.52382714248E+01  0.80315840234E+01  0.00000000000E+00 0.  1.
</event>
<event>
 8    1  0.1253703E-006  0.9118800E+02  0.7816164E-02  0.1184000E+00
        -11   -1    0    0    0    0  0.00000000000E+00  0.00000000000E+00  0.45593999997E+02  0.45594000000E+02  0.51100000000E-03 0. -1.
         11   -1    0    0    0    0 -0.00000000000E+00 -0.00000000000E+00 -0.45593999997E+02  0.45594000000E+02  0.51100000000E-03 0.  1.
         23    2    1    2    0    0  0.17763568394E-14  0.00000000000E+00  0.00000000000E+00  0.91188000000E+02  0.91188000000E+02 0.  0.
    9900012    2    3    3    0    0  0.92126373132E+01 -0.24675108056E+02 -0.25730273142E+02  0.54367073887E+02  0.39999976541E+02 0.  0.
         12    1    3    3    0    0 -0.92126373132E+01  0.24675108056E+02  0.25730273142E+02  0.36820926113E+02  0.00000000000E+00 0. -1.
         11    1    4    4    0    0 -0.11408494258E+02 -0.18874236234E+02 -0.12361246949E+02  0.25282226189E+02  0.51100000000E-03 0. -1.
        -11    1    4    4    0    0  0.25985184296E+01 -0.50924261123E+01 -0.87738984877E+01  0.10472172491E+02  0.51100000000E-03 0.  1.
        -12    1    4    4    0    0  0.18022613141E+02 -0.70844570915E+00 -0.45951277045E+01  0.18612675208E+02  0.00000000000E+00 0.  1.
</event>
<event>
 8    1  0.1253703E-006  0.9118800E+02  0.7816164E-02  0.1184000E+00
        -11   -1    0    0    0    0  0.00000000000E+00  0.00000000000E+00  0.45593999997E+02  0.45594000000E+02  0.51100000000E-03 0. -1.
         11   -1    0    0    0    0 -0.00000000000E+00 -0.00000000000E+00 -0.45593999997E+02  0.45594000000E+02  0.51100000000E-03 0.  1.
         23    2    1    2    0    0  0.35527136788E-14  0.00000000000E+00  0.00000000000E+00  0.91188000000E+02  0.91188000000E+02 0.  0.
    9900012    2    3    3    0    0 -0.25322344837E+02  0.61705404521E+01  0.26009281300E+02  0.54367089755E+02  0.40000012716E+02 0.  0.
        -12    1    3    3    0    0  0.25322344837E+02 -0.61705404521E+01 -0.26009281300E+02  0.36820910245E+02  0.00000000000E+00 0.  1.
         11    1    4    4    0    0  0.56737515540E+00  0.10248919378E+02  0.25157510027E+01  0.10568408885E+02  0.51100000000E-03 0. -1.
        -11    1    4    4    0    0  0.45925185020E+01  0.19451753890E+01  0.70738892464E+01  0.86553360892E+01  0.51100000000E-03 0.  1.
         12    1    4    4    0    0 -0.30482238494E+02 -0.60235543149E+01  0.16419641050E+02  0.35143344782E+02  0.00000000000E+00 0. -1.
</event>
<event>
 8    1  0.1253703E-006  0.9118800E+02  0.7816164E-02  0.1184000E+00
        -11   -1    0    0    0    0  0.00000000000E+00  0.00000000000E+00  0.45593999997E+02  0.45594000000E+02  0.51100000000E-03 0.  1.
         11   -1    0    0    0    0 -0.00000000000E+00 -0.00000000000E+00 -0.45593999997E+02  0.45594000000E+02  0.51100000000E-03 0. -1.
         23    2    1    2    0    0  0.00000000000E+00  0.00000000000E+00 -0.17763568394E-14  0.91188000000E+02  0.91188000000E+02 0.  0.
    9900012    2    3    3    0    0 -0.30773607754E+02 -0.15710351778E+02 -0.12725955402E+02  0.54367081650E+02  0.39999994238E+02 0.  0.
        -12    1    3    3    0    0  0.30773607754E+02  0.15710351778E+02  0.12725955402E+02  0.36820918350E+02  0.00000000000E+00 0.  1.
         11    1    4    4    0    0  0.11689712798E+01  0.26470425319E+01 -0.21619017232E+00  0.29017350794E+01  0.51100000000E-03 0. -1.
        -11    1    4    4    0    0 -0.30113410890E+01 -0.18058216520E+02 -0.13124582789E+02  0.22526030114E+02  0.51100000000E-03 0.  1.
         12    1    4    4    0    0 -0.28931237945E+02 -0.29917778969E+00  0.61481755863E+00  0.28939316457E+02  0.00000000000E+00 0. -1.
</event>
<event>
 8    1  0.1253703E-006  0.9118800E+02  0.7816164E-02  0.1184000E+00
        -11   -1    0    0    0    0  0.00000000000E+00  0.00000000000E+00  0.45593999997E+02  0.45594000000E+02  0.51100000000E-03 0.  1.
         11   -1    0    0    0    0 -0.00000000000E+00 -0.00000000000E+00 -0.45593999997E+02  0.45594000000E+02  0.51100000000E-03 0. -1.
         23    2    1    2    0    0 -0.88817841970E-15  0.00000000000E+00  0.00000000000E+00  0.91188000000E+02  0.91188000000E+02 0.  0.
    9900012    2    3    3    0    0 -0.42560668867E+01 -0.14286533685E+02 -0.33668387811E+02  0.54367088986E+02  0.40000010962E+02 0.  0.
        -12    1    3    3    0    0  0.42560668867E+01  0.14286533685E+02  0.33668387811E+02  0.36820911014E+02  0.00000000000E+00 0.  1.
         11    1    4    4    0    0 -0.52233520719E+01 -0.12273058392E+02 -0.19114341178E+02  0.23308140383E+02  0.51100000000E-03 0. -1.
        -11    1    4    4    0    0 -0.11014722194E+02 -0.59339092161E+01 -0.10048783775E+01  0.12551699662E+02  0.51100000000E-03 0.  1.
         12    1    4    4    0    0  0.11982007379E+02  0.39204339228E+01 -0.13549168255E+02  0.18507248941E+02  0.00000000000E+00 0. -1.
</event>
<event>
 8    1  0.1253703E-006  0.9118800E+02  0.7816164E-02  0.1184000E+00
        -11   -1    0    0    0    0  0.00000000000E+00  0.00000000000E+00  0.45593999997E+02  0.45594000000E+02  0.51100000000E-03 0. -1.
         11   -1    0    0    0    0 -0.00000000000E+00 -0.00000000000E+00 -0.45593999997E+02  0.45594000000E+02  0.51100000000E-03 0.  1.
         23    2    1    2    0    0  0.00000000000E+00  0.17763568394E-14  0.00000000000E+00  0.91188000000E+02  0.91188000000E+02 0.  0.
    9900012    2    3    3    0    0  0.26277629050E+01  0.88270293372E+01 -0.35650498843E+02  0.54367086750E+02  0.40000005864E+02 0.  0.
         12    1    3    3    0    0 -0.26277629050E+01 -0.88270293372E+01  0.35650498843E+02  0.36820913250E+02  0.00000000000E+00 0. -1.
         11    1    4    4    0    0  0.16772458551E+01  0.19805400000E+01 -0.96170158929E+01  0.99610585429E+01  0.51100000000E-03 0. -1.
        -11    1    4    4    0    0  0.90771422099E+01 -0.10600602274E+02 -0.19702796796E+02  0.24144719529E+02  0.51100000000E-03 0.  1.
         12    1    4    4    0    0 -0.81266251600E+01  0.17447091611E+02 -0.63306861541E+01  0.20261308679E+02  0.00000000000E+00 0. -1.
</event>
<event>
 8    1  0.1253703E-006  0.9118800E+02  0.7816164E-02  0.1184000E+00
        -11   -1    0    0    0    0  0.00000000000E+00  0.00000000000E+00  0.45593999997E+02  0.45594000000E+02  0.51100000000E-03 0.  1.
         11   -1    0    0    0    0 -0.00000000000E+00 -0.00000000000E+00 -0.45593999997E+02  0.45594000000E+02  0.51100000000E-03 0. -1.
         23    2    1    2    0    0 -0.17763568394E-14  0.00000000000E+00 -0.35527136788E-14  0.91188000000E+02  0.91188000000E+02 0.  0.
    9900012    2    3    3    0    0  0.90722770357E+01  0.21654984649E+02  0.28364216864E+02  0.54367172076E+02  0.40000200380E+02 0.  0.
         12    1    3    3    0    0 -0.90722770357E+01 -0.21654984649E+02 -0.28364216864E+02  0.36820827924E+02  0.00000000000E+00 0. -1.
         11    1    4    4    0    0 -0.81766182022E+01  0.55987261900E+00 -0.38501444574E+01  0.90550624061E+01  0.51100000000E-03 0. -1.
        -11    1    4    4    0    0  0.18786681535E+01  0.21873114225E+01 -0.18529274278E+01  0.34273992478E+01  0.51100000000E-03 0.  1.
        -12    1    4    4    0    0  0.15370227084E+02  0.18907800607E+02  0.34067288749E+02  0.41884710422E+02  0.00000000000E+00 0.  1.
</event>
<event>
 8    1  0.1253703E-006  0.9118800E+02  0.7816164E-02  0.1184000E+00
        -11   -1    0    0    0    0  0.00000000000E+00  0.00000000000E+00  0.45593999997E+02  0.45594000000E+02  0.51100000000E-03 0. -1.
         11   -1    0    0    0    0 -0.00000000000E+00 -0.00000000000E+00 -0.45593999997E+02  0.45594000000E+02  0.51100000000E-03 0.  1.
         23    2    1    2    0    0 -0.35527136788E-14  0.00000000000E+00  0.00000000000E+00  0.91188000000E+02  0.91188000000E+02 0.  0.
    9900012    2    3    3    0    0  0.31714992877E+02  0.26252026930E+01 -0.18521444430E+02  0.54367131377E+02  0.40000107600E+02 0.  0.
         12    1    3    3    0    0 -0.31714992877E+02 -0.26252026930E+01  0.18521444430E+02  0.36820868623E+02  0.00000000000E+00 0. -1.
         11    1    4    4    0    0 -0.22434583595E+01  0.58782899375E+01  0.31740270346E+01  0.70471161391E+01  0.51100000000E-03 0. -1.
        -11    1    4    4    0    0  0.19774195074E+02 -0.12792821133E+02 -0.18456858301E+02  0.29922076833E+02  0.51100000000E-03 0.  1.
        -12    1    4    4    0    0  0.14184256162E+02  0.95397338881E+01 -0.32386131638E+01  0.17397938405E+02  0.00000000000E+00 0.  1.
</event>
<event>
 8    1  0.1253703E-006  0.9118800E+02  0.7816164E-02  0.1184000E+00
        -11   -1    0    0    0    0  0.00000000000E+00  0.00000000000E+00  0.45593999997E+02  0.45594000000E+02  0.51100000000E-03 0. -1.
         11   -1    0    0    0    0 -0.00000000000E+00 -0.00000000000E+00 -0.45593999997E+02  0.45594000000E+02  0.51100000000E-03 0.  1.
         23    2    1    2    0    0  0.35527136788E-14 -0.44408920985E-15  0.00000000000E+00  0.91188000000E+02  0.91188000000E+02 0.  0.
    9900012    2    3    3    0    0  0.27435197655E+02  0.26820101307E+01  0.24410986538E+02  0.54367088652E+02  0.40000010200E+02 0.  0.
        -12    1    3    3    0    0 -0.27435197655E+02 -0.26820101307E+01 -0.24410986538E+02  0.36820911348E+02  0.00000000000E+00 0.  1.
         11    1    4    4    0    0  0.18838734174E+02 -0.36496484795E+01  0.83039506134E+01  0.20908692818E+02  0.51100000000E-03 0. -1.
        -11    1    4    4    0    0  0.30856550612E+01  0.69099927993E+01  0.23231377901E+02  0.24432891501E+02  0.51100000000E-03 0.  1.
        -12    1    4    4    0    0  0.55108084205E+01 -0.57833418910E+00 -0.71243419766E+01  0.90255043339E+01  0.00000000000E+00 0.  1.
</event>
<event>
 8    1  0.1253703E-006  0.9118800E+02  0.7816164E-02  0.1184000E+00
        -11   -1    0    0    0    0  0.00000000000E+00  0.00000000000E+00  0.45593999997E+02  0.45594000000E+02  0.51100000000E-03 0. -1.
         11   -1    0    0    0    0 -0.00000000000E+00 -0.00000000000E+00 -0.45593999997E+02  0.45594000000E+02  0.51100000000E-03 0.  1.
         23    2    1    2    0    0  0.00000000000E+00  0.88817841970E-15  0.00000000000E+00  0.91188000000E+02  0.91188000000E+02 0.  0.
    9900012    2    3    3    0    0  0.23263691509E+02  0.33763793476E+01 -0.28340428328E+02  0.54367093467E+02  0.40000021176E+02 0.  0.
        -12    1    3    3    0    0 -0.23263691509E+02 -0.33763793476E+01  0.28340428328E+02  0.36820906533E+02  0.00000000000E+00 0.  1.
         11    1    4    4    0    0 -0.48282357853E+01  0.38872433869E+01 -0.65783672256E+01  0.90386634833E+01  0.51100000000E-03 0. -1.
        -11    1    4    4    0    0 -0.18756887972E+01  0.74556136866E+01 -0.44765927608E+00  0.77009598750E+01  0.51100000000E-03 0.  1.
        -12    1    4    4    0    0  0.29967616092E+02 -0.79664777259E+01 -0.21314401826E+02  0.37627470109E+02  0.00000000000E+00 0.  1.
</event>
<event>
 8    1  0.1253703E-006  0.9118800E+02  0.7816164E-02  0.1184000E+00
        -11   -1    0    0    0    0  0.00000000000E+00  0.00000000000E+00  0.45593999997E+02  0.45594000000E+02  0.51100000000E-03 0.  1.
         11   -1    0    0    0    0 -0.00000000000E+00 -0.00000000000E+00 -0.45593999997E+02  0.45594000000E+02  0.51100000000E-03 0. -1.
         23    2    1    2    0    0  0.35527136788E-14  0.00000000000E+00  0.00000000000E+00  0.91188000000E+02  0.91188000000E+02 0.  0.
    9900012    2    3    3    0    0 -0.29578418126E+02  0.51743097946E+01 -0.21310177094E+02  0.54367082732E+02  0.39999996704E+02 0.  0.
        -12    1    3    3    0    0  0.29578418126E+02 -0.51743097946E+01  0.21310177094E+02  0.36820917268E+02  0.00000000000E+00 0.  1.
         11    1    4    4    0    0 -0.38453719281E+00  0.94128509650E+01 -0.16386100747E+02  0.18901162136E+02  0.51100000000E-03 0. -1.
        -11    1    4    4    0    0 -0.88240151725E+00  0.20558549499E+01  0.44542913057E+01  0.49845645056E+01  0.51100000000E-03 0.  1.
        -12    1    4    4    0    0 -0.28311479416E+02 -0.62943961202E+01 -0.93783676520E+01  0.30481356090E+02  0.00000000000E+00 0.  1.
</event>
<event>
 8    1  0.1253703E-006  0.9118800E+02  0.7816164E-02  0.1184000E+00
        -11   -1    0    0    0    0  0.00000000000E+00  0.00000000000E+00  0.45593999997E+02  0.45594000000E+02  0.51100000000E-03 0. -1.
         11   -1    0    0    0    0 -0.00000000000E+00 -0.00000000000E+00 -0.45593999997E+02  0.45594000000E+02  0.51100000000E-03 0.  1.
         23    2    1    2    0    0  0.44408920985E-15  0.00000000000E+00 -0.17763568394E-14  0.91188000000E+02  0.91188000000E+02 0.  0.
    9900012    2    3    3    0    0 -0.29127617133E+01  0.34312029670E+02 -0.13037820706E+02  0.54367023239E+02  0.39999861078E+02 0.  0.
         12    1    3    3    0    0  0.29127617133E+01 -0.34312029670E+02  0.13037820706E+02  0.36820976761E+02  0.00000000000E+00 0. -1.
         11    1    4    4    0    0  0.19034195366E+01 -0.13644698634E+01  0.22577966602E+01  0.32530647027E+01  0.51100000000E-03 0. -1.
        -11    1    4    4    0    0 -0.30823211684E+01  0.36472689337E+02 -0.92204712688E+00  0.36614313354E+02  0.51100000000E-03 0.  1.
        -12    1    4    4    0    0 -0.17338600815E+01 -0.79618980330E+00 -0.14373570239E+02  0.14499645182E+02  0.00000000000E+00 0.  1.
</event>
<event>
 8    1  0.1253703E-006  0.9118800E+02  0.7816164E-02  0.1184000E+00
        -11   -1    0    0    0    0  0.00000000000E+00  0.00000000000E+00  0.45593999997E+02  0.45594000000E+02  0.51100000000E-03 0. -1.
         11   -1    0    0    0    0 -0.00000000000E+00 -0.00000000000E+00 -0.45593999997E+02  0.45594000000E+02  0.51100000000E-03 0.  1.
         23    2    1    2    0    0  0.00000000000E+00 -0.35527136788E-14 -0.22204460493E-14  0.91188000000E+02  0.91188000000E+02 0.  0.
    9900012    2    3    3    0    0 -0.21164505517E+02  0.29990137086E+02 -0.29038222989E+01  0.54367125484E+02  0.40000094165E+02 0.  0.
        -12    1    3    3    0    0  0.21164505517E+02 -0.29990137086E+02  0.29038222989E+01  0.36820874516E+02  0.00000000000E+00 0.  1.
         11    1    4    4    0    0 -0.13845782749E+02  0.23725109581E+02 -0.97484143432E+01  0.29148209328E+02  0.51100000000E-03 0. -1.
        -11    1    4    4    0    0 -0.15368918535E+02  0.38723212690E+01  0.39292560328E+01  0.16329041067E+02  0.51100000000E-03 0.  1.
        -12    1    4    4    0    0  0.80501957674E+01  0.23927062362E+01  0.29153360115E+01  0.88898750884E+01  0.00000000000E+00 0.  1.
</event>
<event>
 8    1  0.1253703E-006  0.9118800E+02  0.7816164E-02  0.1184000E+00
        -11   -1    0    0    0    0  0.00000000000E+00  0.00000000000E+00  0.45593999997E+02  0.45594000000E+02  0.51100000000E-03 0. -1.
         11   -1    0    0    0    0 -0.00000000000E+00 -0.00000000000E+00 -0.45593999997E+02  0.45594000000E+02  0.51100000000E-03 0.  1.
         23    2    1    2    0    0 -0.35527136788E-14  0.71054273576E-14  0.00000000000E+00  0.91188000000E+02  0.91188000000E+02 0.  0.
    9900012    2    3    3    0    0  0.19823880226E+02 -0.30503992770E+02  0.56836481699E+01  0.54367032351E+02  0.39999881850E+02 0.  0.
        -12    1    3    3    0    0 -0.19823880226E+02  0.30503992770E+02 -0.56836481699E+01  0.36820967649E+02  0.00000000000E+00 0.  1.
         11    1    4    4    0    0 -0.79177198966E+00 -0.36402641979E+01  0.36481371631E+01  0.52141472299E+01  0.51100000000E-03 0. -1.
        -11    1    4    4    0    0  0.47331785039E+01 -0.24521960921E+02  0.14454501484E+02  0.28855886047E+02  0.51100000000E-03 0.  1.
         12    1    4    4    0    0  0.15882473711E+02 -0.23417676506E+01 -0.12418990477E+02  0.20296999074E+02  0.00000000000E+00 0. -1.
</event>
<event>
 8    1  0.1253703E-006  0.9118800E+02  0.7816164E-02  0.1184000E+00
        -11   -1    0    0    0    0  0.00000000000E+00  0.00000000000E+00  0.45593999997E+02  0.45594000000E+02  0.51100000000E-03 0. -1.
         11   -1    0    0    0    0 -0.00000000000E+00 -0.00000000000E+00 -0.45593999997E+02  0.45594000000E+02  0.51100000000E-03 0.  1.
         23    2    1    2    0    0 -0.17763568394E-14  0.00000000000E+00  0.35527136788E-14  0.91188000000E+02  0.91188000000E+02 0.  0.
    9900012    2    3    3    0    0  0.92129792657E+01 -0.25758340104E+02  0.24645682577E+02  0.54367071963E+02  0.39999972153E+02 0.  0.
        -12    1    3    3    0    0 -0.92129792657E+01  0.25758340104E+02 -0.24645682577E+02  0.36820928037E+02  0.00000000000E+00 0.  1.
         11    1    4    4    0    0  0.29893223776E+01 -0.15814154502E+02  0.52276351337E+01  0.16921929566E+02  0.51100000000E-03 0. -1.
        -11    1    4    4    0    0  0.16563764418E+02 -0.50386372587E+01  0.32171713007E+01  0.17609552764E+02  0.51100000000E-03 0.  1.
        -12    1    4    4    0    0 -0.10340107530E+02 -0.49055483425E+01  0.16200876143E+02  0.19835589632E+02  0.00000000000E+00 0.  1.
</event>
<event>
 8    1  0.1253703E-006  0.9118800E+02  0.7816164E-02  0.1184000E+00
        -11   -1    0    0    0    0  0.00000000000E+00  0.00000000000E+00  0.45593999997E+02  0.45594000000E+02  0.51100000000E-03 0.  1.
         11   -1    0    0    0    0 -0.00000000000E+00 -0.00000000000E+00 -0.45593999997E+02  0.45594000000E+02  0.51100000000E-03 0. -1.
         23    2    1    2    0    0  0.00000000000E+00  0.88817841970E-15  0.00000000000E+00  0.91188000000E+02  0.91188000000E+02 0.  0.
    9900012    2    3    3    0    0 -0.35008857902E+02 -0.74742154239E+01  0.86195657697E+01  0.54367069242E+02  0.39999965951E+02 0.  0.
         12    1    3    3    0    0  0.35008857902E+02  0.74742154239E+01 -0.86195657697E+01  0.36820930758E+02  0.00000000000E+00 0. -1.
         11    1    4    4    0    0 -0.13292914912E+02  0.31926579802E+01 -0.13051604871E+02  0.18900768286E+02  0.51100000000E-03 0. -1.
        -11    1    4    4    0    0 -0.13344197734E+02 -0.63091626692E+01  0.21434675634E+02  0.26025342775E+02  0.51100000000E-03 0.  1.
        -12    1    4    4    0    0 -0.83717452568E+01 -0.43577107349E+01  0.23649500626E+00  0.94409581813E+01  0.00000000000E+00 0.  1.
</event>
<event>
 8    1  0.1253703E-006  0.9118800E+02  0.7816164E-02  0.1184000E+00
        -11   -1    0    0    0    0  0.00000000000E+00  0.00000000000E+00  0.45593999997E+02  0.45594000000E+02  0.51100000000E-03 0.  1.
         11   -1    0    0    0    0 -0.00000000000E+00 -0.00000000000E+00 -0.45593999997E+02  0.45594000000E+02  0.51100000000E-03 0. -1.
         23    2    1    2    0    0 -0.35527136788E-14  0.35527136788E-14  0.71054273576E-14  0.91188000000E+02  0.91188000000E+02 0.  0.
    9900012    2    3    3    0    0  0.91134641487E+01 -0.30620943664E+02 -0.18305256007E+02  0.54367084515E+02  0.40000000770E+02 0.  0.
        -12    1    3    3    0    0 -0.91134641487E+01  0.30620943664E+02  0.18305256007E+02  0.36820915485E+02  0.00000000000E+00 0.  1.
         11    1    4    4    0    0  0.86957627917E+01 -0.12482323216E+01 -0.30445641072E+01  0.92975128568E+01  0.51100000000E-03 0. -1.
        -11    1    4    4    0    0 -0.10532711419E+02 -0.11506138686E+02  0.45326409544E+01  0.16244201168E+02  0.51100000000E-03 0.  1.
         12    1    4    4    0    0  0.10950412777E+02 -0.17866572656E+02 -0.19793332854E+02  0.28825370490E+02  0.00000000000E+00 0. -1.
</event>
<event>
 8    1  0.1253703E-006  0.9118800E+02  0.7816164E-02  0.1184000E+00
        -11   -1    0    0    0    0  0.00000000000E+00  0.00000000000E+00  0.45593999997E+02  0.45594000000E+02  0.51100000000E-03 0.  1.
         11   -1    0    0    0    0 -0.00000000000E+00 -0.00000000000E+00 -0.45593999997E+02  0.45594000000E+02  0.51100000000E-03 0. -1.
         23    2    1    2    0    0 -0.88817841970E-15 -0.88817841970E-15  0.00000000000E+00  0.91188000000E+02  0.91188000000E+02 0.  0.
    9900012    2    3    3    0    0 -0.69109823200E+01 -0.71754192337E+01 -0.35447589360E+02  0.54367083264E+02  0.39999997917E+02 0.  0.
        -12    1    3    3    0    0  0.69109823200E+01  0.71754192337E+01  0.35447589360E+02  0.36820916736E+02  0.00000000000E+00 0.  1.
         11    1    4    4    0    0  0.91730289673E+01 -0.42106206535E+01 -0.50130307406E+01  0.11269616861E+02  0.51100000000E-03 0. -1.
        -11    1    4    4    0    0 -0.31173727106E+01 -0.93126986079E+01 -0.46476971087E+00  0.98316010457E+01  0.51100000000E-03 0.  1.
         12    1    4    4    0    0 -0.12966638577E+02  0.63479000277E+01 -0.29969788909E+02  0.33265865358E+02  0.00000000000E+00 0. -1.
</event>
<event>
 8    1  0.1253703E-006  0.9118800E+02  0.7816164E-02  0.1184000E+00
        -11   -1    0    0    0    0  0.00000000000E+00  0.00000000000E+00  0.45593999997E+02  0.45594000000E+02  0.51100000000E-03 0. -1.
         11   -1    0    0    0    0 -0.00000000000E+00 -0.00000000000E+00 -0.45593999997E+02  0.45594000000E+02  0.51100000000E-03 0.  1.
         23    2    1    2    0    0  0.17763568394E-14  0.00000000000E+00  0.00000000000E+00  0.91188000000E+02  0.91188000000E+02 0.  0.
    9900012    2    3    3    0    0 -0.82855798481E+01 -0.22640195730E+02 -0.27830751184E+02  0.54367081929E+02  0.39999994874E+02 0.  0.
         12    1    3    3    0    0  0.82855798481E+01  0.22640195730E+02  0.27830751184E+02  0.36820918071E+02  0.00000000000E+00 0. -1.
         11    1    4    4    0    0  0.85505440768E+01 -0.46715201248E+01  0.10116717633E+01  0.97958350488E+01  0.51100000000E-03 0. -1.
        -11    1    4    4    0    0 -0.18890584748E+02 -0.79534193500E+01 -0.92826051296E+01  0.22500618430E+02  0.51100000000E-03 0.  1.
         12    1    4    4    0    0  0.20544608235E+01 -0.10015256255E+02 -0.19559817818E+02  0.22070628450E+02  0.00000000000E+00 0. -1.
</event>
<event>
 8    1  0.1253703E-006  0.9118800E+02  0.7816164E-02  0.1184000E+00
        -11   -1    0    0    0    0  0.00000000000E+00  0.00000000000E+00  0.45593999997E+02  0.45594000000E+02  0.51100000000E-03 0.  1.
         11   -1    0    0    0    0 -0.00000000000E+00 -0.00000000000E+00 -0.45593999997E+02  0.45594000000E+02  0.51100000000E-03 0. -1.
         23    2    1    2    0    0  0.00000000000E+00  0.35527136788E-14  0.00000000000E+00  0.91188000000E+02  0.91188000000E+02 0.  0.
    9900012    2    3    3    0    0 -0.24286170747E+02  0.17626563664E+02 -0.21336985095E+02  0.54367071588E+02  0.39999971299E+02 0.  0.
        -12    1    3    3    0    0  0.24286170747E+02 -0.17626563664E+02  0.21336985095E+02  0.36820928412E+02  0.00000000000E+00 0.  1.
         11    1    4    4    0    0 -0.14997246275E+02 -0.13526203288E+01 -0.10803182038E+02  0.18532558377E+02  0.51100000000E-03 0. -1.
        -11    1    4    4    0    0  0.37483686826E+01  0.14957929300E+02  0.39688554654E+01  0.15922993773E+02  0.51100000000E-03 0.  1.
        -12    1    4    4    0    0 -0.13037293155E+02  0.40212546925E+01 -0.14502658523E+02  0.19911519438E+02  0.00000000000E+00 0.  1.
</event>
<event>
 8    1  0.1253703E-006  0.9118800E+02  0.7816164E-02  0.1184000E+00
        -11   -1    0    0    0    0  0.00000000000E+00  0.00000000000E+00  0.45593999997E+02  0.45594000000E+02  0.51100000000E-03 0.  1.
         11   -1    0    0    0    0 -0.00000000000E+00 -0.00000000000E+00 -0.45593999997E+02  0.45594000000E+02  0.51100000000E-03 0. -1.
         23    2    1    2    0    0  0.35527136788E-14 -0.35527136788E-14 -0.35527136788E-14  0.91188000000E+02  0.91188000000E+02 0.  0.
    9900012    2    3    3    0    0 -0.25695851392E+02  0.19466278525E+02  0.17792270128E+02  0.54367113880E+02  0.40000067711E+02 0.  0.
        -12    1    3    3    0    0  0.25695851392E+02 -0.19466278525E+02 -0.17792270128E+02  0.36820886120E+02  0.00000000000E+00 0.  1.
         11    1    4    4    0    0 -0.31690523882E+01  0.32777993621E+00 -0.39672795282E+01  0.50881863018E+01  0.51100000000E-03 0. -1.
        -11    1    4    4    0    0  0.83661196432E+01  0.70636372939E+01  0.40177501366E+01  0.11663157640E+02  0.51100000000E-03 0.  1.
         12    1    4    4    0    0 -0.30892918647E+02  0.12074861295E+02  0.17741799520E+02  0.37615769938E+02  0.00000000000E+00 0. -1.
</event>
<event>
 8    1  0.1253703E-006  0.9118800E+02  0.7816164E-02  0.1184000E+00
        -11   -1    0    0    0    0  0.00000000000E+00  0.00000000000E+00  0.45593999997E+02  0.45594000000E+02  0.51100000000E-03 0.  1.
         11   -1    0    0    0    0 -0.00000000000E+00 -0.00000000000E+00 -0.45593999997E+02  0.45594000000E+02  0.51100000000E-03 0. -1.
         23    2    1    2    0    0  0.35527136788E-14 -0.35527136788E-14  0.00000000000E+00  0.91188000000E+02  0.91188000000E+02 0.  0.
    9900012    2    3    3    0    0  0.15207748564E+02 -0.21529716535E+02 -0.25709440142E+02  0.54367087154E+02  0.40000006784E+02 0.  0.
        -12    1    3    3    0    0 -0.15207748564E+02  0.21529716535E+02  0.25709440142E+02  0.36820912846E+02  0.00000000000E+00 0.  1.
         11    1    4    4    0    0  0.88271089278E+01 -0.22712299031E+02 -0.31454428072E+02  0.39788785165E+02  0.51100000000E-03 0.  1.
        -11    1    4    4    0    0  0.65325404344E+01  0.44384077610E+01 -0.86033356989E-01  0.78981611771E+01  0.51100000000E-03 0. -1.
        -12    1    4    4    0    0 -0.15190079858E+00 -0.32558252648E+01  0.58310212874E+01  0.66801408115E+01  0.00000000000E+00 0.  1.
</event>
<event>
 8    1  0.1253703E-006  0.9118800E+02  0.7816164E-02  0.1184000E+00
        -11   -1    0    0    0    0  0.00000000000E+00  0.00000000000E+00  0.45593999997E+02  0.45594000000E+02  0.51100000000E-03 0.  1.
         11   -1    0    0    0    0 -0.00000000000E+00 -0.00000000000E+00 -0.45593999997E+02  0.45594000000E+02  0.51100000000E-03 0. -1.
         23    2    1    2    0    0  0.00000000000E+00  0.35527136788E-14  0.00000000000E+00  0.91188000000E+02  0.91188000000E+02 0.  0.
    9900012    2    3    3    0    0 -0.11498571788E+02  0.28066698811E+02  0.20876348304E+02  0.54367100312E+02  0.40000036781E+02 0.  0.
         12    1    3    3    0    0  0.11498571788E+02 -0.28066698811E+02 -0.20876348304E+02  0.36820899688E+02  0.00000000000E+00 0. -1.
         11    1    4    4    0    0 -0.15070731743E+02  0.10154102327E+02  0.13773005442E+01  0.18224426092E+02  0.51100000000E-03 0. -1.
        -11    1    4    4    0    0  0.20484397816E+01  0.23615370541E+02  0.11908973703E+02  0.26527447790E+02  0.51100000000E-03 0.  1.
         12    1    4    4    0    0  0.15237201738E+01 -0.57027740567E+01  0.75900740569E+01  0.96152264299E+01  0.00000000000E+00 0. -1.
</event>
<event>
 8    1  0.1253703E-006  0.9118800E+02  0.7816164E-02  0.1184000E+00
        -11   -1    0    0    0    0  0.00000000000E+00  0.00000000000E+00  0.45593999997E+02  0.45594000000E+02  0.51100000000E-03 0. -1.
         11   -1    0    0    0    0 -0.00000000000E+00 -0.00000000000E+00 -0.45593999997E+02  0.45594000000E+02  0.51100000000E-03 0.  1.
         23    2    1    2    0    0 -0.17763568394E-14 -0.88817841970E-15  0.71054273576E-14  0.91188000000E+02  0.91188000000E+02 0.  0.
    9900012    2    3    3    0    0 -0.13672448934E+02  0.42071576623E+01  0.33928610575E+02  0.54366991716E+02  0.39999789216E+02 0.  0.
        -12    1    3    3    0    0  0.13672448934E+02 -0.42071576623E+01 -0.33928610575E+02  0.36821008284E+02  0.00000000000E+00 0.  1.
         11    1    4    4    0    0  0.37057235136E+00 -0.88480581081E+01  0.17118733513E+02  0.19273725470E+02  0.51100000000E-03 0. -1.
        -11    1    4    4    0    0 -0.10144943926E+02  0.18989744381E+02  0.17786048032E+02  0.27926220363E+02  0.51100000000E-03 0.  1.
        -12    1    4    4    0    0 -0.38980773591E+01 -0.59345286103E+01 -0.97617097010E+00  0.71670458829E+01  0.00000000000E+00 0.  1.
</event>
<event>
 8    1  0.1253703E-006  0.9118800E+02  0.7816164E-02  0.1184000E+00
        -11   -1    0    0    0    0  0.00000000000E+00  0.00000000000E+00  0.45593999997E+02  0.45594000000E+02  0.51100000000E-03 0.  1.
         11   -1    0    0    0    0 -0.00000000000E+00 -0.00000000000E+00 -0.45593999997E+02  0.45594000000E+02  0.51100000000E-03 0. -1.
         23    2    1    2    0    0  0.00000000000E+00  0.17763568394E-14 -0.71054273576E-14  0.91188000000E+02  0.91188000000E+02 0.  0.
    9900012    2    3    3    0    0  0.37051173980E+01  0.47880291773E+01 -0.36319774366E+02  0.54367093869E+02  0.40000022092E+02 0.  0.
        -12    1    3    3    0    0 -0.37051173980E+01 -0.47880291773E+01  0.36319774366E+02  0.36820906131E+02  0.00000000000E+00 0.  1.
         11    1    4    4    0    0 -0.77933377637E+01 -0.12913078254E+02 -0.23395963778E+02  0.27836214269E+02  0.51100000000E-03 0.  1.
        -11    1    4    4    0    0  0.37032839726E+01  0.13574769563E+02 -0.59078295234E+01  0.15260770977E+02  0.51100000000E-03 0. -1.
         12    1    4    4    0    0  0.77951711891E+01  0.41263378685E+01 -0.70159810647E+01  0.11270108623E+02  0.00000000000E+00 0. -1.
</event>
<event>
 8    1  0.1253703E-006  0.9118800E+02  0.7816164E-02  0.1184000E+00
        -11   -1    0    0    0    0  0.00000000000E+00  0.00000000000E+00  0.45593999997E+02  0.45594000000E+02  0.51100000000E-03 0. -1.
         11   -1    0    0    0    0 -0.00000000000E+00 -0.00000000000E+00 -0.45593999997E+02  0.45594000000E+02  0.51100000000E-03 0.  1.
         23    2    1    2    0    0  0.17763568394E-14 -0.71054273576E-14  0.00000000000E+00  0.91188000000E+02  0.91188000000E+02 0.  0.
    9900012    2    3    3    0    0  0.85344901664E+01 -0.31835232029E+02 -0.16415240610E+02  0.54367086853E+02  0.40000006098E+02 0.  0.
         12    1    3    3    0    0 -0.85344901664E+01  0.31835232029E+02  0.16415240610E+02  0.36820913147E+02  0.00000000000E+00 0. -1.
         11    1    4    4    0    0 -0.45694777351E+01 -0.18358330886E+01 -0.10665746533E+02  0.11747704426E+02  0.51100000000E-03 0. -1.
        -11    1    4    4    0    0  0.14239494802E+02 -0.12801207179E+02 -0.13793923657E+02  0.23598865387E+02  0.51100000000E-03 0.  1.
         12    1    4    4    0    0 -0.11355269002E+01 -0.17198191761E+02  0.80444295800E+01  0.19020517040E+02  0.00000000000E+00 0. -1.
</event>
<event>
 8    1  0.1253703E-006  0.9118800E+02  0.7816164E-02  0.1184000E+00
        -11   -1    0    0    0    0  0.00000000000E+00  0.00000000000E+00  0.45593999997E+02  0.45594000000E+02  0.51100000000E-03 0.  1.
         11   -1    0    0    0    0 -0.00000000000E+00 -0.00000000000E+00 -0.45593999997E+02  0.45594000000E+02  0.51100000000E-03 0. -1.
         23    2    1    2    0    0  0.00000000000E+00  0.00000000000E+00  0.00000000000E+00  0.91188000000E+02  0.91188000000E+02 0.  0.
    9900012    2    3    3    0    0 -0.35980013564E+02 -0.65238023921E+01  0.43196466535E+01  0.54367072242E+02  0.39999972791E+02 0.  0.
         12    1    3    3    0    0  0.35980013564E+02  0.65238023921E+01 -0.43196466535E+01  0.36820927758E+02  0.00000000000E+00 0. -1.
         11    1    4    4    0    0  0.22597768804E+01 -0.28466507400E+01 -0.61547665566E+01  0.71478083083E+01  0.51100000000E-03 0. -1.
        -11    1    4    4    0    0  0.25633247340E+01  0.31998416274E+01  0.32117260571E+01  0.52081479107E+01  0.51100000000E-03 0.  1.
        -12    1    4    4    0    0 -0.40803115179E+02 -0.68769932795E+01  0.72626871530E+01  0.42011116023E+02  0.00000000000E+00 0.  1.
</event>
<event>
 8    1  0.1253703E-006  0.9118800E+02  0.7816164E-02  0.1184000E+00
        -11   -1    0    0    0    0  0.00000000000E+00  0.00000000000E+00  0.45593999997E+02  0.45594000000E+02  0.51100000000E-03 0.  1.
         11   -1    0    0    0    0 -0.00000000000E+00 -0.00000000000E+00 -0.45593999997E+02  0.45594000000E+02  0.51100000000E-03 0. -1.
         23    2    1    2    0    0 -0.17763568394E-14 -0.35527136788E-14  0.00000000000E+00  0.91188000000E+02  0.91188000000E+02 0.  0.
    9900012    2    3    3    0    0 -0.15477749181E+01 -0.15413027627E+02  0.33404160500E+02  0.54366878798E+02  0.39999531793E+02 0.  0.
         12    1    3    3    0    0  0.15477749181E+01  0.15413027627E+02 -0.33404160500E+02  0.36821121202E+02  0.00000000000E+00 0. -1.
         11    1    4    4    0    0  0.10475623078E+02 -0.22494074737E+00  0.14456978042E+01  0.10577302095E+02  0.51100000000E-03 0. -1.
        -11    1    4    4    0    0  0.53255904123E+01 -0.10756644491E+02  0.13751256401E+02  0.18252790658E+02  0.51100000000E-03 0.  1.
         12    1    4    4    0    0 -0.17348988408E+02 -0.44314423890E+01  0.18207206295E+02  0.25536786045E+02  0.00000000000E+00 0. -1.
</event>
<event>
 8    1  0.1253703E-006  0.9118800E+02  0.7816164E-02  0.1184000E+00
        -11   -1    0    0    0    0  0.00000000000E+00  0.00000000000E+00  0.45593999997E+02  0.45594000000E+02  0.51100000000E-03 0. -1.
         11   -1    0    0    0    0 -0.00000000000E+00 -0.00000000000E+00 -0.45593999997E+02  0.45594000000E+02  0.51100000000E-03 0.  1.
         23    2    1    2    0    0 -0.17763568394E-14  0.17763568394E-14  0.71054273576E-14  0.91188000000E+02  0.91188000000E+02 0.  0.
    9900012    2    3    3    0    0 -0.86259543821E+01  0.12981579293E+02  0.33359432419E+02  0.54367079028E+02  0.39999988260E+02 0.  0.
        -12    1    3    3    0    0  0.86259543821E+01 -0.12981579293E+02 -0.33359432419E+02  0.36820920972E+02  0.00000000000E+00 0.  1.
         11    1    4    4    0    0  0.19675120370E+01  0.16811211644E+01 -0.19150618439E+00  0.25949849450E+01  0.51100000000E-03 0. -1.
        -11    1    4    4    0    0  0.74201451269E+01  0.14256718791E+00 -0.41658278529E+01  0.85107579609E+01  0.51100000000E-03 0.  1.
         12    1    4    4    0    0 -0.18013611546E+02  0.11157890941E+02  0.37716766456E+02  0.43261336122E+02  0.00000000000E+00 0. -1.
</event>
<event>
 8    1  0.1253703E-006  0.9118800E+02  0.7816164E-02  0.1184000E+00
        -11   -1    0    0    0    0  0.00000000000E+00  0.00000000000E+00  0.45593999997E+02  0.45594000000E+02  0.51100000000E-03 0.  1.
         11   -1    0    0    0    0 -0.00000000000E+00 -0.00000000000E+00 -0.45593999997E+02  0.45594000000E+02  0.51100000000E-03 0. -1.
         23    2    1    2    0    0  0.00000000000E+00  0.00000000000E+00  0.00000000000E+00  0.91188000000E+02  0.91188000000E+02 0.  0.
    9900012    2    3    3    0    0 -0.54973135161E+01 -0.36644997723E+01  0.36223357444E+02  0.54367073355E+02  0.39999975328E+02 0.  0.
         12    1    3    3    0    0  0.54973135161E+01  0.36644997723E+01 -0.36223357444E+02  0.36820926645E+02  0.00000000000E+00 0. -1.
         11    1    4    4    0    0 -0.90443921000E+01 -0.13367869171E+02  0.18108972632E+02  0.24257696607E+02  0.51100000000E-03 0. -1.
        -11    1    4    4    0    0  0.43451951162E+01  0.22029555547E+01 -0.42763241589E+01  0.64823361797E+01  0.51100000000E-03 0.  1.
        -12    1    4    4    0    0 -0.79811653230E+00  0.75004138437E+01  0.22390708970E+02  0.23627040568E+02  0.00000000000E+00 0.  1.
</event>
<event>
 8    1  0.1253703E-006  0.9118800E+02  0.7816164E-02  0.1184000E+00
        -11   -1    0    0    0    0  0.00000000000E+00  0.00000000000E+00  0.45593999997E+02  0.45594000000E+02  0.51100000000E-03 0.  1.
         11   -1    0    0    0    0 -0.00000000000E+00 -0.00000000000E+00 -0.45593999997E+02  0.45594000000E+02  0.51100000000E-03 0. -1.
         23    2    1    2    0    0  0.00000000000E+00  0.11102230246E-14  0.00000000000E+00  0.91188000000E+02  0.91188000000E+02 0.  0.
    9900012    2    3    3    0    0 -0.36127056692E+02 -0.13542272620E+01  0.69844380191E+01  0.54367074820E+02  0.39999978666E+02 0.  0.
         12    1    3    3    0    0  0.36127056692E+02  0.13542272620E+01 -0.69844380191E+01  0.36820925180E+02  0.00000000000E+00 0. -1.
         11    1    4    4    0    0 -0.43510393064E+01  0.40717012670E+01 -0.76541593597E+01  0.97003324695E+01  0.51100000000E-03 0. -1.
        -11    1    4    4    0    0 -0.33710180424E+02 -0.87838101059E+01  0.62031069937E+01  0.35383755041E+02  0.51100000000E-03 0.  1.
        -12    1    4    4    0    0  0.19341630381E+01  0.33578815769E+01  0.84354903852E+01  0.92829873091E+01  0.00000000000E+00 0.  1.
</event>
<event>
 8    1  0.1253703E-006  0.9118800E+02  0.7816164E-02  0.1184000E+00
        -11   -1    0    0    0    0  0.00000000000E+00  0.00000000000E+00  0.45593999997E+02  0.45594000000E+02  0.51100000000E-03 0.  1.
         11   -1    0    0    0    0 -0.00000000000E+00 -0.00000000000E+00 -0.45593999997E+02  0.45594000000E+02  0.51100000000E-03 0. -1.
         23    2    1    2    0    0  0.35527136788E-14  0.00000000000E+00  0.00000000000E+00  0.91188000000E+02  0.91188000000E+02 0.  0.
    9900012    2    3    3    0    0 -0.27112279046E+02  0.16748978121E+02 -0.18443872477E+02  0.54367076938E+02  0.39999983496E+02 0.  0.
         12    1    3    3    0    0  0.27112279046E+02 -0.16748978121E+02  0.18443872477E+02  0.36820923062E+02  0.00000000000E+00 0. -1.
         11    1    4    4    0    0 -0.22190237551E+02  0.57161206337E+01 -0.13124253385E+02  0.26406944254E+02  0.51100000000E-03 0. -1.
        -11    1    4    4    0    0  0.24333883638E+01  0.94567487227E+01 -0.13619657178E+02  0.16758476579E+02  0.51100000000E-03 0.  1.
        -12    1    4    4    0    0 -0.73554298594E+01  0.15761087649E+01  0.83000380871E+01  0.11201656105E+02  0.00000000000E+00 0.  1.
</event>
<event>
 8    1  0.1253703E-006  0.9118800E+02  0.7816164E-02  0.1184000E+00
        -11   -1    0    0    0    0  0.00000000000E+00  0.00000000000E+00  0.45593999997E+02  0.45594000000E+02  0.51100000000E-03 0.  1.
         11   -1    0    0    0    0 -0.00000000000E+00 -0.00000000000E+00 -0.45593999997E+02  0.45594000000E+02  0.51100000000E-03 0. -1.
         23    2    1    2    0    0  0.00000000000E+00  0.35527136788E-14  0.17763568394E-14  0.91188000000E+02  0.91188000000E+02 0.  0.
    9900012    2    3    3    0    0  0.24227258617E+02  0.25994088163E+02  0.96502355138E+01  0.54367085766E+02  0.40000003621E+02 0.  0.
         12    1    3    3    0    0 -0.24227258617E+02 -0.25994088163E+02 -0.96502355138E+01  0.36820914234E+02  0.00000000000E+00 0. -1.
         11    1    4    4    0    0  0.59778505366E+01 -0.53354128460E+01 -0.24135795742E+00  0.80162074075E+01  0.51100000000E-03 0. -1.
        -11    1    4    4    0    0  0.15727850024E+02  0.21207996624E+01  0.20431381147E+01  0.16001170932E+02  0.51100000000E-03 0.  1.
        -12    1    4    4    0    0  0.25215580568E+01  0.29208701347E+02  0.78484553564E+01  0.30349707427E+02  0.00000000000E+00 0.  1.
</event>
<event>
 8    1  0.1253703E-006  0.9118800E+02  0.7816164E-02  0.1184000E+00
        -11   -1    0    0    0    0  0.00000000000E+00  0.00000000000E+00  0.45593999997E+02  0.45594000000E+02  0.51100000000E-03 0. -1.
         11   -1    0    0    0    0 -0.00000000000E+00 -0.00000000000E+00 -0.45593999997E+02  0.45594000000E+02  0.51100000000E-03 0.  1.
         23    2    1    2    0    0 -0.35527136788E-14  0.00000000000E+00  0.17763568394E-14  0.91188000000E+02  0.91188000000E+02 0.  0.
    9900012    2    3    3    0    0  0.17801022315E+02  0.32190783782E+02  0.16293598094E+01  0.54367112323E+02  0.40000064162E+02 0.  0.
         12    1    3    3    0    0 -0.17801022315E+02 -0.32190783782E+02 -0.16293598094E+01  0.36820887677E+02  0.00000000000E+00 0. -1.
         11    1    4    4    0    0  0.72892760938E+01 -0.43370543159E+01 -0.39812786008E+00  0.84912950817E+01  0.51100000000E-03 0. -1.
        -11    1    4    4    0    0  0.37692677120E+01  0.18438953229E+02  0.13734383303E+02  0.23298833882E+02  0.51100000000E-03 0.  1.
        -12    1    4    4    0    0  0.67424785093E+01  0.18088884868E+02 -0.11706895634E+02  0.22576983359E+02  0.00000000000E+00 0.  1.
</event>
<event>
 8    1  0.1253703E-006  0.9118800E+02  0.7816164E-02  0.1184000E+00
        -11   -1    0    0    0    0  0.00000000000E+00  0.00000000000E+00  0.45593999997E+02  0.45594000000E+02  0.51100000000E-03 0.  1.
         11   -1    0    0    0    0 -0.00000000000E+00 -0.00000000000E+00 -0.45593999997E+02  0.45594000000E+02  0.51100000000E-03 0. -1.
         23    2    1    2    0    0  0.35527136788E-14  0.00000000000E+00  0.00000000000E+00  0.91188000000E+02  0.91188000000E+02 0.  0.
    9900012    2    3    3    0    0 -0.18520609380E+02  0.24640406975E+02 -0.20139949771E+02  0.54367079255E+02  0.39999988778E+02 0.  0.
        -12    1    3    3    0    0  0.18520609380E+02 -0.24640406975E+02  0.20139949771E+02  0.36820920745E+02  0.00000000000E+00 0.  1.
         11    1    4    4    0    0 -0.13222227124E+02  0.19579141941E+02 -0.24965230431E+02  0.34371977249E+02  0.51100000000E-03 0. -1.
        -11    1    4    4    0    0 -0.73075059125E+01 -0.49074829990E+01  0.43403283834E+01  0.98143508590E+01  0.51100000000E-03 0.  1.
         12    1    4    4    0    0  0.20091236564E+01  0.99687480333E+01  0.48495227633E+00  0.10180751148E+02  0.00000000000E+00 0. -1.
</event>
<event>
 8    1  0.1253703E-006  0.9118800E+02  0.7816164E-02  0.1184000E+00
        -11   -1    0    0    0    0  0.00000000000E+00  0.00000000000E+00  0.45593999997E+02  0.45594000000E+02  0.51100000000E-03 0.  1.
         11   -1    0    0    0    0 -0.00000000000E+00 -0.00000000000E+00 -0.45593999997E+02  0.45594000000E+02  0.51100000000E-03 0. -1.
         23    2    1    2    0    0  0.17763568394E-14 -0.35527136788E-14 -0.35527136788E-14  0.91188000000E+02  0.91188000000E+02 0.  0.
    9900012    2    3    3    0    0 -0.52740281716E+01 -0.29956733355E+02 -0.20749878654E+02  0.54367099541E+02  0.40000035024E+02 0.  0.
        -12    1    3    3    0    0  0.52740281716E+01  0.29956733355E+02  0.20749878654E+02  0.36820900459E+02  0.00000000000E+00 0.  1.
         11    1    4    4    0    0  0.96285511713E+01 -0.11928955785E+02 -0.15217486038E+02  0.21600482989E+02  0.51100000000E-03 0. -1.
        -11    1    4    4    0    0 -0.11397228165E+02  0.23307471467E+01 -0.17170003764E+01  0.11759136136E+02  0.51100000000E-03 0.  1.
         12    1    4    4    0    0 -0.35053511781E+01 -0.20358524717E+02 -0.38153922398E+01  0.21007480417E+02  0.00000000000E+00 0. -1.
</event>
<event>
 8    1  0.1253703E-006  0.9118800E+02  0.7816164E-02  0.1184000E+00
        -11   -1    0    0    0    0  0.00000000000E+00  0.00000000000E+00  0.45593999997E+02  0.45594000000E+02  0.51100000000E-03 0. -1.
         11   -1    0    0    0    0 -0.00000000000E+00 -0.00000000000E+00 -0.45593999997E+02  0.45594000000E+02  0.51100000000E-03 0.  1.
         23    2    1    2    0    0  0.00000000000E+00  0.00000000000E+00  0.00000000000E+00  0.91188000000E+02  0.91188000000E+02 0.  0.
    9900012    2    3    3    0    0  0.19529252658E+02 -0.11998015699E+02 -0.28817342949E+02  0.54367036613E+02  0.39999891567E+02 0.  0.
         12    1    3    3    0    0 -0.19529252658E+02  0.11998015699E+02  0.28817342949E+02  0.36820963387E+02  0.00000000000E+00 0. -1.
         11    1    4    4    0    0  0.19634135621E+02 -0.19904204607E+01 -0.20526968085E+01  0.19841235336E+02  0.51100000000E-03 0. -1.
        -11    1    4    4    0    0 -0.96173496621E+01 -0.33165598853E+01 -0.12051018434E+02  0.15770860140E+02  0.51100000000E-03 0.  1.
        -12    1    4    4    0    0  0.95124666985E+01 -0.66910353525E+01 -0.14713627707E+02  0.18754941138E+02  0.00000000000E+00 0.  1.
</event>
<event>
 8    1  0.1253703E-006  0.9118800E+02  0.7816164E-02  0.1184000E+00
        -11   -1    0    0    0    0  0.00000000000E+00  0.00000000000E+00  0.45593999997E+02  0.45594000000E+02  0.51100000000E-03 0.  1.
         11   -1    0    0    0    0 -0.00000000000E+00 -0.00000000000E+00 -0.45593999997E+02  0.45594000000E+02  0.51100000000E-03 0. -1.
         23    2    1    2    0    0  0.00000000000E+00  0.00000000000E+00  0.00000000000E+00  0.91188000000E+02  0.91188000000E+02 0.  0.
    9900012    2    3    3    0    0 -0.23606966024E+02  0.90029879444E+01  0.26785024860E+02  0.54367079405E+02  0.39999989119E+02 0.  0.
         12    1    3    3    0    0  0.23606966024E+02 -0.90029879444E+01 -0.26785024860E+02  0.36820920595E+02  0.00000000000E+00 0. -1.
         11    1    4    4    0    0  0.50211424974E+00  0.10313579043E+02  0.93744958516E+01  0.13946440554E+02  0.51100000000E-03 0. -1.
        -11    1    4    4    0    0 -0.17608553415E+02  0.99090522631E+01  0.18516993270E+02  0.27406742057E+02  0.51100000000E-03 0.  1.
        -12    1    4    4    0    0 -0.65005268581E+01 -0.11219643362E+02 -0.11064642622E+01  0.13013896794E+02  0.00000000000E+00 0.  1.
</event>
<event>
 8    1  0.1253703E-006  0.9118800E+02  0.7816164E-02  0.1184000E+00
        -11   -1    0    0    0    0  0.00000000000E+00  0.00000000000E+00  0.45593999997E+02  0.45594000000E+02  0.51100000000E-03 0.  1.
         11   -1    0    0    0    0 -0.00000000000E+00 -0.00000000000E+00 -0.45593999997E+02  0.45594000000E+02  0.51100000000E-03 0. -1.
         23    2    1    2    0    0 -0.17763568394E-14 -0.71054273576E-14  0.00000000000E+00  0.91188000000E+02  0.91188000000E+02 0.  0.
    9900012    2    3    3    0    0 -0.56769410540E+01  0.33712309206E+02 -0.13675973375E+02  0.54367086113E+02  0.40000004413E+02 0.  0.
         12    1    3    3    0    0  0.56769410540E+01 -0.33712309206E+02  0.13675973375E+02  0.36820913887E+02  0.00000000000E+00 0. -1.
         11    1    4    4    0    0  0.14213681481E+02  0.13173878657E+02  0.29497498517E+01  0.19603082527E+02  0.51100000000E-03 0. -1.
        -11    1    4    4    0    0 -0.17921359615E+01  0.87381041824E+01 -0.45718706758E+01  0.10023383548E+02  0.51100000000E-03 0.  1.
         12    1    4    4    0    0 -0.18098486573E+02  0.11800326366E+02 -0.12053852551E+02  0.24740620039E+02  0.00000000000E+00 0. -1.
</event>
<event>
 8    1  0.1253703E-006  0.9118800E+02  0.7816164E-02  0.1184000E+00
        -11   -1    0    0    0    0  0.00000000000E+00  0.00000000000E+00  0.45593999997E+02  0.45594000000E+02  0.51100000000E-03 0.  1.
         11   -1    0    0    0    0 -0.00000000000E+00 -0.00000000000E+00 -0.45593999997E+02  0.45594000000E+02  0.51100000000E-03 0. -1.
         23    2    1    2    0    0  0.88817841970E-15  0.00000000000E+00  0.00000000000E+00  0.91188000000E+02  0.91188000000E+02 0.  0.
    9900012    2    3    3    0    0 -0.42395277916E+01  0.36497806168E+02 -0.23912311513E+01  0.54367062513E+02  0.39999950612E+02 0.  0.
        -12    1    3    3    0    0  0.42395277916E+01 -0.36497806168E+02  0.23912311513E+01  0.36820937487E+02  0.00000000000E+00 0.  1.
         11    1    4    4    0    0 -0.12028975457E+02  0.94289775030E+00 -0.18291623435E+01  0.12203734751E+02  0.51100000000E-03 0. -1.
        -11    1    4    4    0    0  0.10206166966E+02  0.31621029593E+02 -0.72764938736E+01  0.34014742687E+02  0.51100000000E-03 0.  1.
        -12    1    4    4    0    0 -0.24167193000E+01  0.39338788243E+01  0.67144250658E+01  0.81485850761E+01  0.00000000000E+00 0.  1.
</event>
<event>
 8    1  0.1253703E-006  0.9118800E+02  0.7816164E-02  0.1184000E+00
        -11   -1    0    0    0    0  0.00000000000E+00  0.00000000000E+00  0.45593999997E+02  0.45594000000E+02  0.51100000000E-03 0. -1.
         11   -1    0    0    0    0 -0.00000000000E+00 -0.00000000000E+00 -0.45593999997E+02  0.45594000000E+02  0.51100000000E-03 0.  1.
         23    2    1    2    0    0 -0.35527136788E-14  0.00000000000E+00  0.00000000000E+00  0.91188000000E+02  0.91188000000E+02 0.  0.
    9900012    2    3    3    0    0  0.25629315798E+02  0.94444570948E+01  0.24692514703E+02  0.54367083656E+02  0.39999998810E+02 0.  0.
        -12    1    3    3    0    0 -0.25629315798E+02 -0.94444570948E+01 -0.24692514703E+02  0.36820916344E+02  0.00000000000E+00 0.  1.
         11    1    4    4    0    0  0.14741652023E+02  0.20804707607E+01  0.32469049594E+01  0.15237685357E+02  0.51100000000E-03 0. -1.
        -11    1    4    4    0    0  0.12716190638E+02  0.15638241291E+02  0.52144750113E+01  0.20819386276E+02  0.51100000000E-03 0.  1.
         12    1    4    4    0    0 -0.18285268628E+01 -0.82742549572E+01  0.16231134732E+02  0.18310012023E+02  0.00000000000E+00 0. -1.
</event>
<event>
 8    1  0.1253703E-006  0.9118800E+02  0.7816164E-02  0.1184000E+00
        -11   -1    0    0    0    0  0.00000000000E+00  0.00000000000E+00  0.45593999997E+02  0.45594000000E+02  0.51100000000E-03 0.  1.
         11   -1    0    0    0    0 -0.00000000000E+00 -0.00000000000E+00 -0.45593999997E+02  0.45594000000E+02  0.51100000000E-03 0. -1.
         23    2    1    2    0    0  0.00000000000E+00  0.00000000000E+00  0.00000000000E+00  0.91188000000E+02  0.91188000000E+02 0.  0.
    9900012    2    3    3    0    0  0.63701473437E+01 -0.33707748593E+02  0.13378670857E+02  0.54367083033E+02  0.39999997391E+02 0.  0.
        -12    1    3    3    0    0 -0.63701473437E+01  0.33707748593E+02 -0.13378670857E+02  0.36820916967E+02  0.00000000000E+00 0.  1.
         11    1    4    4    0    0  0.71057579706E+01 -0.16150777351E+02 -0.10249906837E+02  0.20405881402E+02  0.51100000000E-03 0. -1.
        -11    1    4    4    0    0  0.80792940300E+01 -0.92467171441E+01  0.11868566789E+02  0.17077460229E+02  0.51100000000E-03 0.  1.
        -12    1    4    4    0    0 -0.88149046569E+01 -0.83102540976E+01  0.11760010904E+02  0.16883741402E+02  0.00000000000E+00 0.  1.
</event>
<event>
 8    1  0.1253703E-006  0.9118800E+02  0.7816164E-02  0.1184000E+00
        -11   -1    0    0    0    0  0.00000000000E+00  0.00000000000E+00  0.45593999997E+02  0.45594000000E+02  0.51100000000E-03 0.  1.
         11   -1    0    0    0    0 -0.00000000000E+00 -0.00000000000E+00 -0.45593999997E+02  0.45594000000E+02  0.51100000000E-03 0. -1.
         23    2    1    2    0    0  0.00000000000E+00  0.17763568394E-14  0.35527136788E-14  0.91188000000E+02  0.91188000000E+02 0.  0.
    9900012    2    3    3    0    0  0.19159149567E+02 -0.15378209607E+02 -0.27426568233E+02  0.54367095776E+02  0.40000026439E+02 0.  0.
        -12    1    3    3    0    0 -0.19159149567E+02  0.15378209607E+02  0.27426568233E+02  0.36820904224E+02  0.00000000000E+00 0.  1.
         11    1    4    4    0    0  0.12480667036E+02 -0.13988697347E+02 -0.31181474924E+02  0.36383170310E+02  0.51100000000E-03 0. -1.
        -11    1    4    4    0    0 -0.25851450152E+01 -0.35005206971E+01 -0.38529467755E+01  0.58122129190E+01  0.51100000000E-03 0.  1.
        -12    1    4    4    0    0  0.92636275464E+01  0.21110084364E+01  0.76078534666E+01  0.12171712546E+02  0.00000000000E+00 0.  1.
</event>
<event>
 8    1  0.1253703E-006  0.9118800E+02  0.7816164E-02  0.1184000E+00
        -11   -1    0    0    0    0  0.00000000000E+00  0.00000000000E+00  0.45593999997E+02  0.45594000000E+02  0.51100000000E-03 0. -1.
         11   -1    0    0    0    0 -0.00000000000E+00 -0.00000000000E+00 -0.45593999997E+02  0.45594000000E+02  0.51100000000E-03 0.  1.
         23    2    1    2    0    0 -0.44408920985E-15  0.00000000000E+00  0.00000000000E+00  0.91188000000E+02  0.91188000000E+02 0.  0.
    9900012    2    3    3    0    0  0.64347304233E+00 -0.58171296083E+01 -0.36352840901E+02  0.54367053570E+02  0.39999930224E+02 0.  0.
         12    1    3    3    0    0 -0.64347304233E+00  0.58171296083E+01  0.36352840901E+02  0.36820946430E+02  0.00000000000E+00 0. -1.
         11    1    4    4    0    0 -0.54937693970E+01  0.14649669199E+01  0.20999811556E+01  0.60611509946E+01  0.51100000000E-03 0. -1.
        -11    1    4    4    0    0  0.16145610604E+02 -0.97388781825E+01 -0.23161482634E+02  0.29866047078E+02  0.51100000000E-03 0.  1.
         12    1    4    4    0    0 -0.10008368165E+02  0.24567816544E+01 -0.15291339423E+02  0.18439855497E+02  0.00000000000E+00 0. -1.
</event>
<event>
 8    1  0.1253703E-006  0.9118800E+02  0.7816164E-02  0.1184000E+00
        -11   -1    0    0    0    0  0.00000000000E+00  0.00000000000E+00  0.45593999997E+02  0.45594000000E+02  0.51100000000E-03 0.  1.
         11   -1    0    0    0    0 -0.00000000000E+00 -0.00000000000E+00 -0.45593999997E+02  0.45594000000E+02  0.51100000000E-03 0. -1.
         23    2    1    2    0    0 -0.88817841970E-15  0.00000000000E+00  0.00000000000E+00  0.91188000000E+02  0.91188000000E+02 0.  0.
    9900012    2    3    3    0    0  0.40254753845E+01 -0.24199502169E+02 -0.27458332640E+02  0.54367076754E+02  0.39999983076E+02 0.  0.
        -12    1    3    3    0    0 -0.40254753845E+01  0.24199502169E+02  0.27458332640E+02  0.36820923246E+02  0.00000000000E+00 0.  1.
         11    1    4    4    0    0 -0.61504240006E+00 -0.38628999641E+01 -0.14432917766E+01  0.41693362422E+01  0.51100000000E-03 0. -1.
        -11    1    4    4    0    0  0.20153074350E+02 -0.12875139377E+02 -0.22059956572E+02  0.32535477620E+02  0.51100000000E-03 0.  1.
        -12    1    4    4    0    0 -0.15512556565E+02 -0.74614628272E+01 -0.39550842918E+01  0.17662262892E+02  0.00000000000E+00 0.  1.
</event>
<event>
 8    1  0.1253703E-006  0.9118800E+02  0.7816164E-02  0.1184000E+00
        -11   -1    0    0    0    0  0.00000000000E+00  0.00000000000E+00  0.45593999997E+02  0.45594000000E+02  0.51100000000E-03 0. -1.
         11   -1    0    0    0    0 -0.00000000000E+00 -0.00000000000E+00 -0.45593999997E+02  0.45594000000E+02  0.51100000000E-03 0.  1.
         23    2    1    2    0    0  0.00000000000E+00  0.00000000000E+00  0.00000000000E+00  0.91188000000E+02  0.91188000000E+02 0.  0.
    9900012    2    3    3    0    0 -0.45353912685E+01  0.32188954270E+02 -0.17294054902E+02  0.54367042844E+02  0.39999905770E+02 0.  0.
         12    1    3    3    0    0  0.45353912685E+01 -0.32188954270E+02  0.17294054902E+02  0.36820957156E+02  0.00000000000E+00 0. -1.
         11    1    4    4    0    0  0.64170810270E+01  0.31726782972E+02 -0.57397117344E+01  0.32874184062E+02  0.51100000000E-03 0.  1.
        -11    1    4    4    0    0 -0.10199871503E+02  0.31187160114E+01 -0.14138938741E+02  0.17710825989E+02  0.51100000000E-03 0. -1.
         12    1    4    4    0    0 -0.75260079241E+00 -0.26565447133E+01  0.25845955736E+01  0.37820327928E+01  0.00000000000E+00 0. -1.
</event>
<event>
 8    1  0.1253703E-006  0.9118800E+02  0.7816164E-02  0.1184000E+00
        -11   -1    0    0    0    0  0.00000000000E+00  0.00000000000E+00  0.45593999997E+02  0.45594000000E+02  0.51100000000E-03 0.  1.
         11   -1    0    0    0    0 -0.00000000000E+00 -0.00000000000E+00 -0.45593999997E+02  0.45594000000E+02  0.51100000000E-03 0. -1.
         23    2    1    2    0    0  0.71054273576E-14 -0.88817841970E-15  0.00000000000E+00  0.91188000000E+02  0.91188000000E+02 0.  0.
    9900012    2    3    3    0    0 -0.32575391068E+02  0.46062185556E+01 -0.16534978634E+02  0.54367097362E+02  0.40000030057E+02 0.  0.
         12    1    3    3    0    0  0.32575391068E+02 -0.46062185556E+01  0.16534978634E+02  0.36820902638E+02  0.00000000000E+00 0. -1.
         11    1    4    4    0    0 -0.10218798079E+02  0.84514690196E+01 -0.17616348259E+02  0.22049646006E+02  0.51100000000E-03 0. -1.
        -11    1    4    4    0    0 -0.26380355555E+02 -0.68650441389E+01  0.62852669512E+00  0.27266225194E+02  0.51100000000E-03 0.  1.
        -12    1    4    4    0    0  0.40237625656E+01  0.30197936748E+01  0.45284292969E+00  0.50512261622E+01  0.00000000000E+00 0.  1.
</event>
<event>
 8    1  0.1253703E-006  0.9118800E+02  0.7816164E-02  0.1184000E+00
        -11   -1    0    0    0    0  0.00000000000E+00  0.00000000000E+00  0.45593999997E+02  0.45594000000E+02  0.51100000000E-03 0. -1.
         11   -1    0    0    0    0 -0.00000000000E+00 -0.00000000000E+00 -0.45593999997E+02  0.45594000000E+02  0.51100000000E-03 0.  1.
         23    2    1    2    0    0  0.00000000000E+00  0.71054273576E-14 -0.35527136788E-14  0.91188000000E+02  0.91188000000E+02 0.  0.
    9900012    2    3    3    0    0  0.67277284811E+01  0.32752893960E+02 -0.15419662542E+02  0.54367076788E+02  0.39999983154E+02 0.  0.
         12    1    3    3    0    0 -0.67277284811E+01 -0.32752893960E+02  0.15419662542E+02  0.36820923212E+02  0.00000000000E+00 0. -1.
         11    1    4    4    0    0 -0.32405332311E+01  0.31514952703E+01  0.26678095191E+01  0.52488271025E+01  0.51100000000E-03 0. -1.
        -11    1    4    4    0    0  0.14665989153E+02  0.34973667456E+02 -0.18004913123E+02  0.41981252363E+02  0.51100000000E-03 0.  1.
        -12    1    4    4    0    0 -0.46977274409E+01 -0.53722687661E+01 -0.82558937681E-01  0.71369973226E+01  0.00000000000E+00 0.  1.
</event>
<event>
 8    1  0.1253703E-006  0.9118800E+02  0.7816164E-02  0.1184000E+00
        -11   -1    0    0    0    0  0.00000000000E+00  0.00000000000E+00  0.45593999997E+02  0.45594000000E+02  0.51100000000E-03 0.  1.
         11   -1    0    0    0    0 -0.00000000000E+00 -0.00000000000E+00 -0.45593999997E+02  0.45594000000E+02  0.51100000000E-03 0. -1.
         23    2    1    2    0    0  0.00000000000E+00  0.00000000000E+00  0.35527136788E-14  0.91188000000E+02  0.91188000000E+02 0.  0.
    9900012    2    3    3    0    0  0.79516911883E+01  0.26657119590E+02  0.24123602163E+02  0.54367087479E+02  0.40000007525E+02 0.  0.
         12    1    3    3    0    0 -0.79516911883E+01 -0.26657119590E+02 -0.24123602163E+02  0.36820912521E+02  0.00000000000E+00 0. -1.
         11    1    4    4    0    0  0.14180711223E+02  0.15572978732E+02 -0.55445633048E+01  0.21779633144E+02  0.51100000000E-03 0. -1.
        -11    1    4    4    0    0 -0.10660607739E+01 -0.15306895301E+00  0.17811581715E+01  0.20814515058E+01  0.51100000000E-03 0.  1.
         12    1    4    4    0    0 -0.51629592610E+01  0.11237209811E+02  0.27887007296E+02  0.30506002829E+02  0.00000000000E+00 0. -1.
</event>
<event>
 8    1  0.1253703E-006  0.9118800E+02  0.7816164E-02  0.1184000E+00
        -11   -1    0    0    0    0  0.00000000000E+00  0.00000000000E+00  0.45593999997E+02  0.45594000000E+02  0.51100000000E-03 0.  1.
         11   -1    0    0    0    0 -0.00000000000E+00 -0.00000000000E+00 -0.45593999997E+02  0.45594000000E+02  0.51100000000E-03 0. -1.
         23    2    1    2    0    0  0.00000000000E+00 -0.35527136788E-14  0.00000000000E+00  0.91188000000E+02  0.91188000000E+02 0.  0.
    9900012    2    3    3    0    0 -0.19668518810E+02 -0.20334226975E+02  0.23567954126E+02  0.54367083654E+02  0.39999998807E+02 0.  0.
         12    1    3    3    0    0  0.19668518810E+02  0.20334226975E+02 -0.23567954126E+02  0.36820916346E+02  0.00000000000E+00 0. -1.
         11    1    4    4    0    0 -0.10972422177E+02 -0.15056386503E+00 -0.66789653240E+01  0.12846217185E+02  0.51100000000E-03 0. -1.
        -11    1    4    4    0    0 -0.10071372316E+02 -0.11138991845E+02  0.28489468846E+02  0.32204961031E+02  0.51100000000E-03 0.  1.
         12    1    4    4    0    0  0.13752756832E+01 -0.90446712651E+01  0.17574506040E+01  0.93159054377E+01  0.00000000000E+00 0. -1.
</event>
<event>
 8    1  0.1253703E-006  0.9118800E+02  0.7816164E-02  0.1184000E+00
        -11   -1    0    0    0    0  0.00000000000E+00  0.00000000000E+00  0.45593999997E+02  0.45594000000E+02  0.51100000000E-03 0.  1.
         11   -1    0    0    0    0 -0.00000000000E+00 -0.00000000000E+00 -0.45593999997E+02  0.45594000000E+02  0.51100000000E-03 0. -1.
         23    2    1    2    0    0  0.00000000000E+00  0.22204460493E-15 -0.17763568394E-14  0.91188000000E+02  0.91188000000E+02 0.  0.
    9900012    2    3    3    0    0  0.33725375317E+02  0.15206147381E+01 -0.14699233508E+02  0.54367072864E+02  0.39999974207E+02 0.  0.
         12    1    3    3    0    0 -0.33725375317E+02 -0.15206147381E+01  0.14699233508E+02  0.36820927136E+02  0.00000000000E+00 0. -1.
         11    1    4    4    0    0  0.20607470432E+02 -0.84386483589E+01 -0.63271324394E+01  0.23149756562E+02  0.51100000000E-03 0. -1.
        -11    1    4    4    0    0  0.84668776322E+01  0.18402535740E+02 -0.72385598344E+01  0.21511347871E+02  0.51100000000E-03 0.  1.
        -12    1    4    4    0    0  0.46510272536E+01 -0.84432726431E+01 -0.11335412339E+01  0.97059684302E+01  0.00000000000E+00 0.  1.
</event>
<event>
 8    1  0.1253703E-006  0.9118800E+02  0.7816164E-02  0.1184000E+00
        -11   -1    0    0    0    0  0.00000000000E+00  0.00000000000E+00  0.45593999997E+02  0.45594000000E+02  0.51100000000E-03 0.  1.
         11   -1    0    0    0    0 -0.00000000000E+00 -0.00000000000E+00 -0.45593999997E+02  0.45594000000E+02  0.51100000000E-03 0. -1.
         23    2    1    2    0    0  0.00000000000E+00  0.88817841970E-15  0.35527136788E-14  0.91188000000E+02  0.91188000000E+02 0.  0.
    9900012    2    3    3    0    0 -0.16384841344E+02  0.79651324441E+01  0.31997998424E+02  0.54367105607E+02  0.40000048853E+02 0.  0.
         12    1    3    3    0    0  0.16384841344E+02 -0.79651324441E+01 -0.31997998424E+02  0.36820894393E+02  0.00000000000E+00 0. -1.
         11    1    4    4    0    0  0.82906099977E+01 -0.65001843009E+01  0.11928424019E+02  0.15914581676E+02  0.51100000000E-03 0. -1.
        -11    1    4    4    0    0 -0.31609816423E+01 -0.13982094167E+01 -0.18168940973E+01  0.39048558153E+01  0.51100000000E-03 0.  1.
        -12    1    4    4    0    0 -0.21514469699E+02  0.15863526162E+02  0.21886468502E+02  0.34547668116E+02  0.00000000000E+00 0.  1.
</event>
<event>
 8    1  0.1253703E-006  0.9118800E+02  0.7816164E-02  0.1184000E+00
        -11   -1    0    0    0    0  0.00000000000E+00  0.00000000000E+00  0.45593999997E+02  0.45594000000E+02  0.51100000000E-03 0.  1.
         11   -1    0    0    0    0 -0.00000000000E+00 -0.00000000000E+00 -0.45593999997E+02  0.45594000000E+02  0.51100000000E-03 0. -1.
         23    2    1    2    0    0  0.00000000000E+00  0.00000000000E+00  0.00000000000E+00  0.91188000000E+02  0.91188000000E+02 0.  0.
    9900012    2    3    3    0    0 -0.27298115549E+02 -0.10041756865E+02 -0.22577754764E+02  0.54367095561E+02  0.40000025951E+02 0.  0.
        -12    1    3    3    0    0  0.27298115549E+02  0.10041756865E+02  0.22577754764E+02  0.36820904439E+02  0.00000000000E+00 0.  1.
         11    1    4    4    0    0 -0.65042070746E+01 -0.13243084728E+02  0.15178001981E+01  0.14831983026E+02  0.51100000000E-03 0. -1.
        -11    1    4    4    0    0  0.27772820569E+01 -0.55427533732E+01 -0.45396049459E+01  0.76839718835E+01  0.51100000000E-03 0.  1.
        -12    1    4    4    0    0 -0.23571190532E+02  0.87440812364E+01 -0.19555950016E+02  0.31851140651E+02  0.00000000000E+00 0.  1.
</event>
<event>
 8    1  0.1253703E-006  0.9118800E+02  0.7816164E-02  0.1184000E+00
        -11   -1    0    0    0    0  0.00000000000E+00  0.00000000000E+00  0.45593999997E+02  0.45594000000E+02  0.51100000000E-03 0.  1.
         11   -1    0    0    0    0 -0.00000000000E+00 -0.00000000000E+00 -0.45593999997E+02  0.45594000000E+02  0.51100000000E-03 0. -1.
         23    2    1    2    0    0  0.00000000000E+00 -0.17763568394E-14  0.17763568394E-14  0.91188000000E+02  0.91188000000E+02 0.  0.
    9900012    2    3    3    0    0  0.33783414292E+02  0.81350217084E+01 -0.12177113058E+02  0.54367085538E+02  0.40000003101E+02 0.  0.
        -12    1    3    3    0    0 -0.33783414292E+02 -0.81350217084E+01  0.12177113058E+02  0.36820914462E+02  0.00000000000E+00 0.  1.
         11    1    4    4    0    0  0.39205045263E+01  0.37154702916E+01  0.58024782777E+01  0.79274100217E+01  0.51100000000E-03 0. -1.
        -11    1    4    4    0    0  0.16299635632E+01  0.12474864550E+02 -0.98418472887E+01  0.15973133226E+02  0.51100000000E-03 0.  1.
         12    1    4    4    0    0  0.28232946202E+02 -0.80553131329E+01 -0.81377440466E+01  0.30466542290E+02  0.00000000000E+00 0. -1.
</event>
<event>
 8    1  0.1253703E-006  0.9118800E+02  0.7816164E-02  0.1184000E+00
        -11   -1    0    0    0    0  0.00000000000E+00  0.00000000000E+00  0.45593999997E+02  0.45594000000E+02  0.51100000000E-03 0. -1.
         11   -1    0    0    0    0 -0.00000000000E+00 -0.00000000000E+00 -0.45593999997E+02  0.45594000000E+02  0.51100000000E-03 0.  1.
         23    2    1    2    0    0 -0.13322676296E-14  0.00000000000E+00  0.00000000000E+00  0.91188000000E+02  0.91188000000E+02 0.  0.
    9900012    2    3    3    0    0 -0.35074675583E+01 -0.34554834543E+02  0.12224628089E+02  0.54367075909E+02  0.39999981151E+02 0.  0.
        -12    1    3    3    0    0  0.35074675583E+01  0.34554834543E+02 -0.12224628089E+02  0.36820924091E+02  0.00000000000E+00 0.  1.
         11    1    4    4    0    0  0.14806777901E+02 -0.12202199478E+02 -0.11379240448E+01  0.19220541494E+02  0.51100000000E-03 0. -1.
        -11    1    4    4    0    0 -0.64743726053E+01  0.24781559297E+00  0.53545066187E+01  0.84053348886E+01  0.51100000000E-03 0.  1.
        -12    1    4    4    0    0 -0.11839872855E+02 -0.22600450659E+02  0.80080455151E+01  0.26741199527E+02  0.00000000000E+00 0.  1.
</event>
<event>
 8    1  0.1253703E-006  0.9118800E+02  0.7816164E-02  0.1184000E+00
        -11   -1    0    0    0    0  0.00000000000E+00  0.00000000000E+00  0.45593999997E+02  0.45594000000E+02  0.51100000000E-03 0.  1.
         11   -1    0    0    0    0 -0.00000000000E+00 -0.00000000000E+00 -0.45593999997E+02  0.45594000000E+02  0.51100000000E-03 0. -1.
         23    2    1    2    0    0 -0.35527136788E-14  0.17763568394E-14  0.00000000000E+00  0.91188000000E+02  0.91188000000E+02 0.  0.
    9900012    2    3    3    0    0  0.28507323263E+02 -0.12635560636E+02 -0.19581987925E+02  0.54367093937E+02  0.40000022248E+02 0.  0.
        -12    1    3    3    0    0 -0.28507323263E+02  0.12635560636E+02  0.19581987925E+02  0.36820906063E+02  0.00000000000E+00 0.  1.
         11    1    4    4    0    0  0.14918151890E+02  0.48412923512E+01 -0.32395103339E+01  0.16015111455E+02  0.51100000000E-03 0. -1.
        -11    1    4    4    0    0  0.15728043470E+02 -0.21576426625E+02 -0.65041851881E+01  0.27481229276E+02  0.51100000000E-03 0.  1.
         12    1    4    4    0    0 -0.21388720975E+01  0.40995736372E+01 -0.98382924031E+01  0.10870753206E+02  0.00000000000E+00 0. -1.
</event>
<event>
 8    1  0.1253703E-006  0.9118800E+02  0.7816164E-02  0.1184000E+00
        -11   -1    0    0    0    0  0.00000000000E+00  0.00000000000E+00  0.45593999997E+02  0.45594000000E+02  0.51100000000E-03 0.  1.
         11   -1    0    0    0    0 -0.00000000000E+00 -0.00000000000E+00 -0.45593999997E+02  0.45594000000E+02  0.51100000000E-03 0. -1.
         23    2    1    2    0    0  0.44408920985E-15  0.00000000000E+00  0.00000000000E+00  0.91188000000E+02  0.91188000000E+02 0.  0.
    9900012    2    3    3    0    0 -0.24661251121E+01 -0.23272054485E+02 -0.28427246338E+02  0.54367100672E+02  0.40000037601E+02 0.  0.
        -12    1    3    3    0    0  0.24661251121E+01  0.23272054485E+02  0.28427246338E+02  0.36820899328E+02  0.00000000000E+00 0.  1.
         11    1    4    4    0    0 -0.35371627693E+01 -0.27318163437E+02 -0.27899520597E+02  0.39206846645E+02  0.51100000000E-03 0. -1.
        -11    1    4    4    0    0 -0.46927842957E+01 -0.10932554512E+00 -0.49253517050E+01  0.68039155050E+01  0.51100000000E-03 0.  1.
         12    1    4    4    0    0  0.57638219529E+01  0.41554344979E+01  0.43976259641E+01  0.83563385218E+01  0.00000000000E+00 0. -1.
</event>
<event>
 8    1  0.1253703E-006  0.9118800E+02  0.7816164E-02  0.1184000E+00
        -11   -1    0    0    0    0  0.00000000000E+00  0.00000000000E+00  0.45593999997E+02  0.45594000000E+02  0.51100000000E-03 0. -1.
         11   -1    0    0    0    0 -0.00000000000E+00 -0.00000000000E+00 -0.45593999997E+02  0.45594000000E+02  0.51100000000E-03 0.  1.
         23    2    1    2    0    0 -0.88817841970E-15  0.00000000000E+00  0.14210854715E-13  0.91188000000E+02  0.91188000000E+02 0.  0.
    9900012    2    3    3    0    0 -0.30543217145E+01 -0.93773637528E+01  0.35475560342E+02  0.54367092710E+02  0.40000019451E+02 0.  0.
        -12    1    3    3    0    0  0.30543217145E+01  0.93773637528E+01 -0.35475560342E+02  0.36820907290E+02  0.00000000000E+00 0.  1.
         11    1    4    4    0    0  0.28709313910E+01 -0.38433655585E+01  0.22606444026E+01  0.53032272481E+01  0.51100000000E-03 0. -1.
        -11    1    4    4    0    0 -0.16076037344E+01 -0.92418543527E+01 -0.48607652380E+01  0.10565192881E+02  0.51100000000E-03 0.  1.
         12    1    4    4    0    0 -0.43176493712E+01  0.37078561585E+01  0.38075681177E+02  0.38498672581E+02  0.00000000000E+00 0. -1.
</event>
<event>
 8    1  0.1253703E-006  0.9118800E+02  0.7816164E-02  0.1184000E+00
        -11   -1    0    0    0    0  0.00000000000E+00  0.00000000000E+00  0.45593999997E+02  0.45594000000E+02  0.51100000000E-03 0.  1.
         11   -1    0    0    0    0 -0.00000000000E+00 -0.00000000000E+00 -0.45593999997E+02  0.45594000000E+02  0.51100000000E-03 0. -1.
         23    2    1    2    0    0  0.17763568394E-14  0.00000000000E+00  0.00000000000E+00  0.91188000000E+02  0.91188000000E+02 0.  0.
    9900012    2    3    3    0    0  0.11816579651E+02 -0.16916591115E+02 -0.30495549129E+02  0.54367066738E+02  0.39999960244E+02 0.  0.
        -12    1    3    3    0    0 -0.11816579651E+02  0.16916591115E+02  0.30495549129E+02  0.36820933262E+02  0.00000000000E+00 0.  1.
         11    1    4    4    0    0 -0.72628454038E+01  0.80083891248E+01 -0.62464514074E+01  0.12486047220E+02  0.51100000000E-03 0. -1.
        -11    1    4    4    0    0  0.41082766438E+01 -0.15097320811E+02 -0.74618619850E+01  0.17334544043E+02  0.51100000000E-03 0.  1.
         12    1    4    4    0    0  0.14971148411E+02 -0.98276594289E+01 -0.16787235736E+02  0.24546475475E+02  0.00000000000E+00 0. -1.
</event>
<event>
 8    1  0.1253703E-006  0.9118800E+02  0.7816164E-02  0.1184000E+00
        -11   -1    0    0    0    0  0.00000000000E+00  0.00000000000E+00  0.45593999997E+02  0.45594000000E+02  0.51100000000E-03 0.  1.
         11   -1    0    0    0    0 -0.00000000000E+00 -0.00000000000E+00 -0.45593999997E+02  0.45594000000E+02  0.51100000000E-03 0. -1.
         23    2    1    2    0    0  0.17763568394E-14 -0.11102230246E-15  0.00000000000E+00  0.91188000000E+02  0.91188000000E+02 0.  0.
    9900012    2    3    3    0    0 -0.15767699648E+02 -0.54762233873E+00 -0.33269481151E+02  0.54367100792E+02  0.40000037875E+02 0.  0.
        -12    1    3    3    0    0  0.15767699648E+02  0.54762233873E+00  0.33269481151E+02  0.36820899208E+02  0.00000000000E+00 0.  1.
         11    1    4    4    0    0 -0.35501725865E+00  0.96227189580E+01 -0.15384781776E+01  0.97513933755E+01  0.51100000000E-03 0. -1.
        -11    1    4    4    0    0 -0.18343059968E+02  0.19285310293E+01 -0.15071388138E+02  0.23818770363E+02  0.51100000000E-03 0.  1.
         12    1    4    4    0    0  0.29303775788E+01 -0.12098872326E+02 -0.16659614836E+02  0.20796937053E+02  0.00000000000E+00 0. -1.
</event>
<event>
 8    1  0.1253703E-006  0.9118800E+02  0.7816164E-02  0.1184000E+00
        -11   -1    0    0    0    0  0.00000000000E+00  0.00000000000E+00  0.45593999997E+02  0.45594000000E+02  0.51100000000E-03 0.  1.
         11   -1    0    0    0    0 -0.00000000000E+00 -0.00000000000E+00 -0.45593999997E+02  0.45594000000E+02  0.51100000000E-03 0. -1.
         23    2    1    2    0    0  0.62450045135E-15  0.00000000000E+00  0.00000000000E+00  0.91188000000E+02  0.91188000000E+02 0.  0.
    9900012    2    3    3    0    0  0.12013323325E+00 -0.13646347059E+02  0.34198579871E+02  0.54367080874E+02  0.39999992469E+02 0.  0.
         12    1    3    3    0    0 -0.12013323325E+00  0.13646347059E+02 -0.34198579871E+02  0.36820919126E+02  0.00000000000E+00 0. -1.
         11    1    4    4    0    0 -0.52040060536E+01  0.27925040971E+01 -0.15454130801E+01  0.61047571604E+01  0.51100000000E-03 0. -1.
        -11    1    4    4    0    0 -0.53700228872E+01 -0.37598834044E+01  0.30001916797E+02  0.30709752210E+02  0.51100000000E-03 0.  1.
        -12    1    4    4    0    0  0.10694162174E+02 -0.12678967752E+02  0.57420761543E+01  0.17552571504E+02  0.00000000000E+00 0.  1.
</event>
<event>
 8    1  0.1253703E-006  0.9118800E+02  0.7816164E-02  0.1184000E+00
        -11   -1    0    0    0    0  0.00000000000E+00  0.00000000000E+00  0.45593999997E+02  0.45594000000E+02  0.51100000000E-03 0.  1.
         11   -1    0    0    0    0 -0.00000000000E+00 -0.00000000000E+00 -0.45593999997E+02  0.45594000000E+02  0.51100000000E-03 0. -1.
         23    2    1    2    0    0  0.35527136788E-14  0.00000000000E+00  0.00000000000E+00  0.91188000000E+02  0.91188000000E+02 0.  0.
    9900012    2    3    3    0    0  0.23273032724E+02  0.18312872558E+02 -0.21881168398E+02  0.54367070029E+02  0.39999967745E+02 0.  0.
        -12    1    3    3    0    0 -0.23273032724E+02 -0.18312872558E+02  0.21881168398E+02  0.36820929971E+02  0.00000000000E+00 0.  1.
         11    1    4    4    0    0 -0.48050487987E+01  0.19623018569E+01 -0.12126805223E+02  0.13190850151E+02  0.51100000000E-03 0. -1.
        -11    1    4    4    0    0  0.51098168759E+01 -0.43351828031E+01  0.34813841591E+01  0.75514286308E+01  0.51100000000E-03 0.  1.
         12    1    4    4    0    0  0.22968264646E+02  0.20685753504E+02 -0.13235747334E+02  0.33624791247E+02  0.00000000000E+00 0. -1.
</event>
<event>
 8    1  0.1253703E-006  0.9118800E+02  0.7816164E-02  0.1184000E+00
        -11   -1    0    0    0    0  0.00000000000E+00  0.00000000000E+00  0.45593999997E+02  0.45594000000E+02  0.51100000000E-03 0. -1.
         11   -1    0    0    0    0 -0.00000000000E+00 -0.00000000000E+00 -0.45593999997E+02  0.45594000000E+02  0.51100000000E-03 0.  1.
         23    2    1    2    0    0  0.00000000000E+00  0.00000000000E+00  0.26645352591E-14  0.91188000000E+02  0.91188000000E+02 0.  0.
    9900012    2    3    3    0    0 -0.28867981057E+02  0.22469015385E+02 -0.41906298044E+01  0.54367104291E+02  0.40000045852E+02 0.  0.
        -12    1    3    3    0    0  0.28867981057E+02 -0.22469015385E+02  0.41906298044E+01  0.36820895709E+02  0.00000000000E+00 0.  1.
         11    1    4    4    0    0 -0.15467881445E+02  0.59439991394E+01 -0.13188559555E+02  0.21178399032E+02  0.51100000000E-03 0. -1.
        -11    1    4    4    0    0 -0.80735739308E+01  0.94044581366E+01 -0.74712042850E+01  0.14472225903E+02  0.51100000000E-03 0.  1.
         12    1    4    4    0    0 -0.53265256806E+01  0.71205581086E+01  0.16469134035E+02  0.18716479356E+02  0.00000000000E+00 0. -1.
</event>
<event>
 8    1  0.1253703E-006  0.9118800E+02  0.7816164E-02  0.1184000E+00
        -11   -1    0    0    0    0  0.00000000000E+00  0.00000000000E+00  0.45593999997E+02  0.45594000000E+02  0.51100000000E-03 0. -1.
         11   -1    0    0    0    0 -0.00000000000E+00 -0.00000000000E+00 -0.45593999997E+02  0.45594000000E+02  0.51100000000E-03 0.  1.
         23    2    1    2    0    0  0.00000000000E+00  0.00000000000E+00 -0.71054273576E-14  0.91188000000E+02  0.91188000000E+02 0.  0.
    9900012    2    3    3    0    0  0.10260777647E+02  0.81072762130E+01 -0.34420459802E+02  0.54367088299E+02  0.40000009396E+02 0.  0.
         12    1    3    3    0    0 -0.10260777647E+02 -0.81072762130E+01  0.34420459802E+02  0.36820911701E+02  0.00000000000E+00 0. -1.
         11    1    4    4    0    0  0.13686450254E+02  0.80231065243E+01 -0.66981468011E+01  0.17220752878E+02  0.51100000000E-03 0. -1.
        -11    1    4    4    0    0 -0.68373380124E+01 -0.89204226868E+01 -0.46834339052E+01  0.12176111260E+02  0.51100000000E-03 0.  1.
        -12    1    4    4    0    0  0.34116654050E+01  0.90045923756E+01 -0.23038879096E+02  0.24970224161E+02  0.00000000000E+00 0.  1.
</event>
<event>
 8    1  0.1253703E-006  0.9118800E+02  0.7816164E-02  0.1184000E+00
        -11   -1    0    0    0    0  0.00000000000E+00  0.00000000000E+00  0.45593999997E+02  0.45594000000E+02  0.51100000000E-03 0. -1.
         11   -1    0    0    0    0 -0.00000000000E+00 -0.00000000000E+00 -0.45593999997E+02  0.45594000000E+02  0.51100000000E-03 0.  1.
         23    2    1    2    0    0  0.35527136788E-14  0.00000000000E+00 -0.35527136788E-14  0.91188000000E+02  0.91188000000E+02 0.  0.
    9900012    2    3    3    0    0  0.17607105130E+02  0.21030854621E+02  0.24565685202E+02  0.54367083572E+02  0.39999998619E+02 0.  0.
        -12    1    3    3    0    0 -0.17607105130E+02 -0.21030854621E+02 -0.24565685202E+02  0.36820916428E+02  0.00000000000E+00 0.  1.
         11    1    4    4    0    0  0.12899246041E+02  0.26716941726E+02  0.30667680691E+02  0.42669569518E+02  0.51100000000E-03 0. -1.
        -11    1    4    4    0    0 -0.16207739736E+01 -0.21062074802E+01 -0.21727527419E+01  0.34327646237E+01  0.51100000000E-03 0.  1.
         12    1    4    4    0    0  0.63286330624E+01 -0.35798796254E+01 -0.39292427468E+01  0.82647494296E+01  0.00000000000E+00 0. -1.
</event>
<event>
 8    1  0.1253703E-006  0.9118800E+02  0.7816164E-02  0.1184000E+00
        -11   -1    0    0    0    0  0.00000000000E+00  0.00000000000E+00  0.45593999997E+02  0.45594000000E+02  0.51100000000E-03 0. -1.
         11   -1    0    0    0    0 -0.00000000000E+00 -0.00000000000E+00 -0.45593999997E+02  0.45594000000E+02  0.51100000000E-03 0.  1.
         23    2    1    2    0    0  0.00000000000E+00  0.00000000000E+00  0.00000000000E+00  0.91188000000E+02  0.91188000000E+02 0.  0.
    9900012    2    3    3    0    0 -0.42428361061E+01  0.11925019508E+02 -0.34577075973E+02  0.54367055807E+02  0.39999935322E+02 0.  0.
        -12    1    3    3    0    0  0.42428361061E+01 -0.11925019508E+02  0.34577075973E+02  0.36820944193E+02  0.00000000000E+00 0.  1.
         11    1    4    4    0    0 -0.32321430915E+01  0.20176553906E+02 -0.20862945130E+02  0.29202783365E+02  0.51100000000E-03 0. -1.
        -11    1    4    4    0    0 -0.43781270208E+01 -0.10791090632E+02 -0.16436831533E+02  0.20144107435E+02  0.51100000000E-03 0.  1.
         12    1    4    4    0    0  0.33674340062E+01  0.25395562336E+01  0.27227006904E+01  0.50201650071E+01  0.00000000000E+00 0. -1.
</event>
<event>
 8    1  0.1253703E-006  0.9118800E+02  0.7816164E-02  0.1184000E+00
        -11   -1    0    0    0    0  0.00000000000E+00  0.00000000000E+00  0.45593999997E+02  0.45594000000E+02  0.51100000000E-03 0.  1.
         11   -1    0    0    0    0 -0.00000000000E+00 -0.00000000000E+00 -0.45593999997E+02  0.45594000000E+02  0.51100000000E-03 0. -1.
         23    2    1    2    0    0  0.35527136788E-14  0.00000000000E+00  0.00000000000E+00  0.91188000000E+02  0.91188000000E+02 0.  0.
    9900012    2    3    3    0    0 -0.27386772971E+02  0.16140349406E+02 -0.18580495482E+02  0.54367068113E+02  0.39999963376E+02 0.  0.
        -12    1    3    3    0    0  0.27386772971E+02 -0.16140349406E+02  0.18580495482E+02  0.36820931887E+02  0.00000000000E+00 0.  1.
         11    1    4    4    0    0 -0.15235643909E+02  0.33910199628E+01 -0.20633665041E+02  0.25872224392E+02  0.51100000000E-03 0. -1.
        -11    1    4    4    0    0 -0.11280888072E+02  0.16196773203E+02  0.82160531219E+01  0.21379836928E+02  0.51100000000E-03 0.  1.
        -12    1    4    4    0    0 -0.87024098971E+00 -0.34474437598E+01 -0.61628835628E+01  0.71150067931E+01  0.00000000000E+00 0.  1.
</event>
<event>
 8    1  0.1253703E-006  0.9118800E+02  0.7816164E-02  0.1184000E+00
        -11   -1    0    0    0    0  0.00000000000E+00  0.00000000000E+00  0.45593999997E+02  0.45594000000E+02  0.51100000000E-03 0. -1.
         11   -1    0    0    0    0 -0.00000000000E+00 -0.00000000000E+00 -0.45593999997E+02  0.45594000000E+02  0.51100000000E-03 0.  1.
         23    2    1    2    0    0  0.35527136788E-14  0.44408920985E-15 -0.35527136788E-14  0.91188000000E+02  0.91188000000E+02 0.  0.
    9900012    2    3    3    0    0  0.31945205875E+02  0.20115688394E+01  0.18199917893E+02  0.54367087479E+02  0.40000007525E+02 0.  0.
         12    1    3    3    0    0 -0.31945205875E+02 -0.20115688394E+01 -0.18199917893E+02  0.36820912521E+02  0.00000000000E+00 0. -1.
         11    1    4    4    0    0  0.32729925417E+01 -0.27629122243E+01  0.12665471400E+02  0.13370128279E+02  0.51100000000E-03 0. -1.
        -11    1    4    4    0    0 -0.35533522877E+01  0.27943001953E+01 -0.52770605101E+01  0.69485101965E+01  0.51100000000E-03 0.  1.
        -12    1    4    4    0    0  0.32225565621E+02  0.19801808684E+01  0.10811507003E+02  0.34048449004E+02  0.00000000000E+00 0.  1.
</event>
<event>
 8    1  0.1253703E-006  0.9118800E+02  0.7816164E-02  0.1184000E+00
        -11   -1    0    0    0    0  0.00000000000E+00  0.00000000000E+00  0.45593999997E+02  0.45594000000E+02  0.51100000000E-03 0.  1.
         11   -1    0    0    0    0 -0.00000000000E+00 -0.00000000000E+00 -0.45593999997E+02  0.45594000000E+02  0.51100000000E-03 0. -1.
         23    2    1    2    0    0  0.00000000000E+00 -0.35527136788E-14  0.00000000000E+00  0.91188000000E+02  0.91188000000E+02 0.  0.
    9900012    2    3    3    0    0  0.26800482466E+02 -0.23629928458E+02  0.88961131123E+01  0.54367079210E+02  0.39999988674E+02 0.  0.
         12    1    3    3    0    0 -0.26800482466E+02  0.23629928458E+02 -0.88961131123E+01  0.36820920790E+02  0.00000000000E+00 0. -1.
         11    1    4    4    0    0  0.12869693809E+01  0.26542272341E+01 -0.10618755797E+01  0.31350904940E+01  0.51100000000E-03 0. -1.
        -11    1    4    4    0    0  0.50460883629E+01 -0.11762665830E+02  0.20373847799E+02  0.24060693872E+02  0.51100000000E-03 0.  1.
         12    1    4    4    0    0  0.20467424722E+02 -0.14521489862E+02 -0.10415859107E+02  0.27171294844E+02  0.00000000000E+00 0. -1.
</event>
<event>
 8    1  0.1253703E-006  0.9118800E+02  0.7816164E-02  0.1184000E+00
        -11   -1    0    0    0    0  0.00000000000E+00  0.00000000000E+00  0.45593999997E+02  0.45594000000E+02  0.51100000000E-03 0.  1.
         11   -1    0    0    0    0 -0.00000000000E+00 -0.00000000000E+00 -0.45593999997E+02  0.45594000000E+02  0.51100000000E-03 0. -1.
         23    2    1    2    0    0  0.35527136788E-14 -0.35527136788E-14  0.88817841970E-15  0.91188000000E+02  0.91188000000E+02 0.  0.
    9900012    2    3    3    0    0  0.29746787756E+02 -0.20185839854E+02  0.79648899103E+01  0.54367095833E+02  0.40000026570E+02 0.  0.
         12    1    3    3    0    0 -0.29746787756E+02  0.20185839854E+02 -0.79648899103E+01  0.36820904167E+02  0.00000000000E+00 0. -1.
         11    1    4    4    0    0  0.88931612794E+01 -0.20580084833E+02 -0.45279681696E+01  0.22872050745E+02  0.51100000000E-03 0. -1.
        -11    1    4    4    0    0 -0.83355294902E+00  0.13909326595E+01 -0.39441630399E+01  0.42644960463E+01  0.51100000000E-03 0.  1.
        -12    1    4    4    0    0  0.21687179426E+02 -0.99668767979E+00  0.16437021120E+02  0.27230549041E+02  0.00000000000E+00 0.  1.
</event>
<event>
 8    1  0.1253703E-006  0.9118800E+02  0.7816164E-02  0.1184000E+00
        -11   -1    0    0    0    0  0.00000000000E+00  0.00000000000E+00  0.45593999997E+02  0.45594000000E+02  0.51100000000E-03 0. -1.
         11   -1    0    0    0    0 -0.00000000000E+00 -0.00000000000E+00 -0.45593999997E+02  0.45594000000E+02  0.51100000000E-03 0.  1.
         23    2    1    2    0    0  0.71054273576E-14  0.17763568394E-14 -0.17763568394E-14  0.91188000000E+02  0.91188000000E+02 0.  0.
    9900012    2    3    3    0    0 -0.33940759877E+02 -0.77893542927E+01  0.11964028754E+02  0.54366984189E+02  0.39999772054E+02 0.  0.
        -12    1    3    3    0    0  0.33940759877E+02  0.77893542927E+01 -0.11964028754E+02  0.36821015811E+02  0.00000000000E+00 0.  1.
         11    1    4    4    0    0 -0.16775103075E+02 -0.54152060065E+01  0.20584365168E+02  0.27100638902E+02  0.51100000000E-03 0. -1.
        -11    1    4    4    0    0 -0.76779028612E+01  0.25295111351E+01  0.53406639730E+01  0.96887208063E+01  0.51100000000E-03 0.  1.
        -12    1    4    4    0    0 -0.94877539409E+01 -0.49036594213E+01 -0.13961000387E+02  0.17577624480E+02  0.00000000000E+00 0.  1.
</event>
<event>
 8    1  0.1253703E-006  0.9118800E+02  0.7816164E-02  0.1184000E+00
        -11   -1    0    0    0    0  0.00000000000E+00  0.00000000000E+00  0.45593999997E+02  0.45594000000E+02  0.51100000000E-03 0.  1.
         11   -1    0    0    0    0 -0.00000000000E+00 -0.00000000000E+00 -0.45593999997E+02  0.45594000000E+02  0.51100000000E-03 0. -1.
         23    2    1    2    0    0  0.00000000000E+00 -0.35527136788E-14  0.35527136788E-14  0.91188000000E+02  0.91188000000E+02 0.  0.
    9900012    2    3    3    0    0  0.21017750256E+02 -0.23711827765E+02  0.18755892728E+02  0.54367080487E+02  0.39999991586E+02 0.  0.
         12    1    3    3    0    0 -0.21017750256E+02  0.23711827765E+02 -0.18755892728E+02  0.36820919513E+02  0.00000000000E+00 0. -1.
         11    1    4    4    0    0  0.21612423267E+02 -0.71803417105E+01  0.18690354344E+02  0.29461559570E+02  0.51100000000E-03 0. -1.
        -11    1    4    4    0    0 -0.41943964579E+01  0.25357771859E+01  0.22229297183E+01  0.53818718283E+01  0.51100000000E-03 0.  1.
        -12    1    4    4    0    0  0.35997234470E+01 -0.19067263240E+02 -0.21573913340E+01  0.19523649089E+02  0.00000000000E+00 0.  1.
</event>
<event>
 8    1  0.1253703E-006  0.9118800E+02  0.7816164E-02  0.1184000E+00
        -11   -1    0    0    0    0  0.00000000000E+00  0.00000000000E+00  0.45593999997E+02  0.45594000000E+02  0.51100000000E-03 0. -1.
         11   -1    0    0    0    0 -0.00000000000E+00 -0.00000000000E+00 -0.45593999997E+02  0.45594000000E+02  0.51100000000E-03 0.  1.
         23    2    1    2    0    0  0.35527136788E-14  0.35527136788E-14  0.00000000000E+00  0.91188000000E+02  0.91188000000E+02 0.  0.
    9900012    2    3    3    0    0  0.29393226765E+02  0.12659538943E+02  0.18208571039E+02  0.54367112379E+02  0.40000064291E+02 0.  0.
        -12    1    3    3    0    0 -0.29393226765E+02 -0.12659538943E+02 -0.18208571039E+02  0.36820887621E+02  0.00000000000E+00 0.  1.
         11    1    4    4    0    0  0.22191324130E+02  0.16088126415E+02  0.11337416457E+02  0.29661754675E+02  0.51100000000E-03 0. -1.
        -11    1    4    4    0    0  0.73798787725E+01 -0.78254204640E+01  0.13180838053E+02  0.17012768974E+02  0.51100000000E-03 0.  1.
        -12    1    4    4    0    0 -0.17797613819E+00  0.43968329923E+01 -0.63096834713E+01  0.76925887305E+01  0.00000000000E+00 0.  1.
</event>
<event>
 8    1  0.1253703E-006  0.9118800E+02  0.7816164E-02  0.1184000E+00
        -11   -1    0    0    0    0  0.00000000000E+00  0.00000000000E+00  0.45593999997E+02  0.45594000000E+02  0.51100000000E-03 0.  1.
         11   -1    0    0    0    0 -0.00000000000E+00 -0.00000000000E+00 -0.45593999997E+02  0.45594000000E+02  0.51100000000E-03 0. -1.
         23    2    1    2    0    0  0.66613381478E-15  0.00000000000E+00  0.71054273576E-14  0.91188000000E+02  0.91188000000E+02 0.  0.
    9900012    2    3    3    0    0 -0.18466693314E+01  0.34487321256E+01  0.36612515841E+02  0.54367078541E+02  0.39999987149E+02 0.  0.
         12    1    3    3    0    0  0.18466693314E+01 -0.34487321256E+01 -0.36612515841E+02  0.36820921459E+02  0.00000000000E+00 0. -1.
         11    1    4    4    0    0  0.14106546237E+01  0.78040131599E+01  0.16958284502E+02  0.18721003750E+02  0.51100000000E-03 0. -1.
        -11    1    4    4    0    0  0.10717845269E+02 -0.10148130849E+00 -0.52851931514E+00  0.10731348405E+02  0.51100000000E-03 0.  1.
        -12    1    4    4    0    0 -0.13975169224E+02 -0.42537997258E+01  0.20182750654E+02  0.24914726386E+02  0.00000000000E+00 0.  1.
</event>
<event>
 8    1  0.1253703E-006  0.9118800E+02  0.7816164E-02  0.1184000E+00
        -11   -1    0    0    0    0  0.00000000000E+00  0.00000000000E+00  0.45593999997E+02  0.45594000000E+02  0.51100000000E-03 0. -1.
         11   -1    0    0    0    0 -0.00000000000E+00 -0.00000000000E+00 -0.45593999997E+02  0.45594000000E+02  0.51100000000E-03 0.  1.
         23    2    1    2    0    0  0.35527136788E-14  0.35527136788E-14  0.00000000000E+00  0.91188000000E+02  0.91188000000E+02 0.  0.
    9900012    2    3    3    0    0 -0.19526641690E+02 -0.22016397179E+02  0.22130640705E+02  0.54367126322E+02  0.40000096076E+02 0.  0.
        -12    1    3    3    0    0  0.19526641690E+02  0.22016397179E+02 -0.22130640705E+02  0.36820873678E+02  0.00000000000E+00 0.  1.
         11    1    4    4    0    0 -0.16445488849E+02 -0.68863665723E+01  0.29440207523E+01  0.18070512071E+02  0.51100000000E-03 0. -1.
        -11    1    4    4    0    0 -0.19031943889E+01  0.79144825799E+00  0.20194895672E+02  0.20299811593E+02  0.51100000000E-03 0.  1.
        -12    1    4    4    0    0 -0.11779584515E+01 -0.15921478865E+02 -0.10082757199E+01  0.15996802658E+02  0.00000000000E+00 0.  1.
</event>
<event>
 8    1  0.1253703E-006  0.9118800E+02  0.7816164E-02  0.1184000E+00
        -11   -1    0    0    0    0  0.00000000000E+00  0.00000000000E+00  0.45593999997E+02  0.45594000000E+02  0.51100000000E-03 0.  1.
         11   -1    0    0    0    0 -0.00000000000E+00 -0.00000000000E+00 -0.45593999997E+02  0.45594000000E+02  0.51100000000E-03 0. -1.
         23    2    1    2    0    0  0.00000000000E+00  0.35527136788E-14  0.35527136788E-14  0.91188000000E+02  0.91188000000E+02 0.  0.
    9900012    2    3    3    0    0  0.49033623069E+01  0.24167210437E+02  0.27343795494E+02  0.54367079666E+02  0.39999989715E+02 0.  0.
         12    1    3    3    0    0 -0.49033623069E+01 -0.24167210437E+02 -0.27343795494E+02  0.36820920334E+02  0.00000000000E+00 0. -1.
         11    1    4    4    0    0  0.91433154392E+00 -0.46151453003E+01 -0.17116207579E+01  0.50065171722E+01  0.51100000000E-03 0. -1.
        -11    1    4    4    0    0  0.11141534685E+01  0.32289867087E+02  0.30668596139E+02  0.44547049777E+02  0.51100000000E-03 0.  1.
        -12    1    4    4    0    0  0.28748772945E+01 -0.35075113501E+01 -0.16131798871E+01  0.48135127171E+01  0.00000000000E+00 0.  1.
</event>
<event>
 8    1  0.1253703E-006  0.9118800E+02  0.7816164E-02  0.1184000E+00
        -11   -1    0    0    0    0  0.00000000000E+00  0.00000000000E+00  0.45593999997E+02  0.45594000000E+02  0.51100000000E-03 0.  1.
         11   -1    0    0    0    0 -0.00000000000E+00 -0.00000000000E+00 -0.45593999997E+02  0.45594000000E+02  0.51100000000E-03 0. -1.
         23    2    1    2    0    0  0.00000000000E+00  0.00000000000E+00 -0.35527136788E-14  0.91188000000E+02  0.91188000000E+02 0.  0.
    9900012    2    3    3    0    0 -0.17788912498E+02 -0.41859195036E+01  0.31965782828E+02  0.54367101019E+02  0.40000038393E+02 0.  0.
         12    1    3    3    0    0  0.17788912498E+02  0.41859195036E+01 -0.31965782828E+02  0.36820898981E+02  0.00000000000E+00 0. -1.
         11    1    4    4    0    0 -0.34539170262E+01 -0.32130025282E+01  0.95194603323E+01  0.10624173067E+02  0.51100000000E-03 0. -1.
        -11    1    4    4    0    0 -0.17078109100E+02 -0.73997305427E+01 -0.16199992125E+01  0.18682671657E+02  0.51100000000E-03 0.  1.
        -12    1    4    4    0    0  0.27431136286E+01  0.64268135673E+01  0.24066321708E+02  0.25060256295E+02  0.00000000000E+00 0.  1.
</event>
<event>
 8    1  0.1253703E-006  0.9118800E+02  0.7816164E-02  0.1184000E+00
        -11   -1    0    0    0    0  0.00000000000E+00  0.00000000000E+00  0.45593999997E+02  0.45594000000E+02  0.51100000000E-03 0. -1.
         11   -1    0    0    0    0 -0.00000000000E+00 -0.00000000000E+00 -0.45593999997E+02  0.45594000000E+02  0.51100000000E-03 0.  1.
         23    2    1    2    0    0  0.71054273576E-14  0.00000000000E+00  0.00000000000E+00  0.91188000000E+02  0.91188000000E+02 0.  0.
    9900012    2    3    3    0    0 -0.26410886380E+02  0.12121641431E+02 -0.22612168727E+02  0.54367091743E+02  0.40000017245E+02 0.  0.
         12    1    3    3    0    0  0.26410886380E+02 -0.12121641431E+02  0.22612168727E+02  0.36820908257E+02  0.00000000000E+00 0. -1.
         11    1    4    4    0    0 -0.18514866315E+00 -0.34100130881E+01 -0.87429565835E+00  0.35251755202E+01  0.51100000000E-03 0. -1.
        -11    1    4    4    0    0 -0.27955193047E+01 -0.83037150571E+01  0.29987965682E+01  0.92606367519E+01  0.51100000000E-03 0.  1.
        -12    1    4    4    0    0 -0.23430218412E+02  0.23835369576E+02 -0.24736669637E+02  0.41581279470E+02  0.00000000000E+00 0.  1.
</event>
<event>
 8    1  0.1253703E-006  0.9118800E+02  0.7816164E-02  0.1184000E+00
        -11   -1    0    0    0    0  0.00000000000E+00  0.00000000000E+00  0.45593999997E+02  0.45594000000E+02  0.51100000000E-03 0.  1.
         11   -1    0    0    0    0 -0.00000000000E+00 -0.00000000000E+00 -0.45593999997E+02  0.45594000000E+02  0.51100000000E-03 0. -1.
         23    2    1    2    0    0  0.00000000000E+00 -0.35527136788E-14  0.35527136788E-14  0.91188000000E+02  0.91188000000E+02 0.  0.
    9900012    2    3    3    0    0  0.59258722933E+01 -0.31377072048E+02  0.18334149550E+02  0.54367113910E+02  0.40000067780E+02 0.  0.
         12    1    3    3    0    0 -0.59258722933E+01  0.31377072048E+02 -0.18334149550E+02  0.36820886090E+02  0.00000000000E+00 0. -1.
         11    1    4    4    0    0 -0.28559661835E+01 -0.16603339685E+01  0.48936461514E+01  0.59043225390E+01  0.51100000000E-03 0. -1.
        -11    1    4    4    0    0 -0.56150561073E+01 -0.14901221248E+02 -0.87293681615E+01  0.18159766478E+02  0.51100000000E-03 0.  1.
        -12    1    4    4    0    0  0.14396894584E+02 -0.14815516832E+02  0.22169871560E+02  0.30303024893E+02  0.00000000000E+00 0.  1.
</event>
<event>
 8    1  0.1253703E-006  0.9118800E+02  0.7816164E-02  0.1184000E+00
        -11   -1    0    0    0    0  0.00000000000E+00  0.00000000000E+00  0.45593999997E+02  0.45594000000E+02  0.51100000000E-03 0. -1.
         11   -1    0    0    0    0 -0.00000000000E+00 -0.00000000000E+00 -0.45593999997E+02  0.45594000000E+02  0.51100000000E-03 0.  1.
         23    2    1    2    0    0  0.00000000000E+00  0.00000000000E+00  0.00000000000E+00  0.91188000000E+02  0.91188000000E+02 0.  0.
    9900012    2    3    3    0    0 -0.57411763206E+01 -0.13751416700E+02 -0.33670741905E+02  0.54367062651E+02  0.39999950926E+02 0.  0.
         12    1    3    3    0    0  0.57411763206E+01  0.13751416700E+02  0.33670741905E+02  0.36820937349E+02  0.00000000000E+00 0. -1.
         11    1    4    4    0    0  0.21081304377E-01  0.50705410612E+01 -0.15775532856E+01  0.53103206782E+01  0.51100000000E-03 0. -1.
        -11    1    4    4    0    0 -0.97871514518E+01 -0.12015386839E+02 -0.36747220862E+02  0.39881275002E+02  0.51100000000E-03 0.  1.
         12    1    4    4    0    0  0.40248938269E+01 -0.68065709221E+01  0.46540322423E+01  0.91754669716E+01  0.00000000000E+00 0. -1.
</event>
<event>
 8    1  0.1253703E-006  0.9118800E+02  0.7816164E-02  0.1184000E+00
        -11   -1    0    0    0    0  0.00000000000E+00  0.00000000000E+00  0.45593999997E+02  0.45594000000E+02  0.51100000000E-03 0.  1.
         11   -1    0    0    0    0 -0.00000000000E+00 -0.00000000000E+00 -0.45593999997E+02  0.45594000000E+02  0.51100000000E-03 0. -1.
         23    2    1    2    0    0  0.88817841970E-15  0.00000000000E+00  0.00000000000E+00  0.91188000000E+02  0.91188000000E+02 0.  0.
    9900012    2    3    3    0    0 -0.25739988253E+00  0.12583295288E+02 -0.34603089398E+02  0.54367090575E+02  0.40000014583E+02 0.  0.
        -12    1    3    3    0    0  0.25739988253E+00 -0.12583295288E+02  0.34603089398E+02  0.36820909425E+02  0.00000000000E+00 0.  1.
         11    1    4    4    0    0  0.52301872994E+01  0.12922938059E+02 -0.22605544922E+01  0.14123289069E+02  0.51100000000E-03 0. -1.
        -11    1    4    4    0    0  0.51201304525E+01 -0.85520501043E+01 -0.95963682944E+01  0.13836313871E+02  0.51100000000E-03 0.  1.
         12    1    4    4    0    0 -0.10607717635E+02  0.82124073330E+01 -0.22746166612E+02  0.26407487634E+02  0.00000000000E+00 0. -1.
</event>
<event>
 8    1  0.1253703E-006  0.9118800E+02  0.7816164E-02  0.1184000E+00
        -11   -1    0    0    0    0  0.00000000000E+00  0.00000000000E+00  0.45593999997E+02  0.45594000000E+02  0.51100000000E-03 0.  1.
         11   -1    0    0    0    0 -0.00000000000E+00 -0.00000000000E+00 -0.45593999997E+02  0.45594000000E+02  0.51100000000E-03 0. -1.
         23    2    1    2    0    0  0.22204460493E-14  0.00000000000E+00  0.00000000000E+00  0.91188000000E+02  0.91188000000E+02 0.  0.
    9900012    2    3    3    0    0 -0.35491206723E+01  0.32460470222E+02 -0.17014743879E+02  0.54367083474E+02  0.39999998395E+02 0.  0.
        -12    1    3    3    0    0  0.35491206723E+01 -0.32460470222E+02  0.17014743879E+02  0.36820916526E+02  0.00000000000E+00 0.  1.
         11    1    4    4    0    0 -0.83264264926E+01  0.98107820238E+01 -0.20032551562E+02  0.23809324736E+02  0.51100000000E-03 0. -1.
        -11    1    4    4    0    0  0.68822389557E+01  0.28747057638E+01  0.70537017215E+01  0.10265663861E+02  0.51100000000E-03 0.  1.
        -12    1    4    4    0    0 -0.21049331354E+01  0.19774982434E+02 -0.40358940386E+01  0.20292094876E+02  0.00000000000E+00 0.  1.
</event>
<event>
 8    1  0.1253703E-006  0.9118800E+02  0.7816164E-02  0.1184000E+00
        -11   -1    0    0    0    0  0.00000000000E+00  0.00000000000E+00  0.45593999997E+02  0.45594000000E+02  0.51100000000E-03 0.  1.
         11   -1    0    0    0    0 -0.00000000000E+00 -0.00000000000E+00 -0.45593999997E+02  0.45594000000E+02  0.51100000000E-03 0. -1.
         23    2    1    2    0    0 -0.35527136788E-14 -0.17763568394E-14 -0.35527136788E-14  0.91188000000E+02  0.91188000000E+02 0.  0.
    9900012    2    3    3    0    0 -0.14937748176E+02  0.15859474226E+02 -0.29683820466E+02  0.54366967414E+02  0.39999733812E+02 0.  0.
        -12    1    3    3    0    0  0.14937748176E+02 -0.15859474226E+02  0.29683820466E+02  0.36821032586E+02  0.00000000000E+00 0.  1.
         11    1    4    4    0    0 -0.51632183981E+01  0.14274782837E+02 -0.77123874548E+00  0.15199442712E+02  0.51100000000E-03 0.  1.
        -11    1    4    4    0    0 -0.28503171373E+00  0.12181071818E+02 -0.13972994287E+02  0.18539264368E+02  0.51100000000E-03 0. -1.
        -12    1    4    4    0    0 -0.94894980637E+01 -0.10596380430E+02 -0.14939587433E+02  0.20628260334E+02  0.00000000000E+00 0.  1.
</event>
<event>
 8    1  0.1253703E-006  0.9118800E+02  0.7816164E-02  0.1184000E+00
        -11   -1    0    0    0    0  0.00000000000E+00  0.00000000000E+00  0.45593999997E+02  0.45594000000E+02  0.51100000000E-03 0. -1.
         11   -1    0    0    0    0 -0.00000000000E+00 -0.00000000000E+00 -0.45593999997E+02  0.45594000000E+02  0.51100000000E-03 0.  1.
         23    2    1    2    0    0  0.00000000000E+00  0.17763568394E-14 -0.35527136788E-14  0.91188000000E+02  0.91188000000E+02 0.  0.
    9900012    2    3    3    0    0 -0.19912438609E+02 -0.77863332687E+01  0.29977451590E+02  0.54367084735E+02  0.40000001269E+02 0.  0.
        -12    1    3    3    0    0  0.19912438609E+02  0.77863332687E+01 -0.29977451590E+02  0.36820915265E+02  0.00000000000E+00 0.  1.
         11    1    4    4    0    0 -0.26220170621E+02  0.12055888800E+01  0.20821058196E+02  0.33503242479E+02  0.51100000000E-03 0. -1.
        -11    1    4    4    0    0  0.87482773357E+01 -0.80806659102E+01  0.60515559772E+00  0.11924585169E+02  0.51100000000E-03 0.  1.
        -12    1    4    4    0    0 -0.24405453240E+01 -0.91125623852E+00  0.85512377962E+01  0.89392570865E+01  0.00000000000E+00 0.  1.
</event>
<event>
 8    1  0.1253703E-006  0.9118800E+02  0.7816164E-02  0.1184000E+00
        -11   -1    0    0    0    0  0.00000000000E+00  0.00000000000E+00  0.45593999997E+02  0.45594000000E+02  0.51100000000E-03 0.  1.
         11   -1    0    0    0    0 -0.00000000000E+00 -0.00000000000E+00 -0.45593999997E+02  0.45594000000E+02  0.51100000000E-03 0. -1.
         23    2    1    2    0    0  0.00000000000E+00 -0.35527136788E-14 -0.44408920985E-15  0.91188000000E+02  0.91188000000E+02 0.  0.
    9900012    2    3    3    0    0  0.27278996547E+02 -0.24492562949E+02 -0.34281202345E+01  0.54367064369E+02  0.39999954842E+02 0.  0.
         12    1    3    3    0    0 -0.27278996547E+02  0.24492562949E+02  0.34281202345E+01  0.36820935631E+02  0.00000000000E+00 0. -1.
         11    1    4    4    0    0 -0.59126363141E+01 -0.70080138169E+01  0.12400883465E+01  0.92525318270E+01  0.51100000000E-03 0. -1.
        -11    1    4    4    0    0  0.20105451372E+02 -0.23101044203E+02 -0.28188344890E+01  0.30754402063E+02  0.51100000000E-03 0.  1.
        -12    1    4    4    0    0  0.13086181489E+02  0.56164950704E+01 -0.18493740920E+01  0.14360130479E+02  0.00000000000E+00 0.  1.
</event>
<event>
 8    1  0.1253703E-006  0.9118800E+02  0.7816164E-02  0.1184000E+00
        -11   -1    0    0    0    0  0.00000000000E+00  0.00000000000E+00  0.45593999997E+02  0.45594000000E+02  0.51100000000E-03 0.  1.
         11   -1    0    0    0    0 -0.00000000000E+00 -0.00000000000E+00 -0.45593999997E+02  0.45594000000E+02  0.51100000000E-03 0. -1.
         23    2    1    2    0    0 -0.88817841970E-15 -0.88817841970E-15 -0.71054273576E-14  0.91188000000E+02  0.91188000000E+02 0.  0.
    9900012    2    3    3    0    0 -0.74954389929E+01 -0.34728848276E+01  0.35882279028E+02  0.54367075474E+02  0.39999980158E+02 0.  0.
         12    1    3    3    0    0  0.74954389929E+01  0.34728848276E+01 -0.35882279028E+02  0.36820924526E+02  0.00000000000E+00 0. -1.
         11    1    4    4    0    0  0.15946612687E+01 -0.12140069094E+02  0.60548570623E+01  0.13659630905E+02  0.51100000000E-03 0. -1.
        -11    1    4    4    0    0 -0.12174862572E+02 -0.50769519993E+01  0.17990216030E+02  0.22308083587E+02  0.51100000000E-03 0.  1.
         12    1    4    4    0    0  0.30847623099E+01  0.13744136266E+02  0.11837205935E+02  0.18399360982E+02  0.00000000000E+00 0. -1.
</event>
<event>
 8    1  0.1253703E-006  0.9118800E+02  0.7816164E-02  0.1184000E+00
        -11   -1    0    0    0    0  0.00000000000E+00  0.00000000000E+00  0.45593999997E+02  0.45594000000E+02  0.51100000000E-03 0.  1.
         11   -1    0    0    0    0 -0.00000000000E+00 -0.00000000000E+00 -0.45593999997E+02  0.45594000000E+02  0.51100000000E-03 0. -1.
         23    2    1    2    0    0  0.00000000000E+00  0.00000000000E+00  0.88817841970E-15  0.91188000000E+02  0.91188000000E+02 0.  0.
    9900012    2    3    3    0    0  0.17082667722E+02  0.32210774329E+02 -0.51408135073E+01  0.54367089054E+02  0.40000011115E+02 0.  0.
         12    1    3    3    0    0 -0.17082667722E+02 -0.32210774329E+02  0.51408135073E+01  0.36820910946E+02  0.00000000000E+00 0. -1.
         11    1    4    4    0    0  0.23594073609E+00 -0.28196918830E+01 -0.15926773565E+01  0.32469911871E+01  0.51100000000E-03 0. -1.
        -11    1    4    4    0    0  0.20417523489E+02  0.23902816149E+02  0.10224952648E+02  0.33057064936E+02  0.51100000000E-03 0.  1.
         12    1    4    4    0    0 -0.35707965027E+01  0.11127650063E+02 -0.13773088799E+02  0.18063032930E+02  0.00000000000E+00 0. -1.
</event>
<event>
 8    1  0.1253703E-006  0.9118800E+02  0.7816164E-02  0.1184000E+00
        -11   -1    0    0    0    0  0.00000000000E+00  0.00000000000E+00  0.45593999997E+02  0.45594000000E+02  0.51100000000E-03 0.  1.
         11   -1    0    0    0    0 -0.00000000000E+00 -0.00000000000E+00 -0.45593999997E+02  0.45594000000E+02  0.51100000000E-03 0. -1.
         23    2    1    2    0    0  0.00000000000E+00  0.00000000000E+00  0.00000000000E+00  0.91188000000E+02  0.91188000000E+02 0.  0.
    9900012    2    3    3    0    0  0.95064300874E+01 -0.23804071721E+02  0.26434174755E+02  0.54367195576E+02  0.40000253953E+02 0.  0.
         12    1    3    3    0    0 -0.95064300874E+01  0.23804071721E+02 -0.26434174755E+02  0.36820804424E+02  0.00000000000E+00 0. -1.
         11    1    4    4    0    0  0.27500489856E+01  0.79859269794E+00 -0.54802214385E+01  0.61833119764E+01  0.51100000000E-03 0. -1.
        -11    1    4    4    0    0  0.53717192257E+00  0.25161111371E+01  0.15847955595E+02  0.16055437263E+02  0.51100000000E-03 0.  1.
        -12    1    4    4    0    0  0.62192091792E+01 -0.27118775556E+02  0.16066440598E+02  0.32128446336E+02  0.00000000000E+00 0.  1.
</event>
<event>
 8    1  0.1253703E-006  0.9118800E+02  0.7816164E-02  0.1184000E+00
        -11   -1    0    0    0    0  0.00000000000E+00  0.00000000000E+00  0.45593999997E+02  0.45594000000E+02  0.51100000000E-03 0.  1.
         11   -1    0    0    0    0 -0.00000000000E+00 -0.00000000000E+00 -0.45593999997E+02  0.45594000000E+02  0.51100000000E-03 0. -1.
         23    2    1    2    0    0  0.00000000000E+00  0.00000000000E+00  0.00000000000E+00  0.91188000000E+02  0.91188000000E+02 0.  0.
    9900012    2    3    3    0    0  0.34360816714E+02 -0.52036450225E+01 -0.12167003357E+02  0.54367087226E+02  0.40000006949E+02 0.  0.
        -12    1    3    3    0    0 -0.34360816714E+02  0.52036450225E+01  0.12167003357E+02  0.36820912774E+02  0.00000000000E+00 0.  1.
         11    1    4    4    0    0  0.15222912097E+02  0.69805133612E+01 -0.11990489154E+02  0.20597000993E+02  0.51100000000E-03 0. -1.
        -11    1    4    4    0    0  0.67227059962E+01  0.19484290316E+01  0.10135694697E+02  0.12317607676E+02  0.51100000000E-03 0.  1.
         12    1    4    4    0    0  0.12415198621E+02 -0.14132587415E+02 -0.10312208900E+02  0.21452478558E+02  0.00000000000E+00 0. -1.
</event>
<event>
 8    1  0.1253703E-006  0.9118800E+02  0.7816164E-02  0.1184000E+00
        -11   -1    0    0    0    0  0.00000000000E+00  0.00000000000E+00  0.45593999997E+02  0.45594000000E+02  0.51100000000E-03 0.  1.
         11   -1    0    0    0    0 -0.00000000000E+00 -0.00000000000E+00 -0.45593999997E+02  0.45594000000E+02  0.51100000000E-03 0. -1.
         23    2    1    2    0    0  0.35527136788E-14  0.00000000000E+00  0.22204460493E-15  0.91188000000E+02  0.91188000000E+02 0.  0.
    9900012    2    3    3    0    0  0.30106713640E+02  0.21191295893E+02 -0.54209216222E+00  0.54367094365E+02  0.40000023225E+02 0.  0.
        -12    1    3    3    0    0 -0.30106713640E+02 -0.21191295893E+02  0.54209216222E+00  0.36820905635E+02  0.00000000000E+00 0.  1.
         11    1    4    4    0    0  0.10988628768E+02 -0.82854417045E+01 -0.87712703884E+01  0.16319733176E+02  0.51100000000E-03 0. -1.
        -11    1    4    4    0    0  0.11589862375E+02  0.25639990192E+02  0.90517392320E+01  0.29557875268E+02  0.51100000000E-03 0.  1.
         12    1    4    4    0    0  0.75282224967E+01  0.38367474054E+01 -0.82256100580E+00  0.84894859221E+01  0.00000000000E+00 0. -1.
</event>
<event>
 8    1  0.1253703E-006  0.9118800E+02  0.7816164E-02  0.1184000E+00
        -11   -1    0    0    0    0  0.00000000000E+00  0.00000000000E+00  0.45593999997E+02  0.45594000000E+02  0.51100000000E-03 0.  1.
         11   -1    0    0    0    0 -0.00000000000E+00 -0.00000000000E+00 -0.45593999997E+02  0.45594000000E+02  0.51100000000E-03 0. -1.
         23    2    1    2    0    0  0.00000000000E+00  0.00000000000E+00  0.00000000000E+00  0.91188000000E+02  0.91188000000E+02 0.  0.
    9900012    2    3    3    0    0 -0.28002705446E+02  0.23727239758E+02 -0.29404355044E+01  0.54367087739E+02  0.40000008118E+02 0.  0.
        -12    1    3    3    0    0  0.28002705446E+02 -0.23727239758E+02  0.29404355044E+01  0.36820912261E+02  0.00000000000E+00 0.  1.
         11    1    4    4    0    0 -0.15898136194E+01  0.10452949835E+02 -0.88493665656E+01  0.13787782870E+02  0.51100000000E-03 0. -1.
        -11    1    4    4    0    0 -0.70122048408E+01  0.68244373809E+01  0.15236051369E+02  0.18107490822E+02  0.51100000000E-03 0.  1.
         12    1    4    4    0    0 -0.19400686986E+02  0.64498525422E+01 -0.93271203077E+01  0.22471814047E+02  0.00000000000E+00 0. -1.
</event>
<event>
 8    1  0.1253703E-006  0.9118800E+02  0.7816164E-02  0.1184000E+00
        -11   -1    0    0    0    0  0.00000000000E+00  0.00000000000E+00  0.45593999997E+02  0.45594000000E+02  0.51100000000E-03 0.  1.
         11   -1    0    0    0    0 -0.00000000000E+00 -0.00000000000E+00 -0.45593999997E+02  0.45594000000E+02  0.51100000000E-03 0. -1.
         23    2    1    2    0    0  0.00000000000E+00  0.88817841970E-15  0.00000000000E+00  0.91188000000E+02  0.91188000000E+02 0.  0.
    9900012    2    3    3    0    0  0.19772516060E+02  0.53326010888E+01  0.30600501856E+02  0.54367085569E+02  0.40000003171E+02 0.  0.
         12    1    3    3    0    0 -0.19772516060E+02 -0.53326010888E+01 -0.30600501856E+02  0.36820914431E+02  0.00000000000E+00 0. -1.
         11    1    4    4    0    0  0.14326285046E+02 -0.39628820377E+01  0.27281758616E+01  0.15112571623E+02  0.51100000000E-03 0. -1.
        -11    1    4    4    0    0  0.14314084759E+02 -0.13424401154E+00  0.17866521441E+02  0.22893746583E+02  0.51100000000E-03 0.  1.
        -12    1    4    4    0    0 -0.88678537455E+01  0.94297271380E+01  0.10005804554E+02  0.16360767363E+02  0.00000000000E+00 0.  1.
</event>
<event>
 8    1  0.1253703E-006  0.9118800E+02  0.7816164E-02  0.1184000E+00
        -11   -1    0    0    0    0  0.00000000000E+00  0.00000000000E+00  0.45593999997E+02  0.45594000000E+02  0.51100000000E-03 0.  1.
         11   -1    0    0    0    0 -0.00000000000E+00 -0.00000000000E+00 -0.45593999997E+02  0.45594000000E+02  0.51100000000E-03 0. -1.
         23    2    1    2    0    0  0.00000000000E+00  0.00000000000E+00  0.00000000000E+00  0.91188000000E+02  0.91188000000E+02 0.  0.
    9900012    2    3    3    0    0 -0.86080682090E+01  0.13312360184E+02 -0.33233454042E+02  0.54367078780E+02  0.39999987694E+02 0.  0.
        -12    1    3    3    0    0  0.86080682090E+01 -0.13312360184E+02  0.33233454042E+02  0.36820921220E+02  0.00000000000E+00 0.  1.
         11    1    4    4    0    0  0.27803015701E+01  0.34837680336E+01 -0.14467858377E+02  0.15138878519E+02  0.51100000000E-03 0. -1.
        -11    1    4    4    0    0  0.10589045427E+02  0.41641968695E+01 -0.90580708273E+01  0.14543626302E+02  0.51100000000E-03 0.  1.
        -12    1    4    4    0    0 -0.21977415206E+02  0.56643952807E+01 -0.97075248378E+01  0.24684573959E+02  0.00000000000E+00 0.  1.
</event>
<event>
 8    1  0.1253703E-006  0.9118800E+02  0.7816164E-02  0.1184000E+00
        -11   -1    0    0    0    0  0.00000000000E+00  0.00000000000E+00  0.45593999997E+02  0.45594000000E+02  0.51100000000E-03 0.  1.
         11   -1    0    0    0    0 -0.00000000000E+00 -0.00000000000E+00 -0.45593999997E+02  0.45594000000E+02  0.51100000000E-03 0. -1.
         23    2    1    2    0    0  0.17763568394E-14  0.22204460493E-15  0.71054273576E-14  0.91188000000E+02  0.91188000000E+02 0.  0.
    9900012    2    3    3    0    0 -0.11029281154E+02 -0.16206897412E+01 -0.35092839831E+02  0.54367094452E+02  0.40000023421E+02 0.  0.
        -12    1    3    3    0    0  0.11029281154E+02  0.16206897412E+01  0.35092839831E+02  0.36820905548E+02  0.00000000000E+00 0.  1.
         11    1    4    4    0    0 -0.58588356119E+01 -0.63727035626E+01 -0.81906719242E+01  0.11917399559E+02  0.51100000000E-03 0.  1.
        -11    1    4    4    0    0 -0.30225366268E+00  0.55680628346E+01  0.65689279622E+01  0.86165826080E+01  0.51100000000E-03 0. -1.
         12    1    4    4    0    0 -0.48681918794E+01 -0.81604901315E+00 -0.33471095869E+02  0.33833112284E+02  0.00000000000E+00 0. -1.
</event>
<event>
 8    1  0.1253703E-006  0.9118800E+02  0.7816164E-02  0.1184000E+00
        -11   -1    0    0    0    0  0.00000000000E+00  0.00000000000E+00  0.45593999997E+02  0.45594000000E+02  0.51100000000E-03 0.  1.
         11   -1    0    0    0    0 -0.00000000000E+00 -0.00000000000E+00 -0.45593999997E+02  0.45594000000E+02  0.51100000000E-03 0. -1.
         23    2    1    2    0    0  0.00000000000E+00  0.00000000000E+00  0.00000000000E+00  0.91188000000E+02  0.91188000000E+02 0.  0.
    9900012    2    3    3    0    0 -0.28365836482E+02  0.23420327003E+02  0.16269683283E+01  0.54367089879E+02  0.40000012996E+02 0.  0.
         12    1    3    3    0    0  0.28365836482E+02 -0.23420327003E+02 -0.16269683283E+01  0.36820910121E+02  0.00000000000E+00 0. -1.
         11    1    4    4    0    0 -0.15814471067E+02  0.21733125128E+02 -0.47518794795E+01  0.27294808697E+02  0.51100000000E-03 0. -1.
        -11    1    4    4    0    0 -0.62841114184E+01 -0.33254260183E+01  0.14191077591E+02  0.15872466664E+02  0.51100000000E-03 0.  1.
         12    1    4    4    0    0 -0.62672539958E+01  0.50126278938E+01 -0.78122297835E+01  0.11199814518E+02  0.00000000000E+00 0. -1.
</event>
<event>
 8    1  0.1253703E-006  0.9118800E+02  0.7816164E-02  0.1184000E+00
        -11   -1    0    0    0    0  0.00000000000E+00  0.00000000000E+00  0.45593999997E+02  0.45594000000E+02  0.51100000000E-03 0. -1.
         11   -1    0    0    0    0 -0.00000000000E+00 -0.00000000000E+00 -0.45593999997E+02  0.45594000000E+02  0.51100000000E-03 0.  1.
         23    2    1    2    0    0  0.88817841970E-15 -0.71054273576E-14  0.44408920985E-15  0.91188000000E+02  0.91188000000E+02 0.  0.
    9900012    2    3    3    0    0  0.48584476391E+01 -0.36467461143E+02  0.15161681011E+01  0.54367095593E+02  0.40000026023E+02 0.  0.
         12    1    3    3    0    0 -0.48584476391E+01  0.36467461143E+02 -0.15161681011E+01  0.36820904407E+02  0.00000000000E+00 0. -1.
         11    1    4    4    0    0 -0.24457882966E+01 -0.34661892889E+02  0.83802824267E+01  0.35744339872E+02  0.51100000000E-03 0. -1.
        -11    1    4    4    0    0  0.79319935208E+01 -0.65160607014E+01 -0.87712242222E+01  0.13502219925E+02  0.51100000000E-03 0.  1.
         12    1    4    4    0    0 -0.62775758518E+00  0.47104924476E+01  0.19071098966E+01  0.51205357964E+01  0.00000000000E+00 0. -1.
</event>
<event>
 8    1  0.1253703E-006  0.9118800E+02  0.7816164E-02  0.1184000E+00
        -11   -1    0    0    0    0  0.00000000000E+00  0.00000000000E+00  0.45593999997E+02  0.45594000000E+02  0.51100000000E-03 0. -1.
         11   -1    0    0    0    0 -0.00000000000E+00 -0.00000000000E+00 -0.45593999997E+02  0.45594000000E+02  0.51100000000E-03 0.  1.
         23    2    1    2    0    0  0.17763568394E-14  0.35527136788E-14  0.00000000000E+00  0.91188000000E+02  0.91188000000E+02 0.  0.
    9900012    2    3    3    0    0  0.15737660089E+02  0.20989602611E+02 -0.25836836839E+02  0.54367088812E+02  0.40000010566E+02 0.  0.
         12    1    3    3    0    0 -0.15737660089E+02 -0.20989602611E+02  0.25836836839E+02  0.36820911188E+02  0.00000000000E+00 0. -1.
         11    1    4    4    0    0  0.20310710495E+02  0.10061581096E+02  0.20541226249E+01  0.22759169470E+02  0.51100000000E-03 0. -1.
        -11    1    4    4    0    0 -0.27306505417E+01  0.72245187939E+01 -0.73745650510E+01  0.10678685974E+02  0.51100000000E-03 0.  1.
        -12    1    4    4    0    0 -0.18423998640E+01  0.37035027211E+01 -0.20516394413E+02  0.20929233368E+02  0.00000000000E+00 0.  1.
</event>
<event>
 8    1  0.1253703E-006  0.9118800E+02  0.7816164E-02  0.1184000E+00
        -11   -1    0    0    0    0  0.00000000000E+00  0.00000000000E+00  0.45593999997E+02  0.45594000000E+02  0.51100000000E-03 0.  1.
         11   -1    0    0    0    0 -0.00000000000E+00 -0.00000000000E+00 -0.45593999997E+02  0.45594000000E+02  0.51100000000E-03 0. -1.
         23    2    1    2    0    0  0.00000000000E+00  0.00000000000E+00 -0.35527136788E-14  0.91188000000E+02  0.91188000000E+02 0.  0.
    9900012    2    3    3    0    0 -0.30947750295E+02 -0.60092847433E+01  0.19023755920E+02  0.54367108637E+02  0.40000055759E+02 0.  0.
         12    1    3    3    0    0  0.30947750295E+02  0.60092847433E+01 -0.19023755920E+02  0.36820891363E+02  0.00000000000E+00 0. -1.
         11    1    4    4    0    0  0.39088304334E+01  0.17925120517E+01  0.19577830748E+01  0.47249306494E+01  0.51100000000E-03 0. -1.
        -11    1    4    4    0    0 -0.25587762547E+02 -0.74453295872E+01 -0.36944446755E+01  0.26903818438E+02  0.51100000000E-03 0.  1.
        -12    1    4    4    0    0 -0.92688181814E+01 -0.35646720776E+00  0.20760417521E+02  0.22738359549E+02  0.00000000000E+00 0.  1.
</event>
<event>
 8    1  0.1253703E-006  0.9118800E+02  0.7816164E-02  0.1184000E+00
        -11   -1    0    0    0    0  0.00000000000E+00  0.00000000000E+00  0.45593999997E+02  0.45594000000E+02  0.51100000000E-03 0.  1.
         11   -1    0    0    0    0 -0.00000000000E+00 -0.00000000000E+00 -0.45593999997E+02  0.45594000000E+02  0.51100000000E-03 0. -1.
         23    2    1    2    0    0 -0.17763568394E-14  0.44408920985E-15  0.71054273576E-14  0.91188000000E+02  0.91188000000E+02 0.  0.
    9900012    2    3    3    0    0 -0.15440971449E+02  0.32944778667E+01  0.33264135851E+02  0.54367083151E+02  0.39999997660E+02 0.  0.
         12    1    3    3    0    0  0.15440971449E+02 -0.32944778667E+01 -0.33264135851E+02  0.36820916849E+02  0.00000000000E+00 0. -1.
         11    1    4    4    0    0  0.10262499155E+01  0.83558544759E+01  0.48486402019E+01  0.97150813162E+01  0.51100000000E-03 0. -1.
        -11    1    4    4    0    0 -0.16295859574E+02  0.14722166588E+01  0.32887294369E+02  0.36732772728E+02  0.51100000000E-03 0.  1.
        -12    1    4    4    0    0 -0.17136179079E+00 -0.65335932680E+01 -0.44717987200E+01  0.79192291069E+01  0.00000000000E+00 0.  1.
</event>
<event>
 8    1  0.1253703E-006  0.9118800E+02  0.7816164E-02  0.1184000E+00
        -11   -1    0    0    0    0  0.00000000000E+00  0.00000000000E+00  0.45593999997E+02  0.45594000000E+02  0.51100000000E-03 0. -1.
         11   -1    0    0    0    0 -0.00000000000E+00 -0.00000000000E+00 -0.45593999997E+02  0.45594000000E+02  0.51100000000E-03 0.  1.
         23    2    1    2    0    0 -0.69388939039E-17  0.17763568394E-14  0.00000000000E+00  0.91188000000E+02  0.91188000000E+02 0.  0.
    9900012    2    3    3    0    0  0.31946360664E-01  0.79915611842E+01  0.35943224823E+02  0.54367061916E+02  0.39999949250E+02 0.  0.
        -12    1    3    3    0    0 -0.31946360664E-01 -0.79915611842E+01 -0.35943224823E+02  0.36820938084E+02  0.00000000000E+00 0.  1.
         11    1    4    4    0    0 -0.11408822677E+01  0.22877419267E+02  0.21441992458E+02  0.31375738485E+02  0.51100000000E-03 0.  1.
        -11    1    4    4    0    0 -0.41169261780E+01 -0.90234485073E+01  0.86990134540E+01  0.13192594114E+02  0.51100000000E-03 0. -1.
        -12    1    4    4    0    0  0.52897548064E+01 -0.58624095752E+01  0.58022189111E+01  0.97987293172E+01  0.00000000000E+00 0.  1.
</event>
<event>
 8    1  0.1253703E-006  0.9118800E+02  0.7816164E-02  0.1184000E+00
        -11   -1    0    0    0    0  0.00000000000E+00  0.00000000000E+00  0.45593999997E+02  0.45594000000E+02  0.51100000000E-03 0.  1.
         11   -1    0    0    0    0 -0.00000000000E+00 -0.00000000000E+00 -0.45593999997E+02  0.45594000000E+02  0.51100000000E-03 0. -1.
         23    2    1    2    0    0  0.00000000000E+00  0.88817841970E-15  0.00000000000E+00  0.91188000000E+02  0.91188000000E+02 0.  0.
    9900012    2    3    3    0    0  0.15333864372E+02 -0.78794493384E+01 -0.32535613196E+02  0.54367092292E+02  0.40000018497E+02 0.  0.
        -12    1    3    3    0    0 -0.15333864372E+02  0.78794493384E+01  0.32535613196E+02  0.36820907708E+02  0.00000000000E+00 0.  1.
         11    1    4    4    0    0  0.13120909041E+02  0.14971464907E+02 -0.14722794047E+02  0.24760122785E+02  0.51100000000E-03 0. -1.
        -11    1    4    4    0    0  0.36313821896E+01 -0.20482132196E+02 -0.14857994377E+02  0.25562955092E+02  0.51100000000E-03 0.  1.
         12    1    4    4    0    0 -0.14184268581E+01 -0.23687820499E+01 -0.29548247713E+01  0.40440144140E+01  0.00000000000E+00 0. -1.
</event>
<event>
 8    1  0.1253703E-006  0.9118800E+02  0.7816164E-02  0.1184000E+00
        -11   -1    0    0    0    0  0.00000000000E+00  0.00000000000E+00  0.45593999997E+02  0.45594000000E+02  0.51100000000E-03 0.  1.
         11   -1    0    0    0    0 -0.00000000000E+00 -0.00000000000E+00 -0.45593999997E+02  0.45594000000E+02  0.51100000000E-03 0. -1.
         23    2    1    2    0    0 -0.35527136788E-14 -0.66613381478E-15  0.71054273576E-14  0.91188000000E+02  0.91188000000E+02 0.  0.
    9900012    2    3    3    0    0 -0.17437887065E+02 -0.18576483763E+01  0.32376687797E+02  0.54367072859E+02  0.39999974198E+02 0.  0.
         12    1    3    3    0    0  0.17437887065E+02  0.18576483763E+01 -0.32376687797E+02  0.36820927141E+02  0.00000000000E+00 0. -1.
         11    1    4    4    0    0  0.58516899648E+01 -0.72734060248E+00 -0.18609648526E+00  0.58996552407E+01  0.51100000000E-03 0. -1.
        -11    1    4    4    0    0  0.45589920299E+01  0.49273267606E+01  0.28405162024E+01  0.72891350579E+01  0.51100000000E-03 0.  1.
        -12    1    4    4    0    0 -0.27848569060E+02 -0.60576345344E+01  0.29722268080E+02  0.41178282561E+02  0.00000000000E+00 0.  1.
</event>
<event>
 8    1  0.1253703E-006  0.9118800E+02  0.7816164E-02  0.1184000E+00
        -11   -1    0    0    0    0  0.00000000000E+00  0.00000000000E+00  0.45593999997E+02  0.45594000000E+02  0.51100000000E-03 0.  1.
         11   -1    0    0    0    0 -0.00000000000E+00 -0.00000000000E+00 -0.45593999997E+02  0.45594000000E+02  0.51100000000E-03 0. -1.
         23    2    1    2    0    0  0.00000000000E+00 -0.35527136788E-14 -0.35527136788E-14  0.91188000000E+02  0.91188000000E+02 0.  0.
    9900012    2    3    3    0    0  0.25864421865E+02  0.19766456506E+02  0.17207521256E+02  0.54367083268E+02  0.39999997926E+02 0.  0.
         12    1    3    3    0    0 -0.25864421865E+02 -0.19766456506E+02 -0.17207521256E+02  0.36820916732E+02  0.00000000000E+00 0. -1.
         11    1    4    4    0    0  0.96925920614E+01  0.12220978148E+02 -0.11153272856E+02  0.19175352498E+02  0.51100000000E-03 0. -1.
        -11    1    4    4    0    0 -0.10392541314E+01  0.18420759310E+01  0.62454277186E+01  0.65938350400E+01  0.51100000000E-03 0.  1.
        -12    1    4    4    0    0  0.17211083935E+02  0.57034024270E+01  0.22115366393E+02  0.28597895730E+02  0.00000000000E+00 0.  1.
</event>
<event>
 8    1  0.1253703E-006  0.9118800E+02  0.7816164E-02  0.1184000E+00
        -11   -1    0    0    0    0  0.00000000000E+00  0.00000000000E+00  0.45593999997E+02  0.45594000000E+02  0.51100000000E-03 0. -1.
         11   -1    0    0    0    0 -0.00000000000E+00 -0.00000000000E+00 -0.45593999997E+02  0.45594000000E+02  0.51100000000E-03 0.  1.
         23    2    1    2    0    0  0.00000000000E+00  0.35527136788E-14  0.35527136788E-14  0.91188000000E+02  0.91188000000E+02 0.  0.
    9900012    2    3    3    0    0 -0.27096721825E+02 -0.14578346995E+02 -0.20224199199E+02  0.54367098761E+02  0.40000033247E+02 0.  0.
         12    1    3    3    0    0  0.27096721825E+02  0.14578346995E+02  0.20224199199E+02  0.36820901239E+02  0.00000000000E+00 0. -1.
         11    1    4    4    0    0  0.37717353624E+01 -0.27658019018E+01 -0.12848742504E+00  0.46789055434E+01  0.51100000000E-03 0. -1.
        -11    1    4    4    0    0 -0.15057080334E+02 -0.96541160157E+01 -0.26929701817E+02  0.32328415743E+02  0.51100000000E-03 0.  1.
         12    1    4    4    0    0 -0.15811376853E+02 -0.21584290772E+01  0.68339900429E+01  0.17359777475E+02  0.00000000000E+00 0. -1.
</event>
<event>
 8    1  0.1253703E-006  0.9118800E+02  0.7816164E-02  0.1184000E+00
        -11   -1    0    0    0    0  0.00000000000E+00  0.00000000000E+00  0.45593999997E+02  0.45594000000E+02  0.51100000000E-03 0.  1.
         11   -1    0    0    0    0 -0.00000000000E+00 -0.00000000000E+00 -0.45593999997E+02  0.45594000000E+02  0.51100000000E-03 0. -1.
         23    2    1    2    0    0  0.35527136788E-14 -0.22204460493E-15 -0.35527136788E-14  0.91188000000E+02  0.91188000000E+02 0.  0.
    9900012    2    3    3    0    0 -0.24311653131E+02  0.18475341851E+01  0.27591746445E+02  0.54367158994E+02  0.40000170558E+02 0.  0.
         12    1    3    3    0    0  0.24311653131E+02 -0.18475341851E+01 -0.27591746445E+02  0.36820841006E+02  0.00000000000E+00 0. -1.
         11    1    4    4    0    0 -0.87403006730E+00  0.13559489278E+01  0.71111965901E+01  0.72918888676E+01  0.51100000000E-03 0. -1.
        -11    1    4    4    0    0 -0.15445550978E+02  0.14302966695E+02 -0.77503215502E-01  0.21051031051E+02  0.51100000000E-03 0.  1.
         12    1    4    4    0    0 -0.79920720851E+01 -0.13811381437E+02  0.20558053070E+02  0.26024239076E+02  0.00000000000E+00 0. -1.
</event>
<event>
 8    1  0.1253703E-006  0.9118800E+02  0.7816164E-02  0.1184000E+00
        -11   -1    0    0    0    0  0.00000000000E+00  0.00000000000E+00  0.45593999997E+02  0.45594000000E+02  0.51100000000E-03 0.  1.
         11   -1    0    0    0    0 -0.00000000000E+00 -0.00000000000E+00 -0.45593999997E+02  0.45594000000E+02  0.51100000000E-03 0. -1.
         23    2    1    2    0    0  0.00000000000E+00  0.44408920985E-15 -0.71054273576E-14  0.91188000000E+02  0.91188000000E+02 0.  0.
    9900012    2    3    3    0    0 -0.11447785900E+02 -0.33539290450E+01  0.34835017920E+02  0.54367094042E+02  0.40000022489E+02 0.  0.
         12    1    3    3    0    0  0.11447785900E+02  0.33539290450E+01 -0.34835017920E+02  0.36820905958E+02  0.00000000000E+00 0. -1.
         11    1    4    4    0    0 -0.10330379675E+01  0.98093535944E+01  0.10031875943E+02  0.14068728463E+02  0.51100000000E-03 0. -1.
        -11    1    4    4    0    0 -0.34419129265E+01  0.25108202312E+01 -0.45916972297E+01  0.62637581800E+01  0.51100000000E-03 0.  1.
        -12    1    4    4    0    0 -0.69728350057E+01 -0.15674102871E+02  0.29394839207E+02  0.34034607399E+02  0.00000000000E+00 0.  1.
</event>
<event>
 8    1  0.1253703E-006  0.9118800E+02  0.7816164E-02  0.1184000E+00
        -11   -1    0    0    0    0  0.00000000000E+00  0.00000000000E+00  0.45593999997E+02  0.45594000000E+02  0.51100000000E-03 0.  1.
         11   -1    0    0    0    0 -0.00000000000E+00 -0.00000000000E+00 -0.45593999997E+02  0.45594000000E+02  0.51100000000E-03 0. -1.
         23    2    1    2    0    0  0.71054273576E-14 -0.44408920985E-15 -0.71054273576E-14  0.91188000000E+02  0.91188000000E+02 0.  0.
    9900012    2    3    3    0    0 -0.24538374303E+02 -0.15785922714E+01  0.27407236294E+02  0.54367077031E+02  0.39999983707E+02 0.  0.
         12    1    3    3    0    0  0.24538374303E+02  0.15785922714E+01 -0.27407236294E+02  0.36820922969E+02  0.00000000000E+00 0. -1.
         11    1    4    4    0    0 -0.21395709812E+02  0.21168973580E+01 -0.71763976965E+00  0.21512151447E+02  0.51100000000E-03 0. -1.
        -11    1    4    4    0    0  0.10151903634E+01  0.53556789356E+01  0.40195721489E+01  0.67728036186E+01  0.51100000000E-03 0.  1.
        -12    1    4    4    0    0 -0.41578548549E+01 -0.90511685650E+01  0.24105303915E+02  0.26082121965E+02  0.00000000000E+00 0.  1.
</event>
<event>
 8    1  0.1253703E-006  0.9118800E+02  0.7816164E-02  0.1184000E+00
        -11   -1    0    0    0    0  0.00000000000E+00  0.00000000000E+00  0.45593999997E+02  0.45594000000E+02  0.51100000000E-03 0.  1.
         11   -1    0    0    0    0 -0.00000000000E+00 -0.00000000000E+00 -0.45593999997E+02  0.45594000000E+02  0.51100000000E-03 0. -1.
         23    2    1    2    0    0 -0.17763568394E-14 -0.71054273576E-14  0.00000000000E+00  0.91188000000E+02  0.91188000000E+02 0.  0.
    9900012    2    3    3    0    0  0.14242957203E+02 -0.33542818988E+02  0.52722490038E+01  0.54367093641E+02  0.40000021573E+02 0.  0.
        -12    1    3    3    0    0 -0.14242957203E+02  0.33542818988E+02 -0.52722490038E+01  0.36820906359E+02  0.00000000000E+00 0.  1.
         11    1    4    4    0    0  0.17799778136E+02 -0.22242045222E+02 -0.12442645635E+02  0.31086333139E+02  0.51100000000E-03 0. -1.
        -11    1    4    4    0    0  0.24643202911E+01 -0.70066644933E+01  0.11116896400E+02  0.13369802080E+02  0.51100000000E-03 0.  1.
        -12    1    4    4    0    0 -0.60211412245E+01 -0.42941092729E+01  0.65979982381E+01  0.99109584220E+01  0.00000000000E+00 0.  1.
</event>
<event>
 8    1  0.1253703E-006  0.9118800E+02  0.7816164E-02  0.1184000E+00
        -11   -1    0    0    0    0  0.00000000000E+00  0.00000000000E+00  0.45593999997E+02  0.45594000000E+02  0.51100000000E-03 0. -1.
         11   -1    0    0    0    0 -0.00000000000E+00 -0.00000000000E+00 -0.45593999997E+02  0.45594000000E+02  0.51100000000E-03 0.  1.
         23    2    1    2    0    0  0.00000000000E+00  0.35527136788E-14 -0.35527136788E-14  0.91188000000E+02  0.91188000000E+02 0.  0.
    9900012    2    3    3    0    0  0.26530338801E+02  0.15040743441E+02  0.20632351064E+02  0.54367126157E+02  0.40000095699E+02 0.  0.
        -12    1    3    3    0    0 -0.26530338801E+02 -0.15040743441E+02 -0.20632351064E+02  0.36820873843E+02  0.00000000000E+00 0.  1.
         11    1    4    4    0    0  0.13530668753E+02  0.52256839233E+01  0.16817785036E+02  0.22208661894E+02  0.51100000000E-03 0. -1.
        -11    1    4    4    0    0  0.85120409891E+01  0.19030060749E+02 -0.92182279409E+00  0.20867386310E+02  0.51100000000E-03 0.  1.
        -12    1    4    4    0    0  0.44876290588E+01 -0.92150012304E+01  0.47363888221E+01  0.11291077952E+02  0.00000000000E+00 0.  1.
</event>
<event>
 8    1  0.1253703E-006  0.9118800E+02  0.7816164E-02  0.1184000E+00
        -11   -1    0    0    0    0  0.00000000000E+00  0.00000000000E+00  0.45593999997E+02  0.45594000000E+02  0.51100000000E-03 0. -1.
         11   -1    0    0    0    0 -0.00000000000E+00 -0.00000000000E+00 -0.45593999997E+02  0.45594000000E+02  0.51100000000E-03 0.  1.
         23    2    1    2    0    0  0.00000000000E+00  0.00000000000E+00  0.00000000000E+00  0.91188000000E+02  0.91188000000E+02 0.  0.
    9900012    2    3    3    0    0  0.24687188035E+02  0.15027057839E+02  0.22814705582E+02  0.54367075091E+02  0.39999979285E+02 0.  0.
        -12    1    3    3    0    0 -0.24687188035E+02 -0.15027057839E+02 -0.22814705582E+02  0.36820924909E+02  0.00000000000E+00 0.  1.
         11    1    4    4    0    0  0.95273833435E+01  0.26181777836E+02  0.98031630951E+01  0.29535716192E+02  0.51100000000E-03 0. -1.
        -11    1    4    4    0    0  0.84646559169E+01 -0.40193308941E+00  0.55595198462E+01  0.10135097986E+02  0.51100000000E-03 0.  1.
         12    1    4    4    0    0  0.66951487743E+01 -0.10752786908E+02  0.74520226410E+01  0.14696260914E+02  0.00000000000E+00 0. -1.
</event>
<event>
 8    1  0.1253703E-006  0.9118800E+02  0.7816164E-02  0.1184000E+00
        -11   -1    0    0    0    0  0.00000000000E+00  0.00000000000E+00  0.45593999997E+02  0.45594000000E+02  0.51100000000E-03 0.  1.
         11   -1    0    0    0    0 -0.00000000000E+00 -0.00000000000E+00 -0.45593999997E+02  0.45594000000E+02  0.51100000000E-03 0. -1.
         23    2    1    2    0    0 -0.71054273576E-14  0.44408920985E-15  0.00000000000E+00  0.91188000000E+02  0.91188000000E+02 0.  0.
    9900012    2    3    3    0    0 -0.34546167321E+02  0.11772591792E+01  0.12686926346E+02  0.54367058732E+02  0.39999941991E+02 0.  0.
         12    1    3    3    0    0  0.34546167321E+02 -0.11772591792E+01 -0.12686926346E+02  0.36820941268E+02  0.00000000000E+00 0. -1.
         11    1    4    4    0    0 -0.58226466653E+01  0.82396648740E+01  0.69040765356E+01  0.12225447415E+02  0.51100000000E-03 0. -1.
        -11    1    4    4    0    0 -0.32747738543E+02  0.64658568317E+00  0.25106294886E+01  0.32850201117E+02  0.51100000000E-03 0.  1.
         12    1    4    4    0    0  0.40242178875E+01 -0.77089913780E+01  0.32722203213E+01  0.92914101999E+01  0.00000000000E+00 0. -1.
</event>
<event>
 8    1  0.1253703E-006  0.9118800E+02  0.7816164E-02  0.1184000E+00
        -11   -1    0    0    0    0  0.00000000000E+00  0.00000000000E+00  0.45593999997E+02  0.45594000000E+02  0.51100000000E-03 0. -1.
         11   -1    0    0    0    0 -0.00000000000E+00 -0.00000000000E+00 -0.45593999997E+02  0.45594000000E+02  0.51100000000E-03 0.  1.
         23    2    1    2    0    0  0.00000000000E+00  0.00000000000E+00  0.00000000000E+00  0.91188000000E+02  0.91188000000E+02 0.  0.
    9900012    2    3    3    0    0  0.46833731967E+01 -0.83558400319E+01  0.35553143594E+02  0.54367081128E+02  0.39999993048E+02 0.  0.
        -12    1    3    3    0    0 -0.46833731967E+01  0.83558400319E+01 -0.35553143594E+02  0.36820918872E+02  0.00000000000E+00 0.  1.
         11    1    4    4    0    0 -0.21320818297E+01 -0.17445269907E+01  0.22790990243E+02  0.22956880970E+02  0.51100000000E-03 0. -1.
        -11    1    4    4    0    0  0.10619702704E+02 -0.44130787752E+01 -0.54138092280E+01  0.12710730916E+02  0.51100000000E-03 0.  1.
        -12    1    4    4    0    0 -0.38042476778E+01 -0.21982342660E+01  0.18175962579E+02  0.18699469243E+02  0.00000000000E+00 0.  1.
</event>
<event>
 8    1  0.1253703E-006  0.9118800E+02  0.7816164E-02  0.1184000E+00
        -11   -1    0    0    0    0  0.00000000000E+00  0.00000000000E+00  0.45593999997E+02  0.45594000000E+02  0.51100000000E-03 0. -1.
         11   -1    0    0    0    0 -0.00000000000E+00 -0.00000000000E+00 -0.45593999997E+02  0.45594000000E+02  0.51100000000E-03 0.  1.
         23    2    1    2    0    0  0.00000000000E+00 -0.88817841970E-15  0.00000000000E+00  0.91188000000E+02  0.91188000000E+02 0.  0.
    9900012    2    3    3    0    0 -0.88372058748E+01 -0.42905417768E+01 -0.35486291029E+02  0.54367057488E+02  0.39999939156E+02 0.  0.
         12    1    3    3    0    0  0.88372058748E+01  0.42905417768E+01  0.35486291029E+02  0.36820942512E+02  0.00000000000E+00 0. -1.
         11    1    4    4    0    0  0.87794281092E+01  0.89850646682E+01 -0.75075341676E+01  0.14634644326E+02  0.51100000000E-03 0. -1.
        -11    1    4    4    0    0 -0.32566408192E+01 -0.13446817004E+02 -0.13096327478E+02  0.19050889497E+02  0.51100000000E-03 0.  1.
        -12    1    4    4    0    0 -0.14359993165E+02  0.17121055855E+00 -0.14882429384E+02  0.20681523666E+02  0.00000000000E+00 0.  1.
</event>
<event>
 8    1  0.1253703E-006  0.9118800E+02  0.7816164E-02  0.1184000E+00
        -11   -1    0    0    0    0  0.00000000000E+00  0.00000000000E+00  0.45593999997E+02  0.45594000000E+02  0.51100000000E-03 0.  1.
         11   -1    0    0    0    0 -0.00000000000E+00 -0.00000000000E+00 -0.45593999997E+02  0.45594000000E+02  0.51100000000E-03 0. -1.
         23    2    1    2    0    0  0.00000000000E+00 -0.35527136788E-14  0.17763568394E-14  0.91188000000E+02  0.91188000000E+02 0.  0.
    9900012    2    3    3    0    0  0.22033965562E+02  0.27231110293E+02 -0.11346870792E+02  0.54367075474E+02  0.39999980159E+02 0.  0.
         12    1    3    3    0    0 -0.22033965562E+02 -0.27231110293E+02  0.11346870792E+02  0.36820924526E+02  0.00000000000E+00 0. -1.
         11    1    4    4    0    0  0.13928334296E+02 -0.32158896433E+01  0.24576711989E+01  0.14504502419E+02  0.51100000000E-03 0. -1.
        -11    1    4    4    0    0  0.62763227696E+01 -0.58579297119E+00 -0.25896781219E+01  0.68148231048E+01  0.51100000000E-03 0.  1.
        -12    1    4    4    0    0  0.18293084967E+01  0.31032792907E+02 -0.11214863869E+02  0.33047749951E+02  0.00000000000E+00 0.  1.
</event>
<event>
 8    1  0.1253703E-006  0.9118800E+02  0.7816164E-02  0.1184000E+00
        -11   -1    0    0    0    0  0.00000000000E+00  0.00000000000E+00  0.45593999997E+02  0.45594000000E+02  0.51100000000E-03 0.  1.
         11   -1    0    0    0    0 -0.00000000000E+00 -0.00000000000E+00 -0.45593999997E+02  0.45594000000E+02  0.51100000000E-03 0. -1.
         23    2    1    2    0    0  0.00000000000E+00  0.35527136788E-14 -0.17763568394E-14  0.91188000000E+02  0.91188000000E+02 0.  0.
    9900012    2    3    3    0    0 -0.25899585681E+02  0.22546239625E+02 -0.13291202228E+02  0.54367115758E+02  0.40000071995E+02 0.  0.
         12    1    3    3    0    0  0.25899585681E+02 -0.22546239625E+02  0.13291202228E+02  0.36820884242E+02  0.00000000000E+00 0. -1.
         11    1    4    4    0    0  0.40513614448E+01  0.11146711603E+02  0.23081048834E+01  0.12082634544E+02  0.51100000000E-03 0. -1.
        -11    1    4    4    0    0 -0.11161642376E+02  0.11025486353E+02  0.28537847964E+01  0.15946400778E+02  0.51100000000E-03 0.  1.
        -12    1    4    4    0    0 -0.18789304750E+02  0.37404166991E+00 -0.18453091908E+02  0.26338080437E+02  0.00000000000E+00 0.  1.
</event>
<event>
 8    1  0.1253703E-006  0.9118800E+02  0.7816164E-02  0.1184000E+00
        -11   -1    0    0    0    0  0.00000000000E+00  0.00000000000E+00  0.45593999997E+02  0.45594000000E+02  0.51100000000E-03 0.  1.
         11   -1    0    0    0    0 -0.00000000000E+00 -0.00000000000E+00 -0.45593999997E+02  0.45594000000E+02  0.51100000000E-03 0. -1.
         23    2    1    2    0    0 -0.35527136788E-14  0.00000000000E+00  0.00000000000E+00  0.91188000000E+02  0.91188000000E+02 0.  0.
    9900012    2    3    3    0    0 -0.29122324412E+02  0.12343608745E+02  0.18849571283E+02  0.54367071256E+02  0.39999970542E+02 0.  0.
         12    1    3    3    0    0  0.29122324412E+02 -0.12343608745E+02 -0.18849571283E+02  0.36820928744E+02  0.00000000000E+00 0. -1.
         11    1    4    4    0    0 -0.10530198563E+02  0.25919855376E+01  0.26858662109E+02  0.28965344834E+02  0.51100000000E-03 0.  1.
        -11    1    4    4    0    0  0.73175562781E+00 -0.10997992063E+01  0.80962158551E+00  0.15493585659E+01  0.51100000000E-03 0. -1.
        -12    1    4    4    0    0 -0.19323881477E+02  0.10851422414E+02 -0.88187124114E+01  0.23852367856E+02  0.00000000000E+00 0.  1.
</event>
<event>
 8    1  0.1253703E-006  0.9118800E+02  0.7816164E-02  0.1184000E+00
        -11   -1    0    0    0    0  0.00000000000E+00  0.00000000000E+00  0.45593999997E+02  0.45594000000E+02  0.51100000000E-03 0. -1.
         11   -1    0    0    0    0 -0.00000000000E+00 -0.00000000000E+00 -0.45593999997E+02  0.45594000000E+02  0.51100000000E-03 0.  1.
         23    2    1    2    0    0  0.71054273576E-14 -0.55511151231E-15 -0.17763568394E-14  0.91188000000E+02  0.91188000000E+02 0.  0.
    9900012    2    3    3    0    0  0.35429092752E+02  0.59086344482E+00  0.10010519023E+02  0.54367078991E+02  0.39999988176E+02 0.  0.
        -12    1    3    3    0    0 -0.35429092752E+02 -0.59086344482E+00 -0.10010519023E+02  0.36820921009E+02  0.00000000000E+00 0.  1.
         11    1    4    4    0    0  0.24325159463E+02  0.25328271497E+00  0.88047054997E+01  0.25870840231E+02  0.51100000000E-03 0. -1.
        -11    1    4    4    0    0 -0.58958560900E+01  0.68358442733E+01 -0.35265588679E+01  0.96915686900E+01  0.51100000000E-03 0.  1.
        -12    1    4    4    0    0  0.16999789379E+02 -0.64982635435E+01  0.47323723908E+01  0.18804670070E+02  0.00000000000E+00 0.  1.
</event>
<event>
 8    1  0.1253703E-006  0.9118800E+02  0.7816164E-02  0.1184000E+00
        -11   -1    0    0    0    0  0.00000000000E+00  0.00000000000E+00  0.45593999997E+02  0.45594000000E+02  0.51100000000E-03 0.  1.
         11   -1    0    0    0    0 -0.00000000000E+00 -0.00000000000E+00 -0.45593999997E+02  0.45594000000E+02  0.51100000000E-03 0. -1.
         23    2    1    2    0    0  0.00000000000E+00  0.00000000000E+00 -0.35527136788E-14  0.91188000000E+02  0.91188000000E+02 0.  0.
    9900012    2    3    3    0    0 -0.21522700039E+02  0.23347627611E+02  0.18639668087E+02  0.54367142346E+02  0.40000132606E+02 0.  0.
         12    1    3    3    0    0  0.21522700039E+02 -0.23347627611E+02 -0.18639668087E+02  0.36820857654E+02  0.00000000000E+00 0. -1.
         11    1    4    4    0    0 -0.74441676569E+01 -0.64992933392E+01 -0.36292027994E+00  0.98887894812E+01  0.51100000000E-03 0. -1.
        -11    1    4    4    0    0 -0.33027993744E+01  0.23942218565E+01 -0.50003611362E+01  0.64532467610E+01  0.51100000000E-03 0.  1.
        -12    1    4    4    0    0 -0.10775733007E+02  0.27452699094E+02  0.24002949503E+02  0.38025106104E+02  0.00000000000E+00 0.  1.
</event>
<event>
 8    1  0.1253703E-006  0.9118800E+02  0.7816164E-02  0.1184000E+00
        -11   -1    0    0    0    0  0.00000000000E+00  0.00000000000E+00  0.45593999997E+02  0.45594000000E+02  0.51100000000E-03 0. -1.
         11   -1    0    0    0    0 -0.00000000000E+00 -0.00000000000E+00 -0.45593999997E+02  0.45594000000E+02  0.51100000000E-03 0.  1.
         23    2    1    2    0    0  0.00000000000E+00  0.66613381478E-15 -0.35527136788E-14  0.91188000000E+02  0.91188000000E+02 0.  0.
    9900012    2    3    3    0    0  0.28082180057E+02  0.12047462377E+01 -0.23784866020E+02  0.54367080650E+02  0.39999991957E+02 0.  0.
         12    1    3    3    0    0 -0.28082180057E+02 -0.12047462377E+01  0.23784866020E+02  0.36820919350E+02  0.00000000000E+00 0. -1.
         11    1    4    4    0    0  0.14468557494E+02 -0.12497553134E+02 -0.34714249569E+01  0.19431386513E+02  0.51100000000E-03 0. -1.
        -11    1    4    4    0    0  0.15814524459E+02  0.52508223294E+01 -0.20220447094E+02  0.26201847262E+02  0.51100000000E-03 0.  1.
         12    1    4    4    0    0 -0.22009018968E+01  0.84514770426E+01 -0.92993969050E-01  0.87338468752E+01  0.00000000000E+00 0. -1.
</event>
<event>
 8    1  0.1253703E-006  0.9118800E+02  0.7816164E-02  0.1184000E+00
        -11   -1    0    0    0    0  0.00000000000E+00  0.00000000000E+00  0.45593999997E+02  0.45594000000E+02  0.51100000000E-03 0. -1.
         11   -1    0    0    0    0 -0.00000000000E+00 -0.00000000000E+00 -0.45593999997E+02  0.45594000000E+02  0.51100000000E-03 0.  1.
         23    2    1    2    0    0  0.00000000000E+00  0.17763568394E-14  0.00000000000E+00  0.91188000000E+02  0.91188000000E+02 0.  0.
    9900012    2    3    3    0    0 -0.29913314032E+02  0.84085093446E+01 -0.19755257167E+02  0.54367087851E+02  0.40000008373E+02 0.  0.
         12    1    3    3    0    0  0.29913314032E+02 -0.84085093446E+01  0.19755257167E+02  0.36820912149E+02  0.00000000000E+00 0. -1.
         11    1    4    4    0    0 -0.13979669893E+02  0.67385682300E+01  0.90969539802E+01  0.17988719912E+02  0.51100000000E-03 0. -1.
        -11    1    4    4    0    0 -0.12500350084E+02 -0.57409185788E+01 -0.15475077437E+02  0.20704949173E+02  0.51100000000E-03 0.  1.
         12    1    4    4    0    0 -0.34332940552E+01  0.74108596933E+01 -0.13377133711E+02  0.15673418765E+02  0.00000000000E+00 0. -1.
</event>
<event>
 8    1  0.1253703E-006  0.9118800E+02  0.7816164E-02  0.1184000E+00
        -11   -1    0    0    0    0  0.00000000000E+00  0.00000000000E+00  0.45593999997E+02  0.45594000000E+02  0.51100000000E-03 0. -1.
         11   -1    0    0    0    0 -0.00000000000E+00 -0.00000000000E+00 -0.45593999997E+02  0.45594000000E+02  0.51100000000E-03 0.  1.
         23    2    1    2    0    0 -0.17763568394E-14  0.00000000000E+00 -0.17763568394E-14  0.91188000000E+02  0.91188000000E+02 0.  0.
    9900012    2    3    3    0    0  0.10885972160E+02  0.33455009530E+02 -0.10865192969E+02  0.54366885531E+02  0.39999547142E+02 0.  0.
        -12    1    3    3    0    0 -0.10885972160E+02 -0.33455009530E+02  0.10865192969E+02  0.36821114469E+02  0.00000000000E+00 0.  1.
         11    1    4    4    0    0 -0.70826363653E+01  0.50761923385E+01  0.36266732648E+01  0.94384440334E+01  0.51100000000E-03 0. -1.
        -11    1    4    4    0    0  0.14959061113E+02  0.12457849401E+01 -0.73315275002E+01  0.16705591436E+02  0.51100000000E-03 0.  1.
         12    1    4    4    0    0  0.30095474129E+01  0.27133032251E+02 -0.71603387333E+01  0.28222850061E+02  0.00000000000E+00 0. -1.
</event>
<event>
 8    1  0.1253703E-006  0.9118800E+02  0.7816164E-02  0.1184000E+00
        -11   -1    0    0    0    0  0.00000000000E+00  0.00000000000E+00  0.45593999997E+02  0.45594000000E+02  0.51100000000E-03 0. -1.
         11   -1    0    0    0    0 -0.00000000000E+00 -0.00000000000E+00 -0.45593999997E+02  0.45594000000E+02  0.51100000000E-03 0.  1.
         23    2    1    2    0    0  0.00000000000E+00  0.00000000000E+00  0.00000000000E+00  0.91188000000E+02  0.91188000000E+02 0.  0.
    9900012    2    3    3    0    0 -0.17460561092E+02  0.29560527111E+02 -0.13307325593E+02  0.54367070203E+02  0.39999968141E+02 0.  0.
         12    1    3    3    0    0  0.17460561092E+02 -0.29560527111E+02  0.13307325593E+02  0.36820929797E+02  0.00000000000E+00 0. -1.
         11    1    4    4    0    0 -0.17278814075E+01 -0.12699902358E+01  0.96493350998E+00  0.23514987342E+01  0.51100000000E-03 0. -1.
        -11    1    4    4    0    0 -0.26204840640E+02  0.14416858340E+02 -0.45488915698E+01  0.30252799741E+02  0.51100000000E-03 0.  1.
        -12    1    4    4    0    0  0.10472160956E+02  0.16413659007E+02 -0.97233675329E+01  0.21762771727E+02  0.00000000000E+00 0.  1.
</event>
<event>
 8    1  0.1253703E-006  0.9118800E+02  0.7816164E-02  0.1184000E+00
        -11   -1    0    0    0    0  0.00000000000E+00  0.00000000000E+00  0.45593999997E+02  0.45594000000E+02  0.51100000000E-03 0.  1.
         11   -1    0    0    0    0 -0.00000000000E+00 -0.00000000000E+00 -0.45593999997E+02  0.45594000000E+02  0.51100000000E-03 0. -1.
         23    2    1    2    0    0  0.00000000000E+00  0.00000000000E+00  0.44408920985E-15  0.91188000000E+02  0.91188000000E+02 0.  0.
    9900012    2    3    3    0    0  0.59487384495E+01 -0.36192725040E+02  0.32362953810E+01  0.54367157496E+02  0.40000167143E+02 0.  0.
        -12    1    3    3    0    0 -0.59487384495E+01  0.36192725040E+02 -0.32362953810E+01  0.36820842504E+02  0.00000000000E+00 0.  1.
         11    1    4    4    0    0  0.17079341858E+02 -0.35682980089E+02 -0.48763262557E+01  0.39859221572E+02  0.51100000000E-03 0. -1.
        -11    1    4    4    0    0 -0.31546301296E+01 -0.14438919557E+01  0.45522042753E+01  0.57235547748E+01  0.51100000000E-03 0.  1.
         12    1    4    4    0    0 -0.79759732790E+01  0.93414700526E+00  0.35604173614E+01  0.87843811485E+01  0.00000000000E+00 0. -1.
</event>
<event>
 8    1  0.1253703E-006  0.9118800E+02  0.7816164E-02  0.1184000E+00
        -11   -1    0    0    0    0  0.00000000000E+00  0.00000000000E+00  0.45593999997E+02  0.45594000000E+02  0.51100000000E-03 0. -1.
         11   -1    0    0    0    0 -0.00000000000E+00 -0.00000000000E+00 -0.45593999997E+02  0.45594000000E+02  0.51100000000E-03 0.  1.
         23    2    1    2    0    0  0.00000000000E+00  0.44408920985E-15 -0.17763568394E-14  0.91188000000E+02  0.91188000000E+02 0.  0.
    9900012    2    3    3    0    0  0.36205820394E+02  0.33667600275E+01  0.57954368105E+01  0.54367033264E+02  0.39999883933E+02 0.  0.
        -12    1    3    3    0    0 -0.36205820394E+02 -0.33667600275E+01 -0.57954368105E+01  0.36820966736E+02  0.00000000000E+00 0.  1.
         11    1    4    4    0    0  0.21414311102E+02  0.13510301721E+01  0.21494785229E+02  0.30371430569E+02  0.51100000000E-03 0. -1.
        -11    1    4    4    0    0  0.27769047245E+01 -0.31687944369E+01 -0.10288161581E+01  0.43371558631E+01  0.51100000000E-03 0.  1.
        -12    1    4    4    0    0  0.12014604567E+02  0.51845242922E+01 -0.14670532260E+02  0.19658446832E+02  0.00000000000E+00 0.  1.
</event>
<event>
 8    1  0.1253703E-006  0.9118800E+02  0.7816164E-02  0.1184000E+00
        -11   -1    0    0    0    0  0.00000000000E+00  0.00000000000E+00  0.45593999997E+02  0.45594000000E+02  0.51100000000E-03 0.  1.
         11   -1    0    0    0    0 -0.00000000000E+00 -0.00000000000E+00 -0.45593999997E+02  0.45594000000E+02  0.51100000000E-03 0. -1.
         23    2    1    2    0    0  0.00000000000E+00  0.00000000000E+00  0.88817841970E-15  0.91188000000E+02  0.91188000000E+02 0.  0.
    9900012    2    3    3    0    0  0.32047234554E+02 -0.16427972963E+02 -0.76730319406E+01  0.54367096190E+02  0.40000027384E+02 0.  0.
        -12    1    3    3    0    0 -0.32047234554E+02  0.16427972963E+02  0.76730319406E+01  0.36820903810E+02  0.00000000000E+00 0.  1.
         11    1    4    4    0    0  0.22194514107E+02  0.13504787569E+01  0.74430402161E+01  0.23448221622E+02  0.51100000000E-03 0.  1.
        -11    1    4    4    0    0  0.10906062859E+02 -0.99150425204E+01 -0.17263488506E+02  0.22699742530E+02  0.51100000000E-03 0. -1.
        -12    1    4    4    0    0 -0.10533424128E+01 -0.78634091996E+01  0.21474163490E+01  0.82191320378E+01  0.00000000000E+00 0.  1.
</event>
<event>
 8    1  0.1253703E-006  0.9118800E+02  0.7816164E-02  0.1184000E+00
        -11   -1    0    0    0    0  0.00000000000E+00  0.00000000000E+00  0.45593999997E+02  0.45594000000E+02  0.51100000000E-03 0.  1.
         11   -1    0    0    0    0 -0.00000000000E+00 -0.00000000000E+00 -0.45593999997E+02  0.45594000000E+02  0.51100000000E-03 0. -1.
         23    2    1    2    0    0  0.00000000000E+00  0.00000000000E+00  0.00000000000E+00  0.91188000000E+02  0.91188000000E+02 0.  0.
    9900012    2    3    3    0    0  0.18334037903E+02  0.16517450612E+02  0.27327946626E+02  0.54367084920E+02  0.40000001692E+02 0.  0.
         12    1    3    3    0    0 -0.18334037903E+02 -0.16517450612E+02 -0.27327946626E+02  0.36820915080E+02  0.00000000000E+00 0. -1.
         11    1    4    4    0    0  0.66954172736E+00  0.14470820527E+02  0.24678466150E+02  0.28616072837E+02  0.51100000000E-03 0. -1.
        -11    1    4    4    0    0  0.18488675808E+02  0.42369571774E+01 -0.33949317598E+01  0.19269366912E+02  0.51100000000E-03 0.  1.
        -12    1    4    4    0    0 -0.82417963283E+00 -0.21903270931E+01  0.60444122362E+01  0.64816451710E+01  0.00000000000E+00 0.  1.
</event>
<event>
 8    1  0.1253703E-006  0.9118800E+02  0.7816164E-02  0.1184000E+00
        -11   -1    0    0    0    0  0.00000000000E+00  0.00000000000E+00  0.45593999997E+02  0.45594000000E+02  0.51100000000E-03 0.  1.
         11   -1    0    0    0    0 -0.00000000000E+00 -0.00000000000E+00 -0.45593999997E+02  0.45594000000E+02  0.51100000000E-03 0. -1.
         23    2    1    2    0    0 -0.35527136788E-14 -0.99920072216E-15  0.71054273576E-14  0.91188000000E+02  0.91188000000E+02 0.  0.
    9900012    2    3    3    0    0  0.24973563151E+02 -0.33875912309E+00 -0.27055235325E+02  0.54367090551E+02  0.40000014529E+02 0.  0.
        -12    1    3    3    0    0 -0.24973563151E+02  0.33875912309E+00  0.27055235325E+02  0.36820909449E+02  0.00000000000E+00 0.  1.
         11    1    4    4    0    0  0.10333395514E+02  0.13689349371E+01 -0.52807499149E+01  0.11685006018E+02  0.51100000000E-03 0. -1.
        -11    1    4    4    0    0  0.52169142429E+01  0.15603401667E+02 -0.13594823630E+02  0.21342482695E+02  0.51100000000E-03 0.  1.
         12    1    4    4    0    0  0.94232533937E+01 -0.17311095727E+02 -0.81796617802E+01  0.21339601838E+02  0.00000000000E+00 0. -1.
</event>
<event>
 8    1  0.1253703E-006  0.9118800E+02  0.7816164E-02  0.1184000E+00
        -11   -1    0    0    0    0  0.00000000000E+00  0.00000000000E+00  0.45593999997E+02  0.45594000000E+02  0.51100000000E-03 0.  1.
         11   -1    0    0    0    0 -0.00000000000E+00 -0.00000000000E+00 -0.45593999997E+02  0.45594000000E+02  0.51100000000E-03 0. -1.
         23    2    1    2    0    0 -0.88817841970E-15 -0.35527136788E-14  0.35527136788E-14  0.91188000000E+02  0.91188000000E+02 0.  0.
    9900012    2    3    3    0    0 -0.44695898114E+01  0.26790077338E+02 -0.24861476194E+02  0.54367102735E+02  0.40000042305E+02 0.  0.
        -12    1    3    3    0    0  0.44695898114E+01 -0.26790077338E+02  0.24861476194E+02  0.36820897265E+02  0.00000000000E+00 0.  1.
         11    1    4    4    0    0  0.81074377946E+01  0.15931280790E+01 -0.47889068991E+01  0.95499860848E+01  0.51100000000E-03 0. -1.
        -11    1    4    4    0    0  0.83641522898E+01  0.91475276914E+01 -0.13567856970E+01  0.12469048644E+02  0.51100000000E-03 0.  1.
        -12    1    4    4    0    0 -0.20941179896E+02  0.16049421567E+02 -0.18715783598E+02  0.32348068007E+02  0.00000000000E+00 0.  1.
</event>
<event>
 8    1  0.1253703E-006  0.9118800E+02  0.7816164E-02  0.1184000E+00
        -11   -1    0    0    0    0  0.00000000000E+00  0.00000000000E+00  0.45593999997E+02  0.45594000000E+02  0.51100000000E-03 0. -1.
         11   -1    0    0    0    0 -0.00000000000E+00 -0.00000000000E+00 -0.45593999997E+02  0.45594000000E+02  0.51100000000E-03 0.  1.
         23    2    1    2    0    0  0.35527136788E-14  0.35527136788E-14  0.00000000000E+00  0.91188000000E+02  0.91188000000E+02 0.  0.
    9900012    2    3    3    0    0  0.16435064173E+02  0.21880573052E+02 -0.24635528099E+02  0.54367081270E+02  0.39999993371E+02 0.  0.
         12    1    3    3    0    0 -0.16435064173E+02 -0.21880573052E+02  0.24635528099E+02  0.36820918730E+02  0.00000000000E+00 0. -1.
         11    1    4    4    0    0  0.21138214328E+01  0.13787176624E+01 -0.92802866592E+01  0.96173189705E+01  0.51100000000E-03 0.  1.
        -11    1    4    4    0    0 -0.74072656923E+00  0.25837589460E+02 -0.11619358118E+02  0.28339710448E+02  0.51100000000E-03 0. -1.
         12    1    4    4    0    0  0.15061969310E+02 -0.53357340710E+01 -0.37358833216E+01  0.16410051851E+02  0.00000000000E+00 0. -1.
</event>
<event>
 8    1  0.1253703E-006  0.9118800E+02  0.7816164E-02  0.1184000E+00
        -11   -1    0    0    0    0  0.00000000000E+00  0.00000000000E+00  0.45593999997E+02  0.45594000000E+02  0.51100000000E-03 0.  1.
         11   -1    0    0    0    0 -0.00000000000E+00 -0.00000000000E+00 -0.45593999997E+02  0.45594000000E+02  0.51100000000E-03 0. -1.
         23    2    1    2    0    0  0.00000000000E+00 -0.71054273576E-14  0.00000000000E+00  0.91188000000E+02  0.91188000000E+02 0.  0.
    9900012    2    3    3    0    0 -0.11307560400E+02  0.32415796926E+02 -0.13309203473E+02  0.54367085975E+02  0.40000004097E+02 0.  0.
        -12    1    3    3    0    0  0.11307560400E+02 -0.32415796926E+02  0.13309203473E+02  0.36820914025E+02  0.00000000000E+00 0.  1.
         11    1    4    4    0    0 -0.41178716056E+01  0.33303985243E+02 -0.25437655758E+00  0.33558560865E+02  0.51100000000E-03 0. -1.
        -11    1    4    4    0    0 -0.66576405021E+01 -0.68783189702E+01 -0.10681884660E+02  0.14343573790E+02  0.51100000000E-03 0.  1.
        -12    1    4    4    0    0 -0.53204829272E+00  0.59901306526E+01 -0.23729422555E+01  0.64649513199E+01  0.00000000000E+00 0.  1.
</event>
<event>
 8    1  0.1253703E-006  0.9118800E+02  0.7816164E-02  0.1184000E+00
        -11   -1    0    0    0    0  0.00000000000E+00  0.00000000000E+00  0.45593999997E+02  0.45594000000E+02  0.51100000000E-03 0.  1.
         11   -1    0    0    0    0 -0.00000000000E+00 -0.00000000000E+00 -0.45593999997E+02  0.45594000000E+02  0.51100000000E-03 0. -1.
         23    2    1    2    0    0 -0.35527136788E-14  0.00000000000E+00  0.00000000000E+00  0.91188000000E+02  0.91188000000E+02 0.  0.
    9900012    2    3    3    0    0  0.20236891731E+02 -0.24391554236E+02 -0.18742994196E+02  0.54367088327E+02  0.40000009460E+02 0.  0.
        -12    1    3    3    0    0 -0.20236891731E+02  0.24391554236E+02  0.18742994196E+02  0.36820911673E+02  0.00000000000E+00 0.  1.
         11    1    4    4    0    0  0.23904326236E+02 -0.23251161114E+02 -0.17617419470E+02  0.37714808431E+02  0.51100000000E-03 0. -1.
        -11    1    4    4    0    0 -0.42311838748E+00 -0.80274542838E+00  0.74356008212E+01  0.74907669318E+01  0.51100000000E-03 0.  1.
         12    1    4    4    0    0 -0.32443161175E+01 -0.33764769286E+00 -0.85611755477E+01  0.91615129642E+01  0.00000000000E+00 0. -1.
</event>
<event>
 8    1  0.1253703E-006  0.9118800E+02  0.7816164E-02  0.1184000E+00
        -11   -1    0    0    0    0  0.00000000000E+00  0.00000000000E+00  0.45593999997E+02  0.45594000000E+02  0.51100000000E-03 0. -1.
         11   -1    0    0    0    0 -0.00000000000E+00 -0.00000000000E+00 -0.45593999997E+02  0.45594000000E+02  0.51100000000E-03 0.  1.
         23    2    1    2    0    0 -0.71054273576E-14 -0.11102230246E-14  0.00000000000E+00  0.91188000000E+02  0.91188000000E+02 0.  0.
    9900012    2    3    3    0    0  0.34874680351E+02 -0.10096974790E+01  0.11769328548E+02  0.54367083213E+02  0.39999997801E+02 0.  0.
        -12    1    3    3    0    0 -0.34874680351E+02  0.10096974790E+01 -0.11769328548E+02  0.36820916787E+02  0.00000000000E+00 0.  1.
         11    1    4    4    0    0 -0.28070567960E+00  0.86526951290E+01 -0.82839436876E+00  0.86967905669E+01  0.51100000000E-03 0. -1.
        -11    1    4    4    0    0  0.81455303882E+01  0.79381248515E+01  0.56154018538E+01  0.12684487759E+02  0.51100000000E-03 0.  1.
        -12    1    4    4    0    0  0.27009855642E+02 -0.17600517459E+02  0.69823210631E+01  0.32985804887E+02  0.00000000000E+00 0.  1.
</event>
<event>
 8    1  0.1253703E-006  0.9118800E+02  0.7816164E-02  0.1184000E+00
        -11   -1    0    0    0    0  0.00000000000E+00  0.00000000000E+00  0.45593999997E+02  0.45594000000E+02  0.51100000000E-03 0.  1.
         11   -1    0    0    0    0 -0.00000000000E+00 -0.00000000000E+00 -0.45593999997E+02  0.45594000000E+02  0.51100000000E-03 0. -1.
         23    2    1    2    0    0 -0.11102230246E-14  0.00000000000E+00  0.00000000000E+00  0.91188000000E+02  0.91188000000E+02 0.  0.
    9900012    2    3    3    0    0  0.90010367941E+00  0.21304004726E+02  0.30018478078E+02  0.54367084339E+02  0.40000000368E+02 0.  0.
         12    1    3    3    0    0 -0.90010367941E+00 -0.21304004726E+02 -0.30018478078E+02  0.36820915661E+02  0.00000000000E+00 0. -1.
         11    1    4    4    0    0  0.11016922253E+02  0.10328376271E+02  0.14654356413E+02  0.21042768223E+02  0.51100000000E-03 0. -1.
        -11    1    4    4    0    0 -0.88578276734E+01  0.15115827171E+02  0.20263628540E+02  0.26787384793E+02  0.51100000000E-03 0.  1.
        -12    1    4    4    0    0 -0.12589909007E+01 -0.41401987169E+01 -0.48995068753E+01  0.65369313232E+01  0.00000000000E+00 0.  1.
</event>
<event>
 8    1  0.1253703E-006  0.9118800E+02  0.7816164E-02  0.1184000E+00
        -11   -1    0    0    0    0  0.00000000000E+00  0.00000000000E+00  0.45593999997E+02  0.45594000000E+02  0.51100000000E-03 0.  1.
         11   -1    0    0    0    0 -0.00000000000E+00 -0.00000000000E+00 -0.45593999997E+02  0.45594000000E+02  0.51100000000E-03 0. -1.
         23    2    1    2    0    0  0.00000000000E+00  0.53290705182E-14  0.00000000000E+00  0.91188000000E+02  0.91188000000E+02 0.  0.
    9900012    2    3    3    0    0 -0.32515453311E+02 -0.14874268076E+02  0.87909975543E+01  0.54367079414E+02  0.39999989139E+02 0.  0.
         12    1    3    3    0    0  0.32515453311E+02  0.14874268076E+02 -0.87909975543E+01  0.36820920586E+02  0.00000000000E+00 0. -1.
         11    1    4    4    0    0 -0.14990257669E+01  0.22068232925E+01 -0.63738501654E+01  0.69096391719E+01  0.51100000000E-03 0. -1.
        -11    1    4    4    0    0  0.22333178031E+01  0.29803792795E+01  0.67708139593E+01  0.77275022479E+01  0.51100000000E-03 0.  1.
         12    1    4    4    0    0 -0.33249745347E+02 -0.20061470648E+02  0.83940337604E+01  0.39729937994E+02  0.00000000000E+00 0. -1.
</event>
<event>
 8    1  0.1253703E-006  0.9118800E+02  0.7816164E-02  0.1184000E+00
        -11   -1    0    0    0    0  0.00000000000E+00  0.00000000000E+00  0.45593999997E+02  0.45594000000E+02  0.51100000000E-03 0.  1.
         11   -1    0    0    0    0 -0.00000000000E+00 -0.00000000000E+00 -0.45593999997E+02  0.45594000000E+02  0.51100000000E-03 0. -1.
         23    2    1    2    0    0 -0.35527136788E-14  0.35527136788E-14 -0.35527136788E-14  0.91188000000E+02  0.91188000000E+02 0.  0.
    9900012    2    3    3    0    0  0.17696031244E+02 -0.11186031794E+02  0.30290313362E+02  0.54367083218E+02  0.39999997813E+02 0.  0.
         12    1    3    3    0    0 -0.17696031244E+02  0.11186031794E+02 -0.30290313362E+02  0.36820916782E+02  0.00000000000E+00 0. -1.
         11    1    4    4    0    0 -0.14838148089E+01 -0.23871469070E+01 -0.23171809902E+01  0.36427331422E+01  0.51100000000E-03 0. -1.
        -11    1    4    4    0    0  0.61258372710E+01  0.11874351844E+02  0.17372591308E+02  0.21916501614E+02  0.51100000000E-03 0.  1.
         12    1    4    4    0    0  0.13054008782E+02 -0.20673236731E+02  0.15234903044E+02  0.28807848462E+02  0.00000000000E+00 0. -1.
</event>
<event>
 8    1  0.1253703E-006  0.9118800E+02  0.7816164E-02  0.1184000E+00
        -11   -1    0    0    0    0  0.00000000000E+00  0.00000000000E+00  0.45593999997E+02  0.45594000000E+02  0.51100000000E-03 0. -1.
         11   -1    0    0    0    0 -0.00000000000E+00 -0.00000000000E+00 -0.45593999997E+02  0.45594000000E+02  0.51100000000E-03 0.  1.
         23    2    1    2    0    0  0.00000000000E+00  0.17763568394E-14  0.88817841970E-15  0.91188000000E+02  0.91188000000E+02 0.  0.
    9900012    2    3    3    0    0  0.36103714831E+02  0.40899425207E+01 -0.59645098253E+01  0.54367065304E+02  0.39999956975E+02 0.  0.
         12    1    3    3    0    0 -0.36103714831E+02 -0.40899425207E+01  0.59645098253E+01  0.36820934696E+02  0.00000000000E+00 0. -1.
         11    1    4    4    0    0  0.75775306806E+01 -0.13448819211E+02 -0.22714662442E+01  0.15602860909E+02  0.51100000000E-03 0. -1.
        -11    1    4    4    0    0  0.21087878028E+01  0.26855320527E+01 -0.74793276366E+01  0.82218860707E+01  0.51100000000E-03 0.  1.
         12    1    4    4    0    0  0.26417396347E+02  0.14853229679E+02  0.37862840554E+01  0.30542318324E+02  0.00000000000E+00 0. -1.
</event>
<event>
 8    1  0.1253703E-006  0.9118800E+02  0.7816164E-02  0.1184000E+00
        -11   -1    0    0    0    0  0.00000000000E+00  0.00000000000E+00  0.45593999997E+02  0.45594000000E+02  0.51100000000E-03 0.  1.
         11   -1    0    0    0    0 -0.00000000000E+00 -0.00000000000E+00 -0.45593999997E+02  0.45594000000E+02  0.51100000000E-03 0. -1.
         23    2    1    2    0    0 -0.17763568394E-14 -0.35527136788E-14 -0.35527136788E-14  0.91188000000E+02  0.91188000000E+02 0.  0.
    9900012    2    3    3    0    0 -0.15623798307E+02 -0.23904673333E+02 -0.23243200594E+02  0.54367043270E+02  0.39999906742E+02 0.  0.
        -12    1    3    3    0    0  0.15623798307E+02  0.23904673333E+02  0.23243200594E+02  0.36820956730E+02  0.00000000000E+00 0.  1.
         11    1    4    4    0    0  0.67264027270E+01 -0.18711032148E+02 -0.72340624204E+01  0.21158423312E+02  0.51100000000E-03 0. -1.
        -11    1    4    4    0    0 -0.93902308281E+01  0.33313771705E+01 -0.14540608936E+02  0.17626792600E+02  0.51100000000E-03 0.  1.
         12    1    4    4    0    0 -0.12959970205E+02 -0.85250183555E+01 -0.14685292375E+01  0.15581827358E+02  0.00000000000E+00 0. -1.
</event>
<event>
 8    1  0.1253703E-006  0.9118800E+02  0.7816164E-02  0.1184000E+00
        -11   -1    0    0    0    0  0.00000000000E+00  0.00000000000E+00  0.45593999997E+02  0.45594000000E+02  0.51100000000E-03 0. -1.
         11   -1    0    0    0    0 -0.00000000000E+00 -0.00000000000E+00 -0.45593999997E+02  0.45594000000E+02  0.51100000000E-03 0.  1.
         23    2    1    2    0    0  0.00000000000E+00  0.00000000000E+00  0.00000000000E+00  0.91188000000E+02  0.91188000000E+02 0.  0.
    9900012    2    3    3    0    0  0.16515886998E+02  0.28140462512E+02 -0.17062235769E+02  0.54367081446E+02  0.39999993773E+02 0.  0.
        -12    1    3    3    0    0 -0.16515886998E+02 -0.28140462512E+02  0.17062235769E+02  0.36820918554E+02  0.00000000000E+00 0.  1.
         11    1    4    4    0    0  0.64203053161E+01  0.23975447598E+02 -0.33883252490E+01  0.25050412295E+02  0.51100000000E-03 0. -1.
        -11    1    4    4    0    0 -0.15739307178E+01  0.92632957923E+01  0.14914436439E+01  0.95136907267E+01  0.51100000000E-03 0.  1.
        -12    1    4    4    0    0  0.11669512400E+02 -0.50982808786E+01 -0.15165354164E+02  0.19802978424E+02  0.00000000000E+00 0.  1.
</event>
<event>
 8    1  0.1253703E-006  0.9118800E+02  0.7816164E-02  0.1184000E+00
        -11   -1    0    0    0    0  0.00000000000E+00  0.00000000000E+00  0.45593999997E+02  0.45594000000E+02  0.51100000000E-03 0.  1.
         11   -1    0    0    0    0 -0.00000000000E+00 -0.00000000000E+00 -0.45593999997E+02  0.45594000000E+02  0.51100000000E-03 0. -1.
         23    2    1    2    0    0  0.71054273576E-14  0.35527136788E-14 -0.35527136788E-14  0.91188000000E+02  0.91188000000E+02 0.  0.
    9900012    2    3    3    0    0 -0.19592682930E+02 -0.30120979918E+02  0.80395068739E+01  0.54367077600E+02  0.39999985004E+02 0.  0.
         12    1    3    3    0    0  0.19592682930E+02  0.30120979918E+02 -0.80395068739E+01  0.36820922400E+02  0.00000000000E+00 0. -1.
         11    1    4    4    0    0  0.60677078347E+01 -0.75147439644E+01  0.19411126842E+01  0.98517193388E+01  0.51100000000E-03 0. -1.
        -11    1    4    4    0    0  0.10035293028E+01  0.43844294505E+01 -0.31166322309E+01  0.54720827289E+01  0.51100000000E-03 0.  1.
        -12    1    4    4    0    0 -0.26663920068E+02 -0.26990665404E+02  0.92150264206E+01  0.39043275532E+02  0.00000000000E+00 0.  1.
</event>
<event>
 8    1  0.1253703E-006  0.9118800E+02  0.7816164E-02  0.1184000E+00
        -11   -1    0    0    0    0  0.00000000000E+00  0.00000000000E+00  0.45593999997E+02  0.45594000000E+02  0.51100000000E-03 0.  1.
         11   -1    0    0    0    0 -0.00000000000E+00 -0.00000000000E+00 -0.45593999997E+02  0.45594000000E+02  0.51100000000E-03 0. -1.
         23    2    1    2    0    0  0.00000000000E+00 -0.17763568394E-14  0.00000000000E+00  0.91188000000E+02  0.91188000000E+02 0.  0.
    9900012    2    3    3    0    0 -0.18450157709E+02 -0.99142477546E+01 -0.30283312803E+02  0.54367086617E+02  0.40000005561E+02 0.  0.
        -12    1    3    3    0    0  0.18450157709E+02  0.99142477546E+01  0.30283312803E+02  0.36820913383E+02  0.00000000000E+00 0.  1.
         11    1    4    4    0    0  0.60450182258E+01  0.27026384295E+01 -0.22851912640E+02  0.23791940051E+02  0.51100000000E-03 0. -1.
        -11    1    4    4    0    0 -0.13287506869E+02 -0.54086034073E+01 -0.93326851447E+01  0.17114609019E+02  0.51100000000E-03 0.  1.
         12    1    4    4    0    0 -0.11207669066E+02 -0.72082827768E+01  0.19012849809E+01  0.13460537547E+02  0.00000000000E+00 0. -1.
</event>
<event>
 8    1  0.1253703E-006  0.9118800E+02  0.7816164E-02  0.1184000E+00
        -11   -1    0    0    0    0  0.00000000000E+00  0.00000000000E+00  0.45593999997E+02  0.45594000000E+02  0.51100000000E-03 0.  1.
         11   -1    0    0    0    0 -0.00000000000E+00 -0.00000000000E+00 -0.45593999997E+02  0.45594000000E+02  0.51100000000E-03 0. -1.
         23    2    1    2    0    0  0.17763568394E-14  0.00000000000E+00  0.00000000000E+00  0.91188000000E+02  0.91188000000E+02 0.  0.
    9900012    2    3    3    0    0 -0.92879836229E+01  0.26219250296E+02  0.24126005651E+02  0.54367083735E+02  0.39999998991E+02 0.  0.
        -12    1    3    3    0    0  0.92879836229E+01 -0.26219250296E+02 -0.24126005651E+02  0.36820916265E+02  0.00000000000E+00 0.  1.
         11    1    4    4    0    0 -0.23235838930E+02  0.22185508123E+02  0.13745140095E+02  0.34943237657E+02  0.51100000000E-03 0. -1.
        -11    1    4    4    0    0  0.17498489647E+01 -0.31494818018E+00  0.51658006005E+01  0.54632096666E+01  0.51100000000E-03 0.  1.
         12    1    4    4    0    0  0.12198006343E+02  0.43486903536E+01  0.52150649561E+01  0.13960636412E+02  0.00000000000E+00 0. -1.
</event>
<event>
 8    1  0.1253703E-006  0.9118800E+02  0.7816164E-02  0.1184000E+00
        -11   -1    0    0    0    0  0.00000000000E+00  0.00000000000E+00  0.45593999997E+02  0.45594000000E+02  0.51100000000E-03 0. -1.
         11   -1    0    0    0    0 -0.00000000000E+00 -0.00000000000E+00 -0.45593999997E+02  0.45594000000E+02  0.51100000000E-03 0.  1.
         23    2    1    2    0    0  0.00000000000E+00 -0.88817841970E-15  0.35527136788E-14  0.91188000000E+02  0.91188000000E+02 0.  0.
    9900012    2    3    3    0    0  0.24799639531E+02  0.40556684120E+01 -0.26912995367E+02  0.54367083570E+02  0.39999998614E+02 0.  0.
         12    1    3    3    0    0 -0.24799639531E+02 -0.40556684120E+01  0.26912995367E+02  0.36820916430E+02  0.00000000000E+00 0. -1.
         11    1    4    4    0    0  0.40024655347E+01  0.97394145647E+01 -0.26140625823E+01  0.10849389378E+02  0.51100000000E-03 0. -1.
        -11    1    4    4    0    0  0.35571951639E+01  0.11329234557E+02 -0.76111856023E+01  0.14104443967E+02  0.51100000000E-03 0.  1.
        -12    1    4    4    0    0  0.17239978832E+02 -0.17012980710E+02 -0.16687747183E+02  0.29413250225E+02  0.00000000000E+00 0.  1.
</event>
<event>
 8    1  0.1253703E-006  0.9118800E+02  0.7816164E-02  0.1184000E+00
        -11   -1    0    0    0    0  0.00000000000E+00  0.00000000000E+00  0.45593999997E+02  0.45594000000E+02  0.51100000000E-03 0.  1.
         11   -1    0    0    0    0 -0.00000000000E+00 -0.00000000000E+00 -0.45593999997E+02  0.45594000000E+02  0.51100000000E-03 0. -1.
         23    2    1    2    0    0  0.17763568394E-14  0.00000000000E+00  0.00000000000E+00  0.91188000000E+02  0.91188000000E+02 0.  0.
    9900012    2    3    3    0    0 -0.98891498511E+01 -0.17145506929E+02  0.31048626957E+02  0.54367069423E+02  0.39999966364E+02 0.  0.
         12    1    3    3    0    0  0.98891498511E+01  0.17145506929E+02 -0.31048626957E+02  0.36820930577E+02  0.00000000000E+00 0. -1.
         11    1    4    4    0    0  0.49158276234E+01  0.27391537533E+01 -0.27028049302E+01  0.62428742787E+01  0.51100000000E-03 0. -1.
        -11    1    4    4    0    0  0.56055253956E+01 -0.64183043840E+01  0.34660712736E+01  0.91994671835E+01  0.51100000000E-03 0.  1.
        -12    1    4    4    0    0 -0.20410502870E+02 -0.13466356299E+02  0.30285360613E+02  0.38924727961E+02  0.00000000000E+00 0.  1.
</event>
<event>
 8    1  0.1253703E-006  0.9118800E+02  0.7816164E-02  0.1184000E+00
        -11   -1    0    0    0    0  0.00000000000E+00  0.00000000000E+00  0.45593999997E+02  0.45594000000E+02  0.51100000000E-03 0.  1.
         11   -1    0    0    0    0 -0.00000000000E+00 -0.00000000000E+00 -0.45593999997E+02  0.45594000000E+02  0.51100000000E-03 0. -1.
         23    2    1    2    0    0  0.00000000000E+00 -0.44408920985E-15 -0.88817841970E-15  0.91188000000E+02  0.91188000000E+02 0.  0.
    9900012    2    3    3    0    0  0.36428250539E+02  0.27161863483E+01  0.46244334906E+01  0.54367075368E+02  0.39999979917E+02 0.  0.
        -12    1    3    3    0    0 -0.36428250539E+02 -0.27161863483E+01 -0.46244334906E+01  0.36820924632E+02  0.00000000000E+00 0.  1.
         11    1    4    4    0    0  0.23399596333E+02 -0.32678984257E+01 -0.18204527704E+01  0.23696715326E+02  0.51100000000E-03 0. -1.
        -11    1    4    4    0    0  0.50196720516E+01 -0.15205568884E+01 -0.97707533903E+01  0.11089491550E+02  0.51100000000E-03 0.  1.
        -12    1    4    4    0    0  0.80089821543E+01  0.75046416624E+01  0.16215639651E+02  0.19580868493E+02  0.00000000000E+00 0.  1.
</event>
<event>
 8    1  0.1253703E-006  0.9118800E+02  0.7816164E-02  0.1184000E+00
        -11   -1    0    0    0    0  0.00000000000E+00  0.00000000000E+00  0.45593999997E+02  0.45594000000E+02  0.51100000000E-03 0. -1.
         11   -1    0    0    0    0 -0.00000000000E+00 -0.00000000000E+00 -0.45593999997E+02  0.45594000000E+02  0.51100000000E-03 0.  1.
         23    2    1    2    0    0  0.00000000000E+00 -0.35527136788E-14  0.35527136788E-14  0.91188000000E+02  0.91188000000E+02 0.  0.
    9900012    2    3    3    0    0  0.16371015142E+02 -0.21577512068E+02  0.24943552934E+02  0.54367082076E+02  0.39999995208E+02 0.  0.
        -12    1    3    3    0    0 -0.16371015142E+02  0.21577512068E+02 -0.24943552934E+02  0.36820917924E+02  0.00000000000E+00 0.  1.
         11    1    4    4    0    0  0.15538918165E+02 -0.26961425061E+02  0.24528533872E+02  0.39623545945E+02  0.51100000000E-03 0. -1.
        -11    1    4    4    0    0  0.37481731933E+01 -0.25332500055E+01 -0.32238855606E+01  0.55551414245E+01  0.51100000000E-03 0.  1.
        -12    1    4    4    0    0 -0.29160762165E+01  0.79171629981E+01  0.36389046220E+01  0.91883947067E+01  0.00000000000E+00 0.  1.
</event>
<event>
 8    1  0.1253703E-006  0.9118800E+02  0.7816164E-02  0.1184000E+00
        -11   -1    0    0    0    0  0.00000000000E+00  0.00000000000E+00  0.45593999997E+02  0.45594000000E+02  0.51100000000E-03 0.  1.
         11   -1    0    0    0    0 -0.00000000000E+00 -0.00000000000E+00 -0.45593999997E+02  0.45594000000E+02  0.51100000000E-03 0. -1.
         23    2    1    2    0    0 -0.73552275381E-15 -0.35527136788E-14  0.00000000000E+00  0.91188000000E+02  0.91188000000E+02 0.  0.
    9900012    2    3    3    0    0  0.62289769878E-01  0.48751009866E+01 -0.36496690804E+02  0.54367096571E+02  0.40000028254E+02 0.  0.
        -12    1    3    3    0    0 -0.62289769878E-01 -0.48751009866E+01  0.36496690804E+02  0.36820903429E+02  0.00000000000E+00 0.  1.
         11    1    4    4    0    0 -0.88951392416E+01 -0.12042234478E+02 -0.12026739183E+02  0.19203681131E+02  0.51100000000E-03 0. -1.
        -11    1    4    4    0    0  0.26964182638E+01  0.15530340798E+01  0.21600744790E+01  0.37879424919E+01  0.51100000000E-03 0.  1.
         12    1    4    4    0    0  0.62610107478E+01  0.15364301385E+02 -0.26630026100E+02  0.31375472948E+02  0.00000000000E+00 0. -1.
</event>
<event>
 8    1  0.1253703E-006  0.9118800E+02  0.7816164E-02  0.1184000E+00
        -11   -1    0    0    0    0  0.00000000000E+00  0.00000000000E+00  0.45593999997E+02  0.45594000000E+02  0.51100000000E-03 0.  1.
         11   -1    0    0    0    0 -0.00000000000E+00 -0.00000000000E+00 -0.45593999997E+02  0.45594000000E+02  0.51100000000E-03 0. -1.
         23    2    1    2    0    0 -0.17763568394E-14  0.00000000000E+00  0.00000000000E+00  0.91188000000E+02  0.91188000000E+02 0.  0.
    9900012    2    3    3    0    0 -0.13154497252E+02  0.16634756907E+02 -0.30100247258E+02  0.54367070893E+02  0.39999969715E+02 0.  0.
        -12    1    3    3    0    0  0.13154497252E+02 -0.16634756907E+02  0.30100247258E+02  0.36820929107E+02  0.00000000000E+00 0.  1.
         11    1    4    4    0    0 -0.23861963148E+01 -0.50874138392E+01 -0.21545032237E+02  0.22265761311E+02  0.51100000000E-03 0. -1.
        -11    1    4    4    0    0 -0.67041108752E+01  0.14826858812E+01  0.39934699028E+01  0.79430008294E+01  0.51100000000E-03 0.  1.
        -12    1    4    4    0    0 -0.40641900617E+01  0.20239484865E+02 -0.12548684924E+02  0.24158308753E+02  0.00000000000E+00 0.  1.
</event>
<event>
 8    1  0.1253703E-006  0.9118800E+02  0.7816164E-02  0.1184000E+00
        -11   -1    0    0    0    0  0.00000000000E+00  0.00000000000E+00  0.45593999997E+02  0.45594000000E+02  0.51100000000E-03 0. -1.
         11   -1    0    0    0    0 -0.00000000000E+00 -0.00000000000E+00 -0.45593999997E+02  0.45594000000E+02  0.51100000000E-03 0.  1.
         23    2    1    2    0    0 -0.35527136788E-14 -0.22204460493E-15  0.35527136788E-14  0.91188000000E+02  0.91188000000E+02 0.  0.
    9900012    2    3    3    0    0 -0.31157864232E+02  0.17398342890E+01  0.19543301570E+02  0.54367079817E+02  0.39999990060E+02 0.  0.
        -12    1    3    3    0    0  0.31157864232E+02 -0.17398342890E+01 -0.19543301570E+02  0.36820920183E+02  0.00000000000E+00 0.  1.
         11    1    4    4    0    0 -0.76136538420E+01  0.37300225724E+01 -0.98469316425E+01  0.12993954604E+02  0.51100000000E-03 0.  1.
        -11    1    4    4    0    0 -0.50040442463E+01 -0.70849519282E+01  0.15110409528E+02  0.17423015784E+02  0.51100000000E-03 0. -1.
         12    1    4    4    0    0 -0.18540166143E+02  0.50947636448E+01  0.14279823684E+02  0.23950109429E+02  0.00000000000E+00 0. -1.
</event>
<event>
 8    1  0.1253703E-006  0.9118800E+02  0.7816164E-02  0.1184000E+00
        -11   -1    0    0    0    0  0.00000000000E+00  0.00000000000E+00  0.45593999997E+02  0.45594000000E+02  0.51100000000E-03 0. -1.
         11   -1    0    0    0    0 -0.00000000000E+00 -0.00000000000E+00 -0.45593999997E+02  0.45594000000E+02  0.51100000000E-03 0.  1.
         23    2    1    2    0    0  0.00000000000E+00  0.00000000000E+00 -0.17763568394E-14  0.91188000000E+02  0.91188000000E+02 0.  0.
    9900012    2    3    3    0    0 -0.10253969581E+01 -0.36625704771E+02 -0.36429466801E+01  0.54367289124E+02  0.40000467213E+02 0.  0.
         12    1    3    3    0    0  0.10253969581E+01  0.36625704771E+02  0.36429466801E+01  0.36820710876E+02  0.00000000000E+00 0. -1.
         11    1    4    4    0    0 -0.14620421919E+01  0.28184343573E+01 -0.41958263300E+01  0.52617581140E+01  0.51100000000E-03 0. -1.
        -11    1    4    4    0    0 -0.43068591621E+01 -0.45814278382E+01  0.10767293622E+02  0.12468886441E+02  0.51100000000E-03 0.  1.
        -12    1    4    4    0    0  0.47435043959E+01 -0.34862711290E+02 -0.10214413972E+02  0.36636644569E+02  0.00000000000E+00 0.  1.
</event>
<event>
 8    1  0.1253703E-006  0.9118800E+02  0.7816164E-02  0.1184000E+00
        -11   -1    0    0    0    0  0.00000000000E+00  0.00000000000E+00  0.45593999997E+02  0.45594000000E+02  0.51100000000E-03 0. -1.
         11   -1    0    0    0    0 -0.00000000000E+00 -0.00000000000E+00 -0.45593999997E+02  0.45594000000E+02  0.51100000000E-03 0.  1.
         23    2    1    2    0    0 -0.35527136788E-14  0.00000000000E+00  0.44408920985E-15  0.91188000000E+02  0.91188000000E+02 0.  0.
    9900012    2    3    3    0    0  0.25871365734E+02 -0.26106638694E+02  0.22114652356E+01  0.54367153631E+02  0.40000158333E+02 0.  0.
        -12    1    3    3    0    0 -0.25871365734E+02  0.26106638694E+02 -0.22114652356E+01  0.36820846369E+02  0.00000000000E+00 0.  1.
         11    1    4    4    0    0 -0.23667632932E+01 -0.49229158299E+01  0.55775914411E+01  0.78068044230E+01  0.51100000000E-03 0. -1.
        -11    1    4    4    0    0 -0.56240451470E+01 -0.86692746189E+01 -0.49187119707E+00  0.10345440724E+02  0.51100000000E-03 0.  1.
         12    1    4    4    0    0  0.33862174174E+02 -0.12514448245E+02 -0.28742550084E+01  0.36214908484E+02  0.00000000000E+00 0. -1.
</event>
<event>
 8    1  0.1253703E-006  0.9118800E+02  0.7816164E-02  0.1184000E+00
        -11   -1    0    0    0    0  0.00000000000E+00  0.00000000000E+00  0.45593999997E+02  0.45594000000E+02  0.51100000000E-03 0.  1.
         11   -1    0    0    0    0 -0.00000000000E+00 -0.00000000000E+00 -0.45593999997E+02  0.45594000000E+02  0.51100000000E-03 0. -1.
         23    2    1    2    0    0  0.00000000000E+00 -0.17763568394E-14  0.35527136788E-14  0.91188000000E+02  0.91188000000E+02 0.  0.
    9900012    2    3    3    0    0  0.33403500407E+02 -0.12940293742E+02  0.85167409029E+01  0.54367083157E+02  0.39999997672E+02 0.  0.
         12    1    3    3    0    0 -0.33403500407E+02  0.12940293742E+02 -0.85167409029E+01  0.36820916843E+02  0.00000000000E+00 0. -1.
         11    1    4    4    0    0  0.18439250939E+02 -0.10117382779E+01 -0.14168483100E+02  0.23276071471E+02  0.51100000000E-03 0. -1.
        -11    1    4    4    0    0  0.97264767079E+01 -0.28661326924E+01  0.14998689851E+02  0.18104688986E+02  0.51100000000E-03 0.  1.
         12    1    4    4    0    0  0.52377727605E+01 -0.90624227719E+01  0.76865341513E+01  0.12986322699E+02  0.00000000000E+00 0. -1.
</event>
<event>
 8    1  0.1253703E-006  0.9118800E+02  0.7816164E-02  0.1184000E+00
        -11   -1    0    0    0    0  0.00000000000E+00  0.00000000000E+00  0.45593999997E+02  0.45594000000E+02  0.51100000000E-03 0. -1.
         11   -1    0    0    0    0 -0.00000000000E+00 -0.00000000000E+00 -0.45593999997E+02  0.45594000000E+02  0.51100000000E-03 0.  1.
         23    2    1    2    0    0  0.00000000000E+00  0.00000000000E+00  0.00000000000E+00  0.91188000000E+02  0.91188000000E+02 0.  0.
    9900012    2    3    3    0    0  0.16647373975E+01 -0.13705804368E+02 -0.34134469815E+02  0.54367048715E+02  0.39999919156E+02 0.  0.
         12    1    3    3    0    0 -0.16647373975E+01  0.13705804368E+02  0.34134469815E+02  0.36820951285E+02  0.00000000000E+00 0. -1.
         11    1    4    4    0    0  0.28337837730E+01 -0.18003721500E+02 -0.14366879966E+02  0.23207144558E+02  0.51100000000E-03 0. -1.
        -11    1    4    4    0    0 -0.20739650942E+01 -0.92172797938E+01 -0.37047516651E+01  0.10148140873E+02  0.51100000000E-03 0.  1.
         12    1    4    4    0    0  0.90491871866E+00  0.13515196925E+02 -0.16062838183E+02  0.21011763285E+02  0.00000000000E+00 0. -1.
</event>
<event>
 8    1  0.1253703E-006  0.9118800E+02  0.7816164E-02  0.1184000E+00
        -11   -1    0    0    0    0  0.00000000000E+00  0.00000000000E+00  0.45593999997E+02  0.45594000000E+02  0.51100000000E-03 0. -1.
         11   -1    0    0    0    0 -0.00000000000E+00 -0.00000000000E+00 -0.45593999997E+02  0.45594000000E+02  0.51100000000E-03 0.  1.
         23    2    1    2    0    0  0.00000000000E+00  0.00000000000E+00 -0.35527136788E-14  0.91188000000E+02  0.91188000000E+02 0.  0.
    9900012    2    3    3    0    0 -0.27877473485E+02 -0.71545307723E+01  0.22966037499E+02  0.54367085876E+02  0.40000003872E+02 0.  0.
        -12    1    3    3    0    0  0.27877473485E+02  0.71545307723E+01 -0.22966037499E+02  0.36820914124E+02  0.00000000000E+00 0.  1.
         11    1    4    4    0    0 -0.17379822462E+02 -0.21608607711E+02  0.16342491797E+02  0.32187997676E+02  0.51100000000E-03 0. -1.
        -11    1    4    4    0    0 -0.26115071657E+01 -0.17194153401E+01  0.46755247525E+00  0.31614813564E+01  0.51100000000E-03 0.  1.
        -12    1    4    4    0    0 -0.78861438575E+01  0.16173492279E+02  0.61559932271E+01  0.19017606843E+02  0.00000000000E+00 0.  1.
</event>
<event>
 8    1  0.1253703E-006  0.9118800E+02  0.7816164E-02  0.1184000E+00
        -11   -1    0    0    0    0  0.00000000000E+00  0.00000000000E+00  0.45593999997E+02  0.45594000000E+02  0.51100000000E-03 0. -1.
         11   -1    0    0    0    0 -0.00000000000E+00 -0.00000000000E+00 -0.45593999997E+02  0.45594000000E+02  0.51100000000E-03 0.  1.
         23    2    1    2    0    0  0.00000000000E+00  0.00000000000E+00 -0.17763568394E-14  0.91188000000E+02  0.91188000000E+02 0.  0.
    9900012    2    3    3    0    0  0.30648871910E+02  0.16887115432E+02 -0.11456633218E+02  0.54367048605E+02  0.39999918904E+02 0.  0.
         12    1    3    3    0    0 -0.30648871910E+02 -0.16887115432E+02  0.11456633218E+02  0.36820951395E+02  0.00000000000E+00 0. -1.
         11    1    4    4    0    0 -0.14850527996E+01  0.69993648576E+01 -0.11076051958E+02  0.13186182824E+02  0.51100000000E-03 0. -1.
        -11    1    4    4    0    0  0.29695336780E+02  0.74846810262E+01  0.84010151785E+01  0.31755480359E+02  0.51100000000E-03 0.  1.
        -12    1    4    4    0    0  0.24385879293E+01  0.24030695483E+01 -0.87815964386E+01  0.94253854220E+01  0.00000000000E+00 0.  1.
</event>
<event>
 8    1  0.1253703E-006  0.9118800E+02  0.7816164E-02  0.1184000E+00
        -11   -1    0    0    0    0  0.00000000000E+00  0.00000000000E+00  0.45593999997E+02  0.45594000000E+02  0.51100000000E-03 0.  1.
         11   -1    0    0    0    0 -0.00000000000E+00 -0.00000000000E+00 -0.45593999997E+02  0.45594000000E+02  0.51100000000E-03 0. -1.
         23    2    1    2    0    0 -0.88817841970E-15  0.00000000000E+00 -0.35527136788E-14  0.91188000000E+02  0.91188000000E+02 0.  0.
    9900012    2    3    3    0    0  0.49313606220E+01  0.20691774181E+02  0.30055076815E+02  0.54367143428E+02  0.40000135073E+02 0.  0.
         12    1    3    3    0    0 -0.49313606220E+01 -0.20691774181E+02 -0.30055076815E+02  0.36820856572E+02  0.00000000000E+00 0. -1.
         11    1    4    4    0    0 -0.24365388977E+01  0.39516408561E+01 -0.65612002906E+01  0.80375081194E+01  0.51100000000E-03 0. -1.
        -11    1    4    4    0    0 -0.47964672587E+01  0.11043402358E+02  0.27710802706E+02  0.30213431131E+02  0.51100000000E-03 0.  1.
        -12    1    4    4    0    0  0.12164366778E+02  0.56967309669E+01  0.89054743992E+01  0.16116204178E+02  0.00000000000E+00 0.  1.
</event>
<event>
 8    1  0.1253703E-006  0.9118800E+02  0.7816164E-02  0.1184000E+00
        -11   -1    0    0    0    0  0.00000000000E+00  0.00000000000E+00  0.45593999997E+02  0.45594000000E+02  0.51100000000E-03 0. -1.
         11   -1    0    0    0    0 -0.00000000000E+00 -0.00000000000E+00 -0.45593999997E+02  0.45594000000E+02  0.51100000000E-03 0.  1.
         23    2    1    2    0    0  0.00000000000E+00  0.17763568394E-14  0.00000000000E+00  0.91188000000E+02  0.91188000000E+02 0.  0.
    9900012    2    3    3    0    0  0.28576022881E+02 -0.14361276888E+02  0.18246780230E+02  0.54367077330E+02  0.39999984389E+02 0.  0.
        -12    1    3    3    0    0 -0.28576022881E+02  0.14361276888E+02 -0.18246780230E+02  0.36820922670E+02  0.00000000000E+00 0.  1.
         11    1    4    4    0    0  0.22046323787E+02 -0.11659222868E+00  0.86059960492E+01  0.23666794345E+02  0.51100000000E-03 0.  1.
        -11    1    4    4    0    0  0.81499864068E+01  0.42205993842E+01  0.78510214041E+01  0.12077842313E+02  0.51100000000E-03 0. -1.
         12    1    4    4    0    0 -0.16202873135E+01 -0.18465284044E+02  0.17897627765E+01  0.18622440672E+02  0.00000000000E+00 0. -1.
</event>
<event>
 8    1  0.1253703E-006  0.9118800E+02  0.7816164E-02  0.1184000E+00
        -11   -1    0    0    0    0  0.00000000000E+00  0.00000000000E+00  0.45593999997E+02  0.45594000000E+02  0.51100000000E-03 0.  1.
         11   -1    0    0    0    0 -0.00000000000E+00 -0.00000000000E+00 -0.45593999997E+02  0.45594000000E+02  0.51100000000E-03 0. -1.
         23    2    1    2    0    0  0.35527136788E-14 -0.35527136788E-14  0.00000000000E+00  0.91188000000E+02  0.91188000000E+02 0.  0.
    9900012    2    3    3    0    0  0.23876699904E+02 -0.19486553687E+02  0.20148392240E+02  0.54367078193E+02  0.39999986355E+02 0.  0.
        -12    1    3    3    0    0 -0.23876699904E+02  0.19486553687E+02 -0.20148392240E+02  0.36820921807E+02  0.00000000000E+00 0.  1.
         11    1    4    4    0    0  0.22816996862E+02 -0.21431351587E+02  0.23210996470E+02  0.38970097947E+02  0.51100000000E-03 0. -1.
        -11    1    4    4    0    0 -0.29906390871E+01  0.49355156571E+01 -0.69517779123E+01  0.90349572967E+01  0.51100000000E-03 0.  1.
        -12    1    4    4    0    0  0.40503421289E+01 -0.29907177568E+01  0.38891736826E+01  0.63620229483E+01  0.00000000000E+00 0.  1.
</event>
<event>
 8    1  0.1253703E-006  0.9118800E+02  0.7816164E-02  0.1184000E+00
        -11   -1    0    0    0    0  0.00000000000E+00  0.00000000000E+00  0.45593999997E+02  0.45594000000E+02  0.51100000000E-03 0.  1.
         11   -1    0    0    0    0 -0.00000000000E+00 -0.00000000000E+00 -0.45593999997E+02  0.45594000000E+02  0.51100000000E-03 0. -1.
         23    2    1    2    0    0  0.71054273576E-14  0.35527136788E-14 -0.17763568394E-14  0.91188000000E+02  0.91188000000E+02 0.  0.
    9900012    2    3    3    0    0 -0.32387907882E+02 -0.14549892624E+02  0.97520910393E+01  0.54367092461E+02  0.40000018883E+02 0.  0.
        -12    1    3    3    0    0  0.32387907882E+02  0.14549892624E+02 -0.97520910393E+01  0.36820907539E+02  0.00000000000E+00 0.  1.
         11    1    4    4    0    0 -0.17481292780E+02 -0.16617921042E+02  0.19006691909E+01  0.24194285290E+02  0.51100000000E-03 0. -1.
        -11    1    4    4    0    0 -0.66871288087E+01  0.21555721758E+01 -0.90034058195E+01  0.11420398405E+02  0.51100000000E-03 0.  1.
        -12    1    4    4    0    0 -0.82194862930E+01 -0.87543758043E-01  0.16854827668E+02  0.18752408766E+02  0.00000000000E+00 0.  1.
</event>
<event>
 8    1  0.1253703E-006  0.9118800E+02  0.7816164E-02  0.1184000E+00
        -11   -1    0    0    0    0  0.00000000000E+00  0.00000000000E+00  0.45593999997E+02  0.45594000000E+02  0.51100000000E-03 0. -1.
         11   -1    0    0    0    0 -0.00000000000E+00 -0.00000000000E+00 -0.45593999997E+02  0.45594000000E+02  0.51100000000E-03 0.  1.
         23    2    1    2    0    0  0.00000000000E+00  0.00000000000E+00 -0.71054273576E-14  0.91188000000E+02  0.91188000000E+02 0.  0.
    9900012    2    3    3    0    0 -0.16520251509E+02  0.17962757040E+02 -0.27571705755E+02  0.54367104999E+02  0.40000047467E+02 0.  0.
         12    1    3    3    0    0  0.16520251509E+02 -0.17962757040E+02  0.27571705755E+02  0.36820895001E+02  0.00000000000E+00 0. -1.
         11    1    4    4    0    0 -0.87370245953E+01  0.15989909677E+02 -0.31546900356E+01  0.18492292442E+02  0.51100000000E-03 0. -1.
        -11    1    4    4    0    0 -0.44373554171E+01 -0.95126787533E+00  0.46339189360E+01  0.64860032867E+01  0.51100000000E-03 0.  1.
        -12    1    4    4    0    0 -0.33458714966E+01  0.29241152376E+01 -0.29050934656E+02  0.29388809271E+02  0.00000000000E+00 0.  1.
</event>
<event>
 8    1  0.1253703E-006  0.9118800E+02  0.7816164E-02  0.1184000E+00
        -11   -1    0    0    0    0  0.00000000000E+00  0.00000000000E+00  0.45593999997E+02  0.45594000000E+02  0.51100000000E-03 0. -1.
         11   -1    0    0    0    0 -0.00000000000E+00 -0.00000000000E+00 -0.45593999997E+02  0.45594000000E+02  0.51100000000E-03 0.  1.
         23    2    1    2    0    0  0.00000000000E+00  0.00000000000E+00  0.35527136788E-14  0.91188000000E+02  0.91188000000E+02 0.  0.
    9900012    2    3    3    0    0 -0.31911740530E+02  0.15772597112E+02 -0.94150928993E+01  0.54367109495E+02  0.40000057715E+02 0.  0.
         12    1    3    3    0    0  0.31911740530E+02 -0.15772597112E+02  0.94150928993E+01  0.36820890505E+02  0.00000000000E+00 0. -1.
         11    1    4    4    0    0 -0.39885105249E+01  0.33806242622E+01  0.77445289196E+01  0.93442262953E+01  0.51100000000E-03 0. -1.
        -11    1    4    4    0    0 -0.21448082667E+02 -0.34136736795E+01 -0.17573258532E+02  0.27937301834E+02  0.51100000000E-03 0.  1.
         12    1    4    4    0    0 -0.64751473383E+01  0.15805646529E+02  0.41363671331E+00  0.17085581365E+02  0.00000000000E+00 0. -1.
</event>
<event>
 8    1  0.1253703E-006  0.9118800E+02  0.7816164E-02  0.1184000E+00
        -11   -1    0    0    0    0  0.00000000000E+00  0.00000000000E+00  0.45593999997E+02  0.45594000000E+02  0.51100000000E-03 0. -1.
         11   -1    0    0    0    0 -0.00000000000E+00 -0.00000000000E+00 -0.45593999997E+02  0.45594000000E+02  0.51100000000E-03 0.  1.
         23    2    1    2    0    0  0.00000000000E+00  0.00000000000E+00 -0.35527136788E-14  0.91188000000E+02  0.91188000000E+02 0.  0.
    9900012    2    3    3    0    0 -0.44085425146E+01  0.18980905176E+02  0.31242123669E+02  0.54367077962E+02  0.39999985829E+02 0.  0.
        -12    1    3    3    0    0  0.44085425146E+01 -0.18980905176E+02 -0.31242123669E+02  0.36820922038E+02  0.00000000000E+00 0.  1.
         11    1    4    4    0    0  0.78283449925E+01  0.33468324338E+01  0.32501031641E+01  0.91130370075E+01  0.51100000000E-03 0. -1.
        -11    1    4    4    0    0  0.97983516269E+01  0.41001621592E+01  0.71436347125E+01  0.12800411771E+02  0.51100000000E-03 0.  1.
        -12    1    4    4    0    0 -0.22035239134E+02  0.11533910583E+02  0.20848385792E+02  0.32453629183E+02  0.00000000000E+00 0.  1.
</event>
<event>
 8    1  0.1253703E-006  0.9118800E+02  0.7816164E-02  0.1184000E+00
        -11   -1    0    0    0    0  0.00000000000E+00  0.00000000000E+00  0.45593999997E+02  0.45594000000E+02  0.51100000000E-03 0. -1.
         11   -1    0    0    0    0 -0.00000000000E+00 -0.00000000000E+00 -0.45593999997E+02  0.45594000000E+02  0.51100000000E-03 0.  1.
         23    2    1    2    0    0  0.17763568394E-14 -0.88817841970E-15 -0.71054273576E-14  0.91188000000E+02  0.91188000000E+02 0.  0.
    9900012    2    3    3    0    0 -0.12030879335E+02  0.55493670395E+01  0.34354664005E+02  0.54367075637E+02  0.39999980529E+02 0.  0.
        -12    1    3    3    0    0  0.12030879335E+02 -0.55493670395E+01 -0.34354664005E+02  0.36820924363E+02  0.00000000000E+00 0.  1.
         11    1    4    4    0    0  0.11639904121E+02  0.47423988441E+01  0.12569300402E+02  0.17775405132E+02  0.51100000000E-03 0. -1.
        -11    1    4    4    0    0 -0.23698168647E+02  0.57953957511E+01  0.18515566793E+02  0.30627047247E+02  0.51100000000E-03 0.  1.
         12    1    4    4    0    0  0.27385191234E-01 -0.49884275557E+01  0.32697968094E+01  0.59646232574E+01  0.00000000000E+00 0. -1.
</event>
<event>
 8    1  0.1253703E-006  0.9118800E+02  0.7816164E-02  0.1184000E+00
        -11   -1    0    0    0    0  0.00000000000E+00  0.00000000000E+00  0.45593999997E+02  0.45594000000E+02  0.51100000000E-03 0.  1.
         11   -1    0    0    0    0 -0.00000000000E+00 -0.00000000000E+00 -0.45593999997E+02  0.45594000000E+02  0.51100000000E-03 0. -1.
         23    2    1    2    0    0 -0.17763568394E-14  0.17763568394E-14  0.00000000000E+00  0.91188000000E+02  0.91188000000E+02 0.  0.
    9900012    2    3    3    0    0  0.43163017892E+01 -0.13472123790E+02  0.33994988211E+02  0.54366976060E+02  0.39999753523E+02 0.  0.
         12    1    3    3    0    0 -0.43163017892E+01  0.13472123790E+02 -0.33994988211E+02  0.36821023940E+02  0.00000000000E+00 0. -1.
         11    1    4    4    0    0  0.50691878888E+00 -0.58336443363E+01  0.10026605188E+02  0.11611252506E+02  0.51100000000E-03 0.  1.
        -11    1    4    4    0    0 -0.13025598701E+02 -0.55925089987E+01  0.21303609385E+02  0.25588789567E+02  0.51100000000E-03 0. -1.
         12    1    4    4    0    0  0.16834981701E+02 -0.20459704547E+01  0.26647736384E+01  0.17166933988E+02  0.00000000000E+00 0. -1.
</event>
<event>
 8    1  0.1253703E-006  0.9118800E+02  0.7816164E-02  0.1184000E+00
        -11   -1    0    0    0    0  0.00000000000E+00  0.00000000000E+00  0.45593999997E+02  0.45594000000E+02  0.51100000000E-03 0. -1.
         11   -1    0    0    0    0 -0.00000000000E+00 -0.00000000000E+00 -0.45593999997E+02  0.45594000000E+02  0.51100000000E-03 0.  1.
         23    2    1    2    0    0 -0.35527136788E-14 -0.35527136788E-14 -0.17763568394E-14  0.91188000000E+02  0.91188000000E+02 0.  0.
    9900012    2    3    3    0    0  0.26792259146E+02 -0.22829984274E+02  0.10804964379E+02  0.54367074057E+02  0.39999976927E+02 0.  0.
        -12    1    3    3    0    0 -0.26792259146E+02  0.22829984274E+02 -0.10804964379E+02  0.36820925943E+02  0.00000000000E+00 0.  1.
         11    1    4    4    0    0  0.68413418651E+01 -0.18391889644E+02  0.14494644839E+02  0.24395907289E+02  0.51100000000E-03 0. -1.
        -11    1    4    4    0    0  0.12846257853E+02 -0.11215166545E+02  0.39808868515E+01  0.17511532253E+02  0.51100000000E-03 0.  1.
        -12    1    4    4    0    0  0.71046594280E+01  0.67770719158E+01 -0.76705673117E+01  0.12459634514E+02  0.00000000000E+00 0.  1.
</event>
<event>
 8    1  0.1253703E-006  0.9118800E+02  0.7816164E-02  0.1184000E+00
        -11   -1    0    0    0    0  0.00000000000E+00  0.00000000000E+00  0.45593999997E+02  0.45594000000E+02  0.51100000000E-03 0.  1.
         11   -1    0    0    0    0 -0.00000000000E+00 -0.00000000000E+00 -0.45593999997E+02  0.45594000000E+02  0.51100000000E-03 0. -1.
         23    2    1    2    0    0  0.00000000000E+00  0.35527136788E-14  0.00000000000E+00  0.91188000000E+02  0.91188000000E+02 0.  0.
    9900012    2    3    3    0    0 -0.14951343832E+02  0.20280522432E+02  0.26850280558E+02  0.54367084224E+02  0.40000000106E+02 0.  0.
         12    1    3    3    0    0  0.14951343832E+02 -0.20280522432E+02 -0.26850280558E+02  0.36820915776E+02  0.00000000000E+00 0. -1.
         11    1    4    4    0    0 -0.20245325347E+01  0.10302183313E+02 -0.91373633646E+01  0.13918517253E+02  0.51100000000E-03 0. -1.
        -11    1    4    4    0    0 -0.88758224212E+01  0.41865166262E+01  0.12335694786E+02  0.15763137735E+02  0.51100000000E-03 0.  1.
         12    1    4    4    0    0 -0.40509888764E+01  0.57918224928E+01  0.23651949136E+02  0.24685429237E+02  0.00000000000E+00 0. -1.
</event>
<event>
 8    1  0.1253703E-006  0.9118800E+02  0.7816164E-02  0.1184000E+00
        -11   -1    0    0    0    0  0.00000000000E+00  0.00000000000E+00  0.45593999997E+02  0.45594000000E+02  0.51100000000E-03 0. -1.
         11   -1    0    0    0    0 -0.00000000000E+00 -0.00000000000E+00 -0.45593999997E+02  0.45594000000E+02  0.51100000000E-03 0.  1.
         23    2    1    2    0    0 -0.17763568394E-14  0.00000000000E+00 -0.35527136788E-14  0.91188000000E+02  0.91188000000E+02 0.  0.
    9900012    2    3    3    0    0  0.38004603136E+01 -0.29985168061E+02 -0.21029213104E+02  0.54367060223E+02  0.39999945391E+02 0.  0.
         12    1    3    3    0    0 -0.38004603136E+01  0.29985168061E+02  0.21029213104E+02  0.36820939777E+02  0.00000000000E+00 0. -1.
         11    1    4    4    0    0 -0.10360347449E+02 -0.60047839508E+01 -0.57226065975E+01  0.13271867092E+02  0.51100000000E-03 0. -1.
        -11    1    4    4    0    0  0.11519400928E+02 -0.98973073549E+01 -0.20795805680E+02  0.25751093662E+02  0.51100000000E-03 0.  1.
         12    1    4    4    0    0  0.26414068345E+01 -0.14083076756E+02  0.54891991741E+01  0.15344099470E+02  0.00000000000E+00 0. -1.
</event>
<event>
 8    1  0.1253703E-006  0.9118800E+02  0.7816164E-02  0.1184000E+00
        -11   -1    0    0    0    0  0.00000000000E+00  0.00000000000E+00  0.45593999997E+02  0.45594000000E+02  0.51100000000E-03 0.  1.
         11   -1    0    0    0    0 -0.00000000000E+00 -0.00000000000E+00 -0.45593999997E+02  0.45594000000E+02  0.51100000000E-03 0. -1.
         23    2    1    2    0    0 -0.17763568394E-14  0.00000000000E+00 -0.17763568394E-14  0.91188000000E+02  0.91188000000E+02 0.  0.
    9900012    2    3    3    0    0 -0.14278860534E+02 -0.33466665744E+02 -0.56458965563E+01  0.54367085806E+02  0.40000003712E+02 0.  0.
         12    1    3    3    0    0  0.14278860534E+02  0.33466665744E+02  0.56458965563E+01  0.36820914194E+02  0.00000000000E+00 0. -1.
         11    1    4    4    0    0  0.66128330634E+01 -0.15703914789E+02  0.13924094817E+01  0.17096236582E+02  0.51100000000E-03 0. -1.
        -11    1    4    4    0    0 -0.16202971223E+02 -0.18311324106E+02 -0.14510553566E+02  0.28432323718E+02  0.51100000000E-03 0.  1.
         12    1    4    4    0    0 -0.46887223743E+01  0.54857315130E+00  0.74722475277E+01  0.88385255060E+01  0.00000000000E+00 0. -1.
</event>
<event>
 8    1  0.1253703E-006  0.9118800E+02  0.7816164E-02  0.1184000E+00
        -11   -1    0    0    0    0  0.00000000000E+00  0.00000000000E+00  0.45593999997E+02  0.45594000000E+02  0.51100000000E-03 0.  1.
         11   -1    0    0    0    0 -0.00000000000E+00 -0.00000000000E+00 -0.45593999997E+02  0.45594000000E+02  0.51100000000E-03 0. -1.
         23    2    1    2    0    0  0.00000000000E+00  0.00000000000E+00 -0.35527136788E-14  0.91188000000E+02  0.91188000000E+02 0.  0.
    9900012    2    3    3    0    0  0.13203350497E+02 -0.16449318412E+02 -0.30180643367E+02  0.54367085092E+02  0.40000002085E+02 0.  0.
        -12    1    3    3    0    0 -0.13203350497E+02  0.16449318412E+02  0.30180643367E+02  0.36820914908E+02  0.00000000000E+00 0.  1.
         11    1    4    4    0    0  0.63387672233E+01  0.42704416358E+01 -0.19711084575E+01  0.78931559270E+01  0.51100000000E-03 0.  1.
        -11    1    4    4    0    0 -0.18581201490E+01 -0.20496092716E+02 -0.31090653890E+02  0.37284999486E+02  0.51100000000E-03 0. -1.
        -12    1    4    4    0    0  0.87227034223E+01 -0.22366733194E+00  0.28811189802E+01  0.91889296791E+01  0.00000000000E+00 0.  1.
</event>
<event>
 8    1  0.1253703E-006  0.9118800E+02  0.7816164E-02  0.1184000E+00
        -11   -1    0    0    0    0  0.00000000000E+00  0.00000000000E+00  0.45593999997E+02  0.45594000000E+02  0.51100000000E-03 0.  1.
         11   -1    0    0    0    0 -0.00000000000E+00 -0.00000000000E+00 -0.45593999997E+02  0.45594000000E+02  0.51100000000E-03 0. -1.
         23    2    1    2    0    0  0.00000000000E+00  0.71054273576E-14  0.00000000000E+00  0.91188000000E+02  0.91188000000E+02 0.  0.
    9900012    2    3    3    0    0 -0.11215451872E+02 -0.22932329608E+02 -0.26534925078E+02  0.54367077268E+02  0.39999984247E+02 0.  0.
        -12    1    3    3    0    0  0.11215451872E+02  0.22932329608E+02  0.26534925078E+02  0.36820922732E+02  0.00000000000E+00 0.  1.
         11    1    4    4    0    0  0.10206959021E+02  0.38127290110E+01 -0.33948287058E+01  0.11412439580E+02  0.51100000000E-03 0. -1.
        -11    1    4    4    0    0 -0.17902391883E+02 -0.19951966754E+02 -0.22970478567E+02  0.35301834206E+02  0.51100000000E-03 0.  1.
         12    1    4    4    0    0 -0.35200190101E+01 -0.67930918653E+01 -0.16961780562E+00  0.76528034812E+01  0.00000000000E+00 0. -1.
</event>
<event>
 8    1  0.1253703E-006  0.9118800E+02  0.7816164E-02  0.1184000E+00
        -11   -1    0    0    0    0  0.00000000000E+00  0.00000000000E+00  0.45593999997E+02  0.45594000000E+02  0.51100000000E-03 0. -1.
         11   -1    0    0    0    0 -0.00000000000E+00 -0.00000000000E+00 -0.45593999997E+02  0.45594000000E+02  0.51100000000E-03 0.  1.
         23    2    1    2    0    0  0.17763568394E-14  0.00000000000E+00  0.00000000000E+00  0.91188000000E+02  0.91188000000E+02 0.  0.
    9900012    2    3    3    0    0  0.13279383427E+02  0.24770084249E+02 -0.23788236097E+02  0.54367091883E+02  0.40000017566E+02 0.  0.
         12    1    3    3    0    0 -0.13279383427E+02 -0.24770084249E+02  0.23788236097E+02  0.36820908117E+02  0.00000000000E+00 0. -1.
         11    1    4    4    0    0 -0.30639044606E+01  0.26751905702E+01 -0.66202747644E+01  0.77699545268E+01  0.51100000000E-03 0. -1.
        -11    1    4    4    0    0  0.97151875029E-02  0.81375786102E+01 -0.22948329941E+02  0.24348431723E+02  0.51100000000E-03 0.  1.
        -12    1    4    4    0    0  0.16333572701E+02  0.13957315069E+02  0.57803686087E+01  0.22248705633E+02  0.00000000000E+00 0.  1.
</event>
<event>
 8    1  0.1253703E-006  0.9118800E+02  0.7816164E-02  0.1184000E+00
        -11   -1    0    0    0    0  0.00000000000E+00  0.00000000000E+00  0.45593999997E+02  0.45594000000E+02  0.51100000000E-03 0. -1.
         11   -1    0    0    0    0 -0.00000000000E+00 -0.00000000000E+00 -0.45593999997E+02  0.45594000000E+02  0.51100000000E-03 0.  1.
         23    2    1    2    0    0 -0.88817841970E-15 -0.71054273576E-14  0.35527136788E-14  0.91188000000E+02  0.91188000000E+02 0.  0.
    9900012    2    3    3    0    0  0.13661682533E+01 -0.30753729254E+02  0.20202008904E+02  0.54367089603E+02  0.40000012368E+02 0.  0.
        -12    1    3    3    0    0 -0.13661682533E+01  0.30753729254E+02 -0.20202008904E+02  0.36820910397E+02  0.00000000000E+00 0.  1.
         11    1    4    4    0    0 -0.10232310449E+02 -0.71621354313E+01  0.23273761777E+02  0.26413336566E+02  0.51100000000E-03 0. -1.
        -11    1    4    4    0    0  0.85362034647E+00 -0.82959962235E+01 -0.39767610180E+01  0.92394182443E+01  0.51100000000E-03 0.  1.
        -12    1    4    4    0    0  0.10744858355E+02 -0.15295597599E+02  0.90500814504E+00  0.18714334793E+02  0.00000000000E+00 0.  1.
</event>
<event>
 8    1  0.1253703E-006  0.9118800E+02  0.7816164E-02  0.1184000E+00
        -11   -1    0    0    0    0  0.00000000000E+00  0.00000000000E+00  0.45593999997E+02  0.45594000000E+02  0.51100000000E-03 0. -1.
         11   -1    0    0    0    0 -0.00000000000E+00 -0.00000000000E+00 -0.45593999997E+02  0.45594000000E+02  0.51100000000E-03 0.  1.
         23    2    1    2    0    0  0.00000000000E+00  0.44408920985E-15  0.35527136788E-14  0.91188000000E+02  0.91188000000E+02 0.  0.
    9900012    2    3    3    0    0 -0.29820126424E+02  0.20459973896E+01 -0.21502420718E+02  0.54367080104E+02  0.39999990713E+02 0.  0.
         12    1    3    3    0    0  0.29820126424E+02 -0.20459973896E+01  0.21502420718E+02  0.36820919896E+02  0.00000000000E+00 0. -1.
         11    1    4    4    0    0 -0.20091439573E+02 -0.11880923998E+02 -0.13374753756E+02  0.26901790599E+02  0.51100000000E-03 0. -1.
        -11    1    4    4    0    0 -0.15344057907E+02  0.11020772048E+02 -0.92644422373E+01  0.21041088846E+02  0.51100000000E-03 0.  1.
         12    1    4    4    0    0  0.56153710558E+01  0.29061493391E+01  0.11367752754E+01  0.64242006586E+01  0.00000000000E+00 0. -1.
</event>
<event>
 8    1  0.1253703E-006  0.9118800E+02  0.7816164E-02  0.1184000E+00
        -11   -1    0    0    0    0  0.00000000000E+00  0.00000000000E+00  0.45593999997E+02  0.45594000000E+02  0.51100000000E-03 0. -1.
         11   -1    0    0    0    0 -0.00000000000E+00 -0.00000000000E+00 -0.45593999997E+02  0.45594000000E+02  0.51100000000E-03 0.  1.
         23    2    1    2    0    0  0.17763568394E-14  0.00000000000E+00  0.00000000000E+00  0.91188000000E+02  0.91188000000E+02 0.  0.
    9900012    2    3    3    0    0  0.98939239236E+01 -0.12144979921E+02 -0.33322502523E+02  0.54367089606E+02  0.40000012374E+02 0.  0.
         12    1    3    3    0    0 -0.98939239236E+01  0.12144979921E+02  0.33322502523E+02  0.36820910394E+02  0.00000000000E+00 0. -1.
         11    1    4    4    0    0 -0.49932643722E+01  0.48040676174E+01 -0.98209296428E-01  0.69297474767E+01  0.51100000000E-03 0.  1.
        -11    1    4    4    0    0  0.58747248191E+01  0.44056520363E+01 -0.18684847009E+02  0.20075997349E+02  0.51100000000E-03 0. -1.
         12    1    4    4    0    0  0.90124634767E+01 -0.21354699575E+02 -0.14539446218E+02  0.27361344780E+02  0.00000000000E+00 0. -1.
</event>
<event>
 8    1  0.1253703E-006  0.9118800E+02  0.7816164E-02  0.1184000E+00
        -11   -1    0    0    0    0  0.00000000000E+00  0.00000000000E+00  0.45593999997E+02  0.45594000000E+02  0.51100000000E-03 0.  1.
         11   -1    0    0    0    0 -0.00000000000E+00 -0.00000000000E+00 -0.45593999997E+02  0.45594000000E+02  0.51100000000E-03 0. -1.
         23    2    1    2    0    0  0.00000000000E+00  0.88817841970E-15  0.00000000000E+00  0.91188000000E+02  0.91188000000E+02 0.  0.
    9900012    2    3    3    0    0 -0.26983011628E+02 -0.51051072269E+01 -0.24528222166E+02  0.54367099428E+02  0.40000034766E+02 0.  0.
        -12    1    3    3    0    0  0.26983011628E+02  0.51051072269E+01  0.24528222166E+02  0.36820900572E+02  0.00000000000E+00 0.  1.
         11    1    4    4    0    0 -0.34759380654E+00  0.78182644908E+01  0.46959010214E+01  0.91267501207E+01  0.51100000000E-03 0. -1.
        -11    1    4    4    0    0 -0.17965760070E+02 -0.10875322874E+02 -0.84508172245E+01  0.22637524037E+02  0.51100000000E-03 0.  1.
        -12    1    4    4    0    0 -0.86696577524E+01 -0.20480488442E+01 -0.20773305962E+02  0.22602825271E+02  0.00000000000E+00 0.  1.
</event>
<event>
 8    1  0.1253703E-006  0.9118800E+02  0.7816164E-02  0.1184000E+00
        -11   -1    0    0    0    0  0.00000000000E+00  0.00000000000E+00  0.45593999997E+02  0.45594000000E+02  0.51100000000E-03 0. -1.
         11   -1    0    0    0    0 -0.00000000000E+00 -0.00000000000E+00 -0.45593999997E+02  0.45594000000E+02  0.51100000000E-03 0.  1.
         23    2    1    2    0    0  0.00000000000E+00  0.00000000000E+00 -0.17763568394E-14  0.91188000000E+02  0.91188000000E+02 0.  0.
    9900012    2    3    3    0    0 -0.45617249731E+01 -0.36455183383E+02 -0.24472814590E+01  0.54367096741E+02  0.40000028641E+02 0.  0.
        -12    1    3    3    0    0  0.45617249731E+01  0.36455183383E+02  0.24472814590E+01  0.36820903259E+02  0.00000000000E+00 0.  1.
         11    1    4    4    0    0 -0.60367964995E+00 -0.11539955801E+01 -0.57299432277E+01  0.58760858207E+01  0.51100000000E-03 0.  1.
        -11    1    4    4    0    0 -0.13620620135E+02 -0.20729987150E+02  0.13500498943E+02  0.28240345821E+02  0.51100000000E-03 0. -1.
         12    1    4    4    0    0  0.96625748121E+01 -0.14571200653E+02 -0.10217837174E+02  0.20250665100E+02  0.00000000000E+00 0. -1.
</event>
<event>
 8    1  0.1253703E-006  0.9118800E+02  0.7816164E-02  0.1184000E+00
        -11   -1    0    0    0    0  0.00000000000E+00  0.00000000000E+00  0.45593999997E+02  0.45594000000E+02  0.51100000000E-03 0. -1.
         11   -1    0    0    0    0 -0.00000000000E+00 -0.00000000000E+00 -0.45593999997E+02  0.45594000000E+02  0.51100000000E-03 0.  1.
         23    2    1    2    0    0  0.00000000000E+00  0.00000000000E+00 -0.17763568394E-14  0.91188000000E+02  0.91188000000E+02 0.  0.
    9900012    2    3    3    0    0  0.32288399686E+02  0.16461853158E+02  0.64997374655E+01  0.54367082700E+02  0.39999996632E+02 0.  0.
         12    1    3    3    0    0 -0.32288399686E+02 -0.16461853158E+02 -0.64997374655E+01  0.36820917300E+02  0.00000000000E+00 0. -1.
         11    1    4    4    0    0  0.21429500250E+02  0.13280372502E+02 -0.52535714034E+01  0.25752510315E+02  0.51100000000E-03 0. -1.
        -11    1    4    4    0    0  0.71855430917E+01  0.14954489683E+01 -0.65701412313E+01  0.98506422735E+01  0.51100000000E-03 0.  1.
         12    1    4    4    0    0  0.36733563442E+01  0.16860316871E+01  0.18323450100E+02  0.18763930112E+02  0.00000000000E+00 0. -1.
</event>
<event>
 8    1  0.1253703E-006  0.9118800E+02  0.7816164E-02  0.1184000E+00
        -11   -1    0    0    0    0  0.00000000000E+00  0.00000000000E+00  0.45593999997E+02  0.45594000000E+02  0.51100000000E-03 0. -1.
         11   -1    0    0    0    0 -0.00000000000E+00 -0.00000000000E+00 -0.45593999997E+02  0.45594000000E+02  0.51100000000E-03 0.  1.
         23    2    1    2    0    0  0.00000000000E+00  0.17763568394E-14  0.35527136788E-14  0.91188000000E+02  0.91188000000E+02 0.  0.
    9900012    2    3    3    0    0  0.31319707730E+02 -0.96587067799E+01  0.16779903199E+02  0.54367083929E+02  0.39999999432E+02 0.  0.
        -12    1    3    3    0    0 -0.31319707730E+02  0.96587067799E+01 -0.16779903199E+02  0.36820916071E+02  0.00000000000E+00 0.  1.
         11    1    4    4    0    0  0.55790337036E+00 -0.10319402722E+02  0.36107445708E+01  0.10947091181E+02  0.51100000000E-03 0.  1.
        -11    1    4    4    0    0  0.16258423065E+02  0.10441011586E+02 -0.30540711910E+01  0.19562167431E+02  0.51100000000E-03 0. -1.
         12    1    4    4    0    0  0.14503381295E+02 -0.97803156439E+01  0.16223229819E+02  0.23857825317E+02  0.00000000000E+00 0. -1.
</event>
<event>
 8    1  0.1253703E-006  0.9118800E+02  0.7816164E-02  0.1184000E+00
        -11   -1    0    0    0    0  0.00000000000E+00  0.00000000000E+00  0.45593999997E+02  0.45594000000E+02  0.51100000000E-03 0.  1.
         11   -1    0    0    0    0 -0.00000000000E+00 -0.00000000000E+00 -0.45593999997E+02  0.45594000000E+02  0.51100000000E-03 0. -1.
         23    2    1    2    0    0 -0.35527136788E-14  0.35527136788E-14  0.17763568394E-14  0.91188000000E+02  0.91188000000E+02 0.  0.
    9900012    2    3    3    0    0 -0.21860884416E+02  0.29555556071E+02  0.20858783940E+01  0.54367081342E+02  0.39999993535E+02 0.  0.
        -12    1    3    3    0    0  0.21860884416E+02 -0.29555556071E+02 -0.20858783940E+01  0.36820918658E+02  0.00000000000E+00 0.  1.
         11    1    4    4    0    0 -0.10264334059E+02  0.11364739388E+02  0.82465846008E+01  0.17393102451E+02  0.51100000000E-03 0. -1.
        -11    1    4    4    0    0  0.44889400459E+01  0.96393412642E+01  0.84815598655E+01  0.13601630077E+02  0.51100000000E-03 0.  1.
        -12    1    4    4    0    0 -0.16085490403E+02  0.85514754190E+01 -0.14642266072E+02  0.23372348814E+02  0.00000000000E+00 0.  1.
</event>
<event>
 8    1  0.1253703E-006  0.9118800E+02  0.7816164E-02  0.1184000E+00
        -11   -1    0    0    0    0  0.00000000000E+00  0.00000000000E+00  0.45593999997E+02  0.45594000000E+02  0.51100000000E-03 0. -1.
         11   -1    0    0    0    0 -0.00000000000E+00 -0.00000000000E+00 -0.45593999997E+02  0.45594000000E+02  0.51100000000E-03 0.  1.
         23    2    1    2    0    0  0.00000000000E+00  0.00000000000E+00  0.00000000000E+00  0.91188000000E+02  0.91188000000E+02 0.  0.
    9900012    2    3    3    0    0  0.72505323204E+01 -0.11231376267E+02  0.34308391743E+02  0.54367085077E+02  0.40000002049E+02 0.  0.
        -12    1    3    3    0    0 -0.72505323204E+01  0.11231376267E+02 -0.34308391743E+02  0.36820914923E+02  0.00000000000E+00 0.  1.
         11    1    4    4    0    0 -0.42745740514E+01 -0.84698315863E+01  0.19278594304E+02  0.21486605805E+02  0.51100000000E-03 0. -1.
        -11    1    4    4    0    0  0.25783184784E+01 -0.14175750927E+02  0.99658798176E+01  0.17519086772E+02  0.51100000000E-03 0.  1.
         12    1    4    4    0    0  0.89467878935E+01  0.11414206246E+02  0.50639176214E+01  0.15361392499E+02  0.00000000000E+00 0. -1.
</event>
<event>
 8    1  0.1253703E-006  0.9118800E+02  0.7816164E-02  0.1184000E+00
        -11   -1    0    0    0    0  0.00000000000E+00  0.00000000000E+00  0.45593999997E+02  0.45594000000E+02  0.51100000000E-03 0.  1.
         11   -1    0    0    0    0 -0.00000000000E+00 -0.00000000000E+00 -0.45593999997E+02  0.45594000000E+02  0.51100000000E-03 0. -1.
         23    2    1    2    0    0  0.00000000000E+00  0.00000000000E+00  0.00000000000E+00  0.91188000000E+02  0.91188000000E+02 0.  0.
    9900012    2    3    3    0    0  0.70745559248E+01  0.74436286616E+01  0.35359893404E+02  0.54367095466E+02  0.40000025733E+02 0.  0.
         12    1    3    3    0    0 -0.70745559248E+01 -0.74436286616E+01 -0.35359893404E+02  0.36820904534E+02  0.00000000000E+00 0. -1.
         11    1    4    4    0    0  0.13506035319E+01 -0.43851877565E+01 -0.42551277359E+01  0.62578042371E+01  0.51100000000E-03 0. -1.
        -11    1    4    4    0    0  0.14053232131E+02  0.76373809536E+01  0.15577940005E+02  0.22327004640E+02  0.51100000000E-03 0.  1.
        -12    1    4    4    0    0 -0.83292797383E+01  0.41914354645E+01  0.24037081135E+02  0.25782286588E+02  0.00000000000E+00 0.  1.
</event>
<event>
 8    1  0.1253703E-006  0.9118800E+02  0.7816164E-02  0.1184000E+00
        -11   -1    0    0    0    0  0.00000000000E+00  0.00000000000E+00  0.45593999997E+02  0.45594000000E+02  0.51100000000E-03 0. -1.
         11   -1    0    0    0    0 -0.00000000000E+00 -0.00000000000E+00 -0.45593999997E+02  0.45594000000E+02  0.51100000000E-03 0.  1.
         23    2    1    2    0    0 -0.35527136788E-14  0.17763568394E-14  0.00000000000E+00  0.91188000000E+02  0.91188000000E+02 0.  0.
    9900012    2    3    3    0    0  0.30463969889E+02 -0.12350402267E+02  0.16588772086E+02  0.54367173599E+02  0.40000203852E+02 0.  0.
        -12    1    3    3    0    0 -0.30463969889E+02  0.12350402267E+02 -0.16588772086E+02  0.36820826401E+02  0.00000000000E+00 0.  1.
         11    1    4    4    0    0  0.27321049049E+02 -0.50171443033E+01  0.12577352974E+02  0.30492642821E+02  0.51100000000E-03 0. -1.
        -11    1    4    4    0    0  0.74662938591E+01 -0.10413029656E+02 -0.47211209298E+01  0.13655244916E+02  0.51100000000E-03 0.  1.
         12    1    4    4    0    0 -0.43233730192E+01  0.30797716930E+01  0.87325400418E+01  0.10219285862E+02  0.00000000000E+00 0. -1.
</event>
<event>
 8    1  0.1253703E-006  0.9118800E+02  0.7816164E-02  0.1184000E+00
        -11   -1    0    0    0    0  0.00000000000E+00  0.00000000000E+00  0.45593999997E+02  0.45594000000E+02  0.51100000000E-03 0.  1.
         11   -1    0    0    0    0 -0.00000000000E+00 -0.00000000000E+00 -0.45593999997E+02  0.45594000000E+02  0.51100000000E-03 0. -1.
         23    2    1    2    0    0  0.00000000000E+00  0.44408920985E-15  0.00000000000E+00  0.91188000000E+02  0.91188000000E+02 0.  0.
    9900012    2    3    3    0    0 -0.29320995769E+02 -0.25748505542E+01  0.22123039373E+02  0.54367088559E+02  0.40000009988E+02 0.  0.
         12    1    3    3    0    0  0.29320995769E+02  0.25748505542E+01 -0.22123039373E+02  0.36820911441E+02  0.00000000000E+00 0. -1.
         11    1    4    4    0    0 -0.41837939753E+01  0.75969629792E+01 -0.55827986081E+01  0.10314340458E+02  0.51100000000E-03 0. -1.
        -11    1    4    4    0    0 -0.14304766410E+02 -0.94192241774E+00  0.26038501938E+02  0.29724016271E+02  0.51100000000E-03 0.  1.
        -12    1    4    4    0    0 -0.10832435384E+02 -0.92298911156E+01  0.16673360438E+01  0.14328731829E+02  0.00000000000E+00 0.  1.
</event>
<event>
 8    1  0.1253703E-006  0.9118800E+02  0.7816164E-02  0.1184000E+00
        -11   -1    0    0    0    0  0.00000000000E+00  0.00000000000E+00  0.45593999997E+02  0.45594000000E+02  0.51100000000E-03 0.  1.
         11   -1    0    0    0    0 -0.00000000000E+00 -0.00000000000E+00 -0.45593999997E+02  0.45594000000E+02  0.51100000000E-03 0. -1.
         23    2    1    2    0    0 -0.35527136788E-14 -0.17763568394E-14  0.35527136788E-14  0.91188000000E+02  0.91188000000E+02 0.  0.
    9900012    2    3    3    0    0  0.29562815845E+02  0.82641674508E+01 -0.20335295314E+02  0.54367071443E+02  0.39999970968E+02 0.  0.
        -12    1    3    3    0    0 -0.29562815845E+02 -0.82641674508E+01  0.20335295314E+02  0.36820928557E+02  0.00000000000E+00 0.  1.
         11    1    4    4    0    0 -0.60753077643E+01 -0.11492296139E+00 -0.95662797033E+01  0.11332973102E+02  0.51100000000E-03 0. -1.
        -11    1    4    4    0    0  0.27959176439E+02  0.11962887594E+02 -0.14600292697E+02  0.33734178126E+02  0.51100000000E-03 0.  1.
        -12    1    4    4    0    0  0.76789471698E+01 -0.35837971814E+01  0.38312770866E+01  0.92999202141E+01  0.00000000000E+00 0.  1.
</event>
<event>
 8    1  0.1253703E-006  0.9118800E+02  0.7816164E-02  0.1184000E+00
        -11   -1    0    0    0    0  0.00000000000E+00  0.00000000000E+00  0.45593999997E+02  0.45594000000E+02  0.51100000000E-03 0.  1.
         11   -1    0    0    0    0 -0.00000000000E+00 -0.00000000000E+00 -0.45593999997E+02  0.45594000000E+02  0.51100000000E-03 0. -1.
         23    2    1    2    0    0  0.00000000000E+00 -0.35527136788E-14  0.00000000000E+00  0.91188000000E+02  0.91188000000E+02 0.  0.
    9900012    2    3    3    0    0 -0.17552763645E+02 -0.24875622631E+02  0.20709521292E+02  0.54367076803E+02  0.39999983189E+02 0.  0.
         12    1    3    3    0    0  0.17552763645E+02  0.24875622631E+02 -0.20709521292E+02  0.36820923197E+02  0.00000000000E+00 0. -1.
         11    1    4    4    0    0 -0.13965854204E+01 -0.86985158660E+00 -0.80822616796E+01  0.82480329011E+01  0.51100000000E-03 0. -1.
        -11    1    4    4    0    0 -0.13861482621E+02 -0.35757958891E+01  0.62791099768E+01  0.15631834155E+02  0.51100000000E-03 0.  1.
        -12    1    4    4    0    0 -0.22946956037E+01 -0.20429975156E+02  0.22512672995E+02  0.30487209747E+02  0.00000000000E+00 0.  1.
</event>
<event>
 8    1  0.1253703E-006  0.9118800E+02  0.7816164E-02  0.1184000E+00
        -11   -1    0    0    0    0  0.00000000000E+00  0.00000000000E+00  0.45593999997E+02  0.45594000000E+02  0.51100000000E-03 0. -1.
         11   -1    0    0    0    0 -0.00000000000E+00 -0.00000000000E+00 -0.45593999997E+02  0.45594000000E+02  0.51100000000E-03 0.  1.
         23    2    1    2    0    0  0.00000000000E+00  0.00000000000E+00  0.00000000000E+00  0.91188000000E+02  0.91188000000E+02 0.  0.
    9900012    2    3    3    0    0 -0.23898279360E+02 -0.27884289189E+02 -0.26683980641E+01  0.54367059108E+02  0.39999942848E+02 0.  0.
        -12    1    3    3    0    0  0.23898279360E+02  0.27884289189E+02  0.26683980641E+01  0.36820940892E+02  0.00000000000E+00 0.  1.
         11    1    4    4    0    0 -0.14274214910E+02 -0.20272481371E+01 -0.25372291353E+01  0.14639005371E+02  0.51100000000E-03 0. -1.
        -11    1    4    4    0    0 -0.52300761879E+01  0.49933606522E+01  0.40485811626E+01  0.82872406280E+01  0.51100000000E-03 0.  1.
         12    1    4    4    0    0 -0.43939882629E+01 -0.30850401704E+02 -0.41797500914E+01  0.31440813109E+02  0.00000000000E+00 0. -1.
</event>
<event>
 8    1  0.1253703E-006  0.9118800E+02  0.7816164E-02  0.1184000E+00
        -11   -1    0    0    0    0  0.00000000000E+00  0.00000000000E+00  0.45593999997E+02  0.45594000000E+02  0.51100000000E-03 0.  1.
         11   -1    0    0    0    0 -0.00000000000E+00 -0.00000000000E+00 -0.45593999997E+02  0.45594000000E+02  0.51100000000E-03 0. -1.
         23    2    1    2    0    0  0.00000000000E+00  0.35527136788E-14  0.00000000000E+00  0.91188000000E+02  0.91188000000E+02 0.  0.
    9900012    2    3    3    0    0 -0.33856060088E+02  0.14368168072E+02  0.17606317469E+01  0.54367124364E+02  0.40000091613E+02 0.  0.
         12    1    3    3    0    0  0.33856060088E+02 -0.14368168072E+02 -0.17606317469E+01  0.36820875636E+02  0.00000000000E+00 0. -1.
         11    1    4    4    0    0  0.24967099844E+01 -0.89000679371E+01  0.39034859287E+00  0.92518723681E+01  0.51100000000E-03 0. -1.
        -11    1    4    4    0    0 -0.11223261762E+02  0.12527947800E+01 -0.22354003228E+01  0.11512085572E+02  0.51100000000E-03 0.  1.
         12    1    4    4    0    0 -0.25129508310E+02  0.22015441229E+02  0.36056834768E+01  0.33603166425E+02  0.00000000000E+00 0. -1.
</event>
<event>
 8    1  0.1253703E-006  0.9118800E+02  0.7816164E-02  0.1184000E+00
        -11   -1    0    0    0    0  0.00000000000E+00  0.00000000000E+00  0.45593999997E+02  0.45594000000E+02  0.51100000000E-03 0. -1.
         11   -1    0    0    0    0 -0.00000000000E+00 -0.00000000000E+00 -0.45593999997E+02  0.45594000000E+02  0.51100000000E-03 0.  1.
         23    2    1    2    0    0 -0.35527136788E-14 -0.35527136788E-14  0.53290705182E-14  0.91188000000E+02  0.91188000000E+02 0.  0.
    9900012    2    3    3    0    0  0.24038538132E+02  0.24188076550E+02 -0.13887665526E+02  0.54367060082E+02  0.39999945069E+02 0.  0.
         12    1    3    3    0    0 -0.24038538132E+02 -0.24188076550E+02  0.13887665526E+02  0.36820939918E+02  0.00000000000E+00 0. -1.
         11    1    4    4    0    0  0.32075729046E+01  0.40965285364E+01  0.13445637269E+02  0.14417185295E+02  0.51100000000E-03 0. -1.
        -11    1    4    4    0    0  0.17609912704E+01  0.31355626924E+01 -0.38949459773E+01  0.53012685349E+01  0.51100000000E-03 0.  1.
         12    1    4    4    0    0  0.19069973957E+02  0.16955985321E+02 -0.23438356818E+02  0.34648606252E+02  0.00000000000E+00 0. -1.
</event>
<event>
 8    1  0.1253703E-006  0.9118800E+02  0.7816164E-02  0.1184000E+00
        -11   -1    0    0    0    0  0.00000000000E+00  0.00000000000E+00  0.45593999997E+02  0.45594000000E+02  0.51100000000E-03 0. -1.
         11   -1    0    0    0    0 -0.00000000000E+00 -0.00000000000E+00 -0.45593999997E+02  0.45594000000E+02  0.51100000000E-03 0.  1.
         23    2    1    2    0    0  0.22204460493E-15  0.17763568394E-14  0.00000000000E+00  0.91188000000E+02  0.91188000000E+02 0.  0.
    9900012    2    3    3    0    0  0.12638389306E+01 -0.48260167454E+01 -0.36481329002E+02  0.54367148676E+02  0.40000147037E+02 0.  0.
         12    1    3    3    0    0 -0.12638389306E+01  0.48260167454E+01  0.36481329002E+02  0.36820851324E+02  0.00000000000E+00 0. -1.
         11    1    4    4    0    0  0.97219166298E+01 -0.15743973854E+02 -0.79586769618E+01  0.20142713693E+02  0.51100000000E-03 0. -1.
        -11    1    4    4    0    0 -0.73212232878E+01  0.20959133651E+01 -0.21749734650E+02  0.23044394565E+02  0.51100000000E-03 0.  1.
         12    1    4    4    0    0 -0.11368544114E+01  0.88220437439E+01 -0.67729173904E+01  0.11180040418E+02  0.00000000000E+00 0. -1.
</event>
<event>
 8    1  0.1253703E-006  0.9118800E+02  0.7816164E-02  0.1184000E+00
        -11   -1    0    0    0    0  0.00000000000E+00  0.00000000000E+00  0.45593999997E+02  0.45594000000E+02  0.51100000000E-03 0.  1.
         11   -1    0    0    0    0 -0.00000000000E+00 -0.00000000000E+00 -0.45593999997E+02  0.45594000000E+02  0.51100000000E-03 0. -1.
         23    2    1    2    0    0  0.00000000000E+00  0.00000000000E+00 -0.17763568394E-14  0.91188000000E+02  0.91188000000E+02 0.  0.
    9900012    2    3    3    0    0 -0.15757605179E+02  0.30576583243E+02 -0.13135823952E+02  0.54367089709E+02  0.40000012609E+02 0.  0.
        -12    1    3    3    0    0  0.15757605179E+02 -0.30576583243E+02  0.13135823952E+02  0.36820910291E+02  0.00000000000E+00 0.  1.
         11    1    4    4    0    0  0.10898244008E+02  0.17647817862E+02 -0.52382716052E+00  0.20748291325E+02  0.51100000000E-03 0. -1.
        -11    1    4    4    0    0 -0.16251911118E+02  0.25453276423E+01 -0.71726542862E+01  0.17945759320E+02  0.51100000000E-03 0.  1.
         12    1    4    4    0    0 -0.10403938069E+02  0.10383437739E+02 -0.54393425057E+01  0.15673039064E+02  0.00000000000E+00 0. -1.
</event>
<event>
 8    1  0.1253703E-006  0.9118800E+02  0.7816164E-02  0.1184000E+00
        -11   -1    0    0    0    0  0.00000000000E+00  0.00000000000E+00  0.45593999997E+02  0.45594000000E+02  0.51100000000E-03 0. -1.
         11   -1    0    0    0    0 -0.00000000000E+00 -0.00000000000E+00 -0.45593999997E+02  0.45594000000E+02  0.51100000000E-03 0.  1.
         23    2    1    2    0    0  0.35527136788E-14 -0.35527136788E-14  0.00000000000E+00  0.91188000000E+02  0.91188000000E+02 0.  0.
    9900012    2    3    3    0    0  0.28347903979E+02 -0.21887270156E+02 -0.85511771787E+01  0.54367097159E+02  0.40000029594E+02 0.  0.
        -12    1    3    3    0    0 -0.28347903979E+02  0.21887270156E+02  0.85511771787E+01  0.36820902841E+02  0.00000000000E+00 0.  1.
         11    1    4    4    0    0  0.87054315528E+01 -0.59009994472E+01  0.11635872889E+02  0.15684383033E+02  0.51100000000E-03 0. -1.
        -11    1    4    4    0    0  0.95239630499E+01 -0.35338546392E+01  0.29030441707E+01  0.10565115546E+02  0.51100000000E-03 0.  1.
        -12    1    4    4    0    0  0.10118509376E+02 -0.12452416069E+02 -0.23090094238E+02  0.28117598580E+02  0.00000000000E+00 0.  1.
</event>
<event>
 8    1  0.1253703E-006  0.9118800E+02  0.7816164E-02  0.1184000E+00
        -11   -1    0    0    0    0  0.00000000000E+00  0.00000000000E+00  0.45593999997E+02  0.45594000000E+02  0.51100000000E-03 0. -1.
         11   -1    0    0    0    0 -0.00000000000E+00 -0.00000000000E+00 -0.45593999997E+02  0.45594000000E+02  0.51100000000E-03 0.  1.
         23    2    1    2    0    0  0.00000000000E+00 -0.35527136788E-14 -0.35527136788E-14  0.91188000000E+02  0.91188000000E+02 0.  0.
    9900012    2    3    3    0    0  0.12797969196E+02  0.23108594986E+02 -0.25651201919E+02  0.54367091026E+02  0.40000015613E+02 0.  0.
         12    1    3    3    0    0 -0.12797969196E+02 -0.23108594986E+02  0.25651201919E+02  0.36820908974E+02  0.00000000000E+00 0. -1.
         11    1    4    4    0    0  0.60418315117E+01 -0.50223636690E+01 -0.32903613991E+01  0.85178837300E+01  0.51100000000E-03 0. -1.
        -11    1    4    4    0    0 -0.21501477310E+01 -0.51462937804E+01 -0.30102895179E+01  0.63379269625E+01  0.51100000000E-03 0.  1.
        -12    1    4    4    0    0  0.89062854148E+01  0.33277252435E+02 -0.19350551002E+02  0.39511280334E+02  0.00000000000E+00 0.  1.
</event>
<event>
 8    1  0.1253703E-006  0.9118800E+02  0.7816164E-02  0.1184000E+00
        -11   -1    0    0    0    0  0.00000000000E+00  0.00000000000E+00  0.45593999997E+02  0.45594000000E+02  0.51100000000E-03 0.  1.
         11   -1    0    0    0    0 -0.00000000000E+00 -0.00000000000E+00 -0.45593999997E+02  0.45594000000E+02  0.51100000000E-03 0. -1.
         23    2    1    2    0    0  0.17763568394E-14  0.17763568394E-14  0.00000000000E+00  0.91188000000E+02  0.91188000000E+02 0.  0.
    9900012    2    3    3    0    0  0.46218202502E+01  0.10425702255E+02 -0.35010346308E+02  0.54367070645E+02  0.39999969150E+02 0.  0.
        -12    1    3    3    0    0 -0.46218202502E+01 -0.10425702255E+02  0.35010346308E+02  0.36820929355E+02  0.00000000000E+00 0.  1.
         11    1    4    4    0    0 -0.51756412608E+01  0.82940337696E+01 -0.36458620285E+02  0.37746645572E+02  0.51100000000E-03 0. -1.
        -11    1    4    4    0    0  0.18526753643E+01  0.69367605986E+01 -0.23722321115E+00  0.71838241014E+01  0.51100000000E-03 0.  1.
         12    1    4    4    0    0  0.79447861467E+01 -0.48050921128E+01  0.16854971878E+01  0.94366009717E+01  0.00000000000E+00 0. -1.
</event>
<event>
 8    1  0.1253703E-006  0.9118800E+02  0.7816164E-02  0.1184000E+00
        -11   -1    0    0    0    0  0.00000000000E+00  0.00000000000E+00  0.45593999997E+02  0.45594000000E+02  0.51100000000E-03 0.  1.
         11   -1    0    0    0    0 -0.00000000000E+00 -0.00000000000E+00 -0.45593999997E+02  0.45594000000E+02  0.51100000000E-03 0. -1.
         23    2    1    2    0    0 -0.22204460493E-15 -0.35527136788E-14 -0.71054273576E-14  0.91188000000E+02  0.91188000000E+02 0.  0.
    9900012    2    3    3    0    0 -0.61401306860E+00 -0.21139728057E+02 -0.30141736047E+02  0.54366954845E+02  0.39999705159E+02 0.  0.
        -12    1    3    3    0    0  0.61401306860E+00  0.21139728057E+02  0.30141736047E+02  0.36821045155E+02  0.00000000000E+00 0.  1.
         11    1    4    4    0    0 -0.16442438065E+01 -0.17561366691E+02 -0.25080308739E+02  0.30661490904E+02  0.51100000000E-03 0.  1.
        -11    1    4    4    0    0  0.53263373422E+00 -0.13118778785E+02 -0.55176951414E+00  0.13141175951E+02  0.51100000000E-03 0. -1.
        -12    1    4    4    0    0  0.49759700365E+00  0.95404174197E+01 -0.45096577944E+01  0.10564287990E+02  0.00000000000E+00 0.  1.
</event>
<event>
 8    1  0.1253703E-006  0.9118800E+02  0.7816164E-02  0.1184000E+00
        -11   -1    0    0    0    0  0.00000000000E+00  0.00000000000E+00  0.45593999997E+02  0.45594000000E+02  0.51100000000E-03 0. -1.
         11   -1    0    0    0    0 -0.00000000000E+00 -0.00000000000E+00 -0.45593999997E+02  0.45594000000E+02  0.51100000000E-03 0.  1.
         23    2    1    2    0    0  0.00000000000E+00  0.35527136788E-14  0.88817841970E-15  0.91188000000E+02  0.91188000000E+02 0.  0.
    9900012    2    3    3    0    0  0.30944620854E+02  0.18755909364E+02  0.68136415116E+01  0.54367090091E+02  0.40000013480E+02 0.  0.
        -12    1    3    3    0    0 -0.30944620854E+02 -0.18755909364E+02 -0.68136415116E+01  0.36820909909E+02  0.00000000000E+00 0.  1.
         11    1    4    4    0    0  0.14266460583E+02 -0.42529220704E+01  0.88042958953E+01  0.17295515898E+02  0.51100000000E-03 0. -1.
        -11    1    4    4    0    0  0.15543583829E+02  0.15581324284E+02 -0.11595944547E+02  0.24876627482E+02  0.51100000000E-03 0.  1.
         12    1    4    4    0    0  0.11345764425E+01  0.74275071503E+01  0.96052901630E+01  0.12194946711E+02  0.00000000000E+00 0. -1.
</event>
<event>
 8    1  0.1253703E-006  0.9118800E+02  0.7816164E-02  0.1184000E+00
        -11   -1    0    0    0    0  0.00000000000E+00  0.00000000000E+00  0.45593999997E+02  0.45594000000E+02  0.51100000000E-03 0.  1.
         11   -1    0    0    0    0 -0.00000000000E+00 -0.00000000000E+00 -0.45593999997E+02  0.45594000000E+02  0.51100000000E-03 0. -1.
         23    2    1    2    0    0 -0.35527136788E-14 -0.44408920985E-15 -0.71054273576E-14  0.91188000000E+02  0.91188000000E+02 0.  0.
    9900012    2    3    3    0    0 -0.24318494130E+02  0.31569214226E+01 -0.27466810204E+02  0.54367068828E+02  0.39999965007E+02 0.  0.
        -12    1    3    3    0    0  0.24318494130E+02 -0.31569214226E+01  0.27466810204E+02  0.36820931172E+02  0.00000000000E+00 0.  1.
         11    1    4    4    0    0 -0.19939178139E+02 -0.12025715462E+02 -0.44389695290E+01  0.23704284591E+02  0.51100000000E-03 0. -1.
        -11    1    4    4    0    0 -0.52748206100E+01  0.13582111353E+02 -0.10397235217E+02  0.17899720157E+02  0.51100000000E-03 0.  1.
         12    1    4    4    0    0  0.89550461865E+00  0.16005255321E+01 -0.12630605457E+02  0.12763064080E+02  0.00000000000E+00 0. -1.
</event>
<event>
 8    1  0.1253703E-006  0.9118800E+02  0.7816164E-02  0.1184000E+00
        -11   -1    0    0    0    0  0.00000000000E+00  0.00000000000E+00  0.45593999997E+02  0.45594000000E+02  0.51100000000E-03 0.  1.
         11   -1    0    0    0    0 -0.00000000000E+00 -0.00000000000E+00 -0.45593999997E+02  0.45594000000E+02  0.51100000000E-03 0. -1.
         23    2    1    2    0    0  0.00000000000E+00  0.71054273576E-14 -0.88817841970E-15  0.91188000000E+02  0.91188000000E+02 0.  0.
    9900012    2    3    3    0    0 -0.15171850433E+02  0.33141492205E+02  0.52187971069E+01  0.54367090256E+02  0.40000013856E+02 0.  0.
         12    1    3    3    0    0  0.15171850433E+02 -0.33141492205E+02 -0.52187971069E+01  0.36820909744E+02  0.00000000000E+00 0. -1.
         11    1    4    4    0    0 -0.57606235887E+01  0.14521832595E+02  0.88077330865E+01  0.17934451997E+02  0.51100000000E-03 0. -1.
        -11    1    4    4    0    0  0.30609707269E+00  0.11679173172E+02  0.12031501907E+02  0.16770623716E+02  0.51100000000E-03 0.  1.
         12    1    4    4    0    0 -0.97173239175E+01  0.69404864377E+01 -0.15620437887E+02  0.19662014543E+02  0.00000000000E+00 0. -1.
</event>
<event>
 8    1  0.1253703E-006  0.9118800E+02  0.7816164E-02  0.1184000E+00
        -11   -1    0    0    0    0  0.00000000000E+00  0.00000000000E+00  0.45593999997E+02  0.45594000000E+02  0.51100000000E-03 0.  1.
         11   -1    0    0    0    0 -0.00000000000E+00 -0.00000000000E+00 -0.45593999997E+02  0.45594000000E+02  0.51100000000E-03 0. -1.
         23    2    1    2    0    0  0.00000000000E+00  0.00000000000E+00  0.35527136788E-14  0.91188000000E+02  0.91188000000E+02 0.  0.
    9900012    2    3    3    0    0  0.24521790784E+02 -0.22127318475E+02 -0.16274003146E+02  0.54367087131E+02  0.40000006732E+02 0.  0.
        -12    1    3    3    0    0 -0.24521790784E+02  0.22127318475E+02  0.16274003146E+02  0.36820912869E+02  0.00000000000E+00 0.  1.
         11    1    4    4    0    0  0.13023820597E+01 -0.26241665006E+01  0.56547199078E+01  0.63685403626E+01  0.51100000000E-03 0. -1.
        -11    1    4    4    0    0  0.99754181459E+01 -0.61335022510E+01  0.68845878723E+01  0.13584048273E+02  0.51100000000E-03 0.  1.
         12    1    4    4    0    0  0.13243990578E+02 -0.13369649723E+02 -0.28813310926E+02  0.34414498495E+02  0.00000000000E+00 0. -1.
</event>
<event>
 8    1  0.1253703E-006  0.9118800E+02  0.7816164E-02  0.1184000E+00
        -11   -1    0    0    0    0  0.00000000000E+00  0.00000000000E+00  0.45593999997E+02  0.45594000000E+02  0.51100000000E-03 0.  1.
         11   -1    0    0    0    0 -0.00000000000E+00 -0.00000000000E+00 -0.45593999997E+02  0.45594000000E+02  0.51100000000E-03 0. -1.
         23    2    1    2    0    0  0.12212453271E-14  0.88817841970E-15 -0.71054273576E-14  0.91188000000E+02  0.91188000000E+02 0.  0.
    9900012    2    3    3    0    0  0.61764328717E+00  0.76540289995E+01 -0.36011314483E+02  0.54367076411E+02  0.39999982294E+02 0.  0.
        -12    1    3    3    0    0 -0.61764328717E+00 -0.76540289995E+01  0.36011314483E+02  0.36820923589E+02  0.00000000000E+00 0.  1.
         11    1    4    4    0    0 -0.11149947791E+01  0.75567464805E+00 -0.62570947836E+01  0.64004291202E+01  0.51100000000E-03 0. -1.
        -11    1    4    4    0    0 -0.16890979290E+02  0.60923278668E+01 -0.90523803141E+01  0.20108884350E+02  0.51100000000E-03 0.  1.
         12    1    4    4    0    0  0.18623617356E+02  0.80602648463E+00 -0.20701839385E+02  0.27857762941E+02  0.00000000000E+00 0. -1.
</event>
<event>
 8    1  0.1253703E-006  0.9118800E+02  0.7816164E-02  0.1184000E+00
        -11   -1    0    0    0    0  0.00000000000E+00  0.00000000000E+00  0.45593999997E+02  0.45594000000E+02  0.51100000000E-03 0. -1.
         11   -1    0    0    0    0 -0.00000000000E+00 -0.00000000000E+00 -0.45593999997E+02  0.45594000000E+02  0.51100000000E-03 0.  1.
         23    2    1    2    0    0  0.88817841970E-15  0.00000000000E+00  0.00000000000E+00  0.91188000000E+02  0.91188000000E+02 0.  0.
    9900012    2    3    3    0    0  0.72523009907E+01 -0.14857075263E+02  0.32900637738E+02  0.54367074990E+02  0.39999979055E+02 0.  0.
        -12    1    3    3    0    0 -0.72523009907E+01  0.14857075263E+02 -0.32900637738E+02  0.36820925010E+02  0.00000000000E+00 0.  1.
         11    1    4    4    0    0  0.12947735441E+02 -0.96076655475E+01  0.22373050596E+01  0.16277488274E+02  0.51100000000E-03 0. -1.
        -11    1    4    4    0    0  0.64209916654E+01  0.14538611537E+01  0.31719527111E+01  0.73078129754E+01  0.51100000000E-03 0.  1.
         12    1    4    4    0    0 -0.12116426115E+02 -0.67032708692E+01  0.27491379967E+02  0.30781773741E+02  0.00000000000E+00 0. -1.
</event>
<event>
 8    1  0.1253703E-006  0.9118800E+02  0.7816164E-02  0.1184000E+00
        -11   -1    0    0    0    0  0.00000000000E+00  0.00000000000E+00  0.45593999997E+02  0.45594000000E+02  0.51100000000E-03 0.  1.
         11   -1    0    0    0    0 -0.00000000000E+00 -0.00000000000E+00 -0.45593999997E+02  0.45594000000E+02  0.51100000000E-03 0. -1.
         23    2    1    2    0    0  0.00000000000E+00  0.00000000000E+00  0.00000000000E+00  0.91188000000E+02  0.91188000000E+02 0.  0.
    9900012    2    3    3    0    0 -0.85741411303E+01 -0.35786822638E+02  0.12517205637E+01  0.54367090519E+02  0.40000014456E+02 0.  0.
        -12    1    3    3    0    0  0.85741411303E+01  0.35786822638E+02 -0.12517205637E+01  0.36820909481E+02  0.00000000000E+00 0.  1.
         11    1    4    4    0    0 -0.63738025299E+01 -0.17342486295E+02  0.61049039575E+00  0.18486748994E+02  0.51100000000E-03 0. -1.
        -11    1    4    4    0    0 -0.10934353653E+02 -0.23243797653E+02  0.22495970089E+01  0.25785556153E+02  0.51100000000E-03 0.  1.
        -12    1    4    4    0    0  0.87340150527E+01  0.47994613105E+01 -0.16083668410E+01  0.10094785372E+02  0.00000000000E+00 0.  1.
</event>
<event>
 8    1  0.1253703E-006  0.9118800E+02  0.7816164E-02  0.1184000E+00
        -11   -1    0    0    0    0  0.00000000000E+00  0.00000000000E+00  0.45593999997E+02  0.45594000000E+02  0.51100000000E-03 0.  1.
         11   -1    0    0    0    0 -0.00000000000E+00 -0.00000000000E+00 -0.45593999997E+02  0.45594000000E+02  0.51100000000E-03 0. -1.
         23    2    1    2    0    0  0.00000000000E+00 -0.88817841970E-15 -0.35527136788E-14  0.91188000000E+02  0.91188000000E+02 0.  0.
    9900012    2    3    3    0    0  0.24777801869E+02  0.72757481332E+01  0.26246975026E+02  0.54367086454E+02  0.40000005188E+02 0.  0.
         12    1    3    3    0    0 -0.24777801869E+02 -0.72757481332E+01 -0.26246975026E+02  0.36820913546E+02  0.00000000000E+00 0. -1.
         11    1    4    4    0    0 -0.45068382715E+01  0.97895702783E+01  0.14240338679E+02  0.17858738012E+02  0.51100000000E-03 0. -1.
        -11    1    4    4    0    0 -0.70795676937E+00  0.24386719426E+01  0.45465206994E+01  0.52076073549E+01  0.51100000000E-03 0.  1.
         12    1    4    4    0    0  0.29992596910E+02 -0.49524940877E+01  0.74601156482E+01  0.31300741087E+02  0.00000000000E+00 0. -1.
</event>
<event>
 8    1  0.1253703E-006  0.9118800E+02  0.7816164E-02  0.1184000E+00
        -11   -1    0    0    0    0  0.00000000000E+00  0.00000000000E+00  0.45593999997E+02  0.45594000000E+02  0.51100000000E-03 0.  1.
         11   -1    0    0    0    0 -0.00000000000E+00 -0.00000000000E+00 -0.45593999997E+02  0.45594000000E+02  0.51100000000E-03 0. -1.
         23    2    1    2    0    0  0.00000000000E+00  0.00000000000E+00  0.00000000000E+00  0.91188000000E+02  0.91188000000E+02 0.  0.
    9900012    2    3    3    0    0  0.74410053888E+01 -0.18872024899E+02 -0.30728749484E+02  0.54367110143E+02  0.40000059194E+02 0.  0.
        -12    1    3    3    0    0 -0.74410053888E+01  0.18872024899E+02  0.30728749484E+02  0.36820889857E+02  0.00000000000E+00 0.  1.
         11    1    4    4    0    0  0.10319600382E+01  0.11625626759E+01 -0.31276084618E+02  0.31314692443E+02  0.51100000000E-03 0. -1.
        -11    1    4    4    0    0  0.37555461236E+00 -0.14361266930E+02 -0.17121604703E+01  0.14467844444E+02  0.51100000000E-03 0.  1.
         12    1    4    4    0    0  0.60334907382E+01 -0.56733206439E+01  0.22594956038E+01  0.85845732568E+01  0.00000000000E+00 0. -1.
</event>
<event>
 8    1  0.1253703E-006  0.9118800E+02  0.7816164E-02  0.1184000E+00
        -11   -1    0    0    0    0  0.00000000000E+00  0.00000000000E+00  0.45593999997E+02  0.45594000000E+02  0.51100000000E-03 0. -1.
         11   -1    0    0    0    0 -0.00000000000E+00 -0.00000000000E+00 -0.45593999997E+02  0.45594000000E+02  0.51100000000E-03 0.  1.
         23    2    1    2    0    0  0.71054273576E-14  0.00000000000E+00  0.35527136788E-14  0.91188000000E+02  0.91188000000E+02 0.  0.
    9900012    2    3    3    0    0 -0.32086121149E+02 -0.45636953967E+01 -0.17476557991E+02  0.54367128673E+02  0.40000101435E+02 0.  0.
         12    1    3    3    0    0  0.32086121149E+02  0.45636953967E+01  0.17476557991E+02  0.36820871327E+02  0.00000000000E+00 0. -1.
         11    1    4    4    0    0 -0.94576386614E+00 -0.50905623986E+01  0.20408509123E+01  0.55653721827E+01  0.51100000000E-03 0. -1.
        -11    1    4    4    0    0  0.60920927263E+01  0.39730257472E+01 -0.41636903977E+01  0.83806232085E+01  0.51100000000E-03 0.  1.
        -12    1    4    4    0    0 -0.37232450009E+02 -0.34461587454E+01 -0.15353718506E+02  0.40421133282E+02  0.00000000000E+00 0.  1.
</event>
<event>
 8    1  0.1253703E-006  0.9118800E+02  0.7816164E-02  0.1184000E+00
        -11   -1    0    0    0    0  0.00000000000E+00  0.00000000000E+00  0.45593999997E+02  0.45594000000E+02  0.51100000000E-03 0.  1.
         11   -1    0    0    0    0 -0.00000000000E+00 -0.00000000000E+00 -0.45593999997E+02  0.45594000000E+02  0.51100000000E-03 0. -1.
         23    2    1    2    0    0  0.17763568394E-14  0.00000000000E+00  0.00000000000E+00  0.91188000000E+02  0.91188000000E+02 0.  0.
    9900012    2    3    3    0    0  0.85901895167E+01 -0.49033273336E+01 -0.35467531147E+02  0.54367085556E+02  0.40000003142E+02 0.  0.
        -12    1    3    3    0    0 -0.85901895167E+01  0.49033273336E+01  0.35467531147E+02  0.36820914444E+02  0.00000000000E+00 0.  1.
         11    1    4    4    0    0  0.59760795648E+01  0.22838284440E+00 -0.27486563645E+01  0.65818536720E+01  0.51100000000E-03 0. -1.
        -11    1    4    4    0    0  0.11019400227E+02 -0.16995432017E+02 -0.20053599628E+02  0.28502960357E+02  0.51100000000E-03 0.  1.
        -12    1    4    4    0    0 -0.84052902755E+01  0.11863721839E+02 -0.12665275154E+02  0.19282271527E+02  0.00000000000E+00 0.  1.
</event>
<event>
 8    1  0.1253703E-006  0.9118800E+02  0.7816164E-02  0.1184000E+00
        -11   -1    0    0    0    0  0.00000000000E+00  0.00000000000E+00  0.45593999997E+02  0.45594000000E+02  0.51100000000E-03 0.  1.
         11   -1    0    0    0    0 -0.00000000000E+00 -0.00000000000E+00 -0.45593999997E+02  0.45594000000E+02  0.51100000000E-03 0. -1.
         23    2    1    2    0    0  0.00000000000E+00 -0.66613381478E-15  0.00000000000E+00  0.91188000000E+02  0.91188000000E+02 0.  0.
    9900012    2    3    3    0    0  0.24510530377E+02  0.17700775450E+01  0.27420437614E+02  0.54367086475E+02  0.40000005238E+02 0.  0.
         12    1    3    3    0    0 -0.24510530377E+02 -0.17700775450E+01 -0.27420437614E+02  0.36820913525E+02  0.00000000000E+00 0. -1.
         11    1    4    4    0    0  0.15262002158E+02 -0.87304000271E+01  0.96105247028E+00  0.17608867556E+02  0.51100000000E-03 0. -1.
        -11    1    4    4    0    0  0.11201048140E+02  0.30234751934E+01  0.26609756516E+02  0.29029020373E+02  0.51100000000E-03 0.  1.
        -12    1    4    4    0    0 -0.19525199217E+01  0.74770023787E+01 -0.15037137288E+00  0.77291985461E+01  0.00000000000E+00 0.  1.
</event>
<event>
 8    1  0.1253703E-006  0.9118800E+02  0.7816164E-02  0.1184000E+00
        -11   -1    0    0    0    0  0.00000000000E+00  0.00000000000E+00  0.45593999997E+02  0.45594000000E+02  0.51100000000E-03 0.  1.
         11   -1    0    0    0    0 -0.00000000000E+00 -0.00000000000E+00 -0.45593999997E+02  0.45594000000E+02  0.51100000000E-03 0. -1.
         23    2    1    2    0    0 -0.17763568394E-14  0.00000000000E+00 -0.17763568394E-14  0.91188000000E+02  0.91188000000E+02 0.  0.
    9900012    2    3    3    0    0 -0.15136871585E+02 -0.32345208903E+02 -0.89690572077E+01  0.54367062919E+02  0.39999951536E+02 0.  0.
         12    1    3    3    0    0  0.15136871585E+02  0.32345208903E+02  0.89690572077E+01  0.36820937081E+02  0.00000000000E+00 0. -1.
         11    1    4    4    0    0  0.20105013014E+01 -0.39455952488E+01  0.72991016235E+01  0.85373720852E+01  0.51100000000E-03 0. -1.
        -11    1    4    4    0    0  0.34568793428E+01 -0.11257345895E+02  0.37695347864E+01  0.12364758152E+02  0.51100000000E-03 0.  1.
        -12    1    4    4    0    0 -0.20604252229E+02 -0.17142267759E+02 -0.20037693618E+02  0.33464932681E+02  0.00000000000E+00 0.  1.
</event>
<event>
 8    1  0.1253703E-006  0.9118800E+02  0.7816164E-02  0.1184000E+00
        -11   -1    0    0    0    0  0.00000000000E+00  0.00000000000E+00  0.45593999997E+02  0.45594000000E+02  0.51100000000E-03 0. -1.
         11   -1    0    0    0    0 -0.00000000000E+00 -0.00000000000E+00 -0.45593999997E+02  0.45594000000E+02  0.51100000000E-03 0.  1.
         23    2    1    2    0    0  0.00000000000E+00  0.00000000000E+00  0.35527136788E-14  0.91188000000E+02  0.91188000000E+02 0.  0.
    9900012    2    3    3    0    0 -0.90297483654E+01 -0.22561090090E+02  0.27662972742E+02  0.54367092862E+02  0.40000019797E+02 0.  0.
        -12    1    3    3    0    0  0.90297483654E+01  0.22561090090E+02 -0.27662972742E+02  0.36820907138E+02  0.00000000000E+00 0.  1.
         11    1    4    4    0    0 -0.99034599168E+01 -0.14664053846E+02  0.17343055617E+01  0.17779786544E+02  0.51100000000E-03 0. -1.
        -11    1    4    4    0    0 -0.36257686255E+01 -0.12141539171E+02  0.32517876215E+01  0.13081945366E+02  0.51100000000E-03 0.  1.
        -12    1    4    4    0    0  0.44994801769E+01  0.42445029267E+01  0.22676879558E+02  0.23505360952E+02  0.00000000000E+00 0.  1.
</event>
<event>
 8    1  0.1253703E-006  0.9118800E+02  0.7816164E-02  0.1184000E+00
        -11   -1    0    0    0    0  0.00000000000E+00  0.00000000000E+00  0.45593999997E+02  0.45594000000E+02  0.51100000000E-03 0.  1.
         11   -1    0    0    0    0 -0.00000000000E+00 -0.00000000000E+00 -0.45593999997E+02  0.45594000000E+02  0.51100000000E-03 0. -1.
         23    2    1    2    0    0  0.00000000000E+00  0.00000000000E+00  0.00000000000E+00  0.91188000000E+02  0.91188000000E+02 0.  0.
    9900012    2    3    3    0    0 -0.28573637021E+02  0.17680349105E+02 -0.15057618476E+02  0.54367090842E+02  0.40000015191E+02 0.  0.
        -12    1    3    3    0    0  0.28573637021E+02 -0.17680349105E+02  0.15057618476E+02  0.36820909158E+02  0.00000000000E+00 0.  1.
         11    1    4    4    0    0 -0.19509133889E+02  0.17045189403E+02 -0.34870153099E+01  0.26140085366E+02  0.51100000000E-03 0. -1.
        -11    1    4    4    0    0 -0.14058625507E+02  0.14633650013E+01  0.14964890782E+01  0.14213580411E+02  0.51100000000E-03 0.  1.
         12    1    4    4    0    0  0.49941223756E+01 -0.82820529941E+00 -0.13067092244E+02  0.14013425064E+02  0.00000000000E+00 0. -1.
</event>
<event>
 8    1  0.1253703E-006  0.9118800E+02  0.7816164E-02  0.1184000E+00
        -11   -1    0    0    0    0  0.00000000000E+00  0.00000000000E+00  0.45593999997E+02  0.45594000000E+02  0.51100000000E-03 0.  1.
         11   -1    0    0    0    0 -0.00000000000E+00 -0.00000000000E+00 -0.45593999997E+02  0.45594000000E+02  0.51100000000E-03 0. -1.
         23    2    1    2    0    0  0.00000000000E+00  0.00000000000E+00  0.17763568394E-14  0.91188000000E+02  0.91188000000E+02 0.  0.
    9900012    2    3    3    0    0  0.22845396690E+02 -0.27149066735E+02 -0.98384337258E+01  0.54367098970E+02  0.40000033722E+02 0.  0.
        -12    1    3    3    0    0 -0.22845396690E+02  0.27149066735E+02  0.98384337258E+01  0.36820901030E+02  0.00000000000E+00 0.  1.
         11    1    4    4    0    0  0.92908065092E+01  0.19399228494E+00 -0.13073856660E+02  0.16040026397E+02  0.51100000000E-03 0. -1.
        -11    1    4    4    0    0  0.32872156462E+01 -0.27714516234E+02  0.26989919337E+01  0.28038986332E+02  0.51100000000E-03 0.  1.
        -12    1    4    4    0    0  0.10267374534E+02  0.37145721413E+00  0.53643100050E+00  0.10288086241E+02  0.00000000000E+00 0.  1.
</event>
<event>
 8    1  0.1253703E-006  0.9118800E+02  0.7816164E-02  0.1184000E+00
        -11   -1    0    0    0    0  0.00000000000E+00  0.00000000000E+00  0.45593999997E+02  0.45594000000E+02  0.51100000000E-03 0.  1.
         11   -1    0    0    0    0 -0.00000000000E+00 -0.00000000000E+00 -0.45593999997E+02  0.45594000000E+02  0.51100000000E-03 0. -1.
         23    2    1    2    0    0  0.11102230246E-14 -0.71054273576E-14 -0.44408920985E-15  0.91188000000E+02  0.91188000000E+02 0.  0.
    9900012    2    3    3    0    0 -0.19366599239E+01  0.36553098509E+02  0.39874803273E+01  0.54367086627E+02  0.40000005584E+02 0.  0.
        -12    1    3    3    0    0  0.19366599239E+01 -0.36553098509E+02 -0.39874803273E+01  0.36820913373E+02  0.00000000000E+00 0.  1.
         11    1    4    4    0    0 -0.36428764169E+01 -0.81431564522E+00  0.86410223306E+01  0.94128064751E+01  0.51100000000E-03 0. -1.
        -11    1    4    4    0    0  0.98230699242E+01  0.64103287978E+01 -0.54654296767E+01  0.12940476801E+02  0.51100000000E-03 0.  1.
         12    1    4    4    0    0 -0.81168534312E+01  0.30957085356E+02  0.81188767337E+00  0.32013803351E+02  0.00000000000E+00 0. -1.
</event>
<event>
 8    1  0.1253703E-006  0.9118800E+02  0.7816164E-02  0.1184000E+00
        -11   -1    0    0    0    0  0.00000000000E+00  0.00000000000E+00  0.45593999997E+02  0.45594000000E+02  0.51100000000E-03 0. -1.
         11   -1    0    0    0    0 -0.00000000000E+00 -0.00000000000E+00 -0.45593999997E+02  0.45594000000E+02  0.51100000000E-03 0.  1.
         23    2    1    2    0    0  0.11102230246E-15  0.71054273576E-14  0.00000000000E+00  0.91188000000E+02  0.91188000000E+02 0.  0.
    9900012    2    3    3    0    0  0.73050864584E+00 -0.36328089143E+02 -0.59595434271E+01  0.54367083913E+02  0.39999999396E+02 0.  0.
         12    1    3    3    0    0 -0.73050864584E+00  0.36328089143E+02  0.59595434271E+01  0.36820916087E+02  0.00000000000E+00 0. -1.
         11    1    4    4    0    0 -0.12234177114E+02 -0.15730103572E+02  0.31438886711E+01  0.20174124126E+02  0.51100000000E-03 0. -1.
        -11    1    4    4    0    0 -0.62827760344E+01 -0.56236991602E+01 -0.97807952008E+00  0.84885750719E+01  0.51100000000E-03 0.  1.
        -12    1    4    4    0    0  0.19247461794E+02 -0.14974286411E+02 -0.81253525781E+01  0.25704384714E+02  0.00000000000E+00 0.  1.
</event>
<event>
 8    1  0.1253703E-006  0.9118800E+02  0.7816164E-02  0.1184000E+00
        -11   -1    0    0    0    0  0.00000000000E+00  0.00000000000E+00  0.45593999997E+02  0.45594000000E+02  0.51100000000E-03 0.  1.
         11   -1    0    0    0    0 -0.00000000000E+00 -0.00000000000E+00 -0.45593999997E+02  0.45594000000E+02  0.51100000000E-03 0. -1.
         23    2    1    2    0    0  0.88817841970E-15  0.00000000000E+00  0.00000000000E+00  0.91188000000E+02  0.91188000000E+02 0.  0.
    9900012    2    3    3    0    0  0.75766167293E+01 -0.28599210741E+02  0.21919406445E+02  0.54367077212E+02  0.39999984120E+02 0.  0.
         12    1    3    3    0    0 -0.75766167293E+01  0.28599210741E+02 -0.21919406445E+02  0.36820922788E+02  0.00000000000E+00 0. -1.
         11    1    4    4    0    0 -0.43203403233E+01  0.13067592797E+01 -0.14187670078E+01  0.47313698236E+01  0.51100000000E-03 0. -1.
        -11    1    4    4    0    0 -0.84385030606E+01 -0.93936392605E+01  0.14927703246E+02  0.19552112851E+02  0.51100000000E-03 0.  1.
        -12    1    4    4    0    0  0.20335460113E+02 -0.20512330760E+02  0.84104702071E+01  0.30083594538E+02  0.00000000000E+00 0.  1.
</event>
<event>
 8    1  0.1253703E-006  0.9118800E+02  0.7816164E-02  0.1184000E+00
        -11   -1    0    0    0    0  0.00000000000E+00  0.00000000000E+00  0.45593999997E+02  0.45594000000E+02  0.51100000000E-03 0.  1.
         11   -1    0    0    0    0 -0.00000000000E+00 -0.00000000000E+00 -0.45593999997E+02  0.45594000000E+02  0.51100000000E-03 0. -1.
         23    2    1    2    0    0 -0.17763568394E-14  0.00000000000E+00  0.35527136788E-14  0.91188000000E+02  0.91188000000E+02 0.  0.
    9900012    2    3    3    0    0  0.88222616683E+01  0.20246665967E+02 -0.29461912508E+02  0.54367298318E+02  0.40000488172E+02 0.  0.
        -12    1    3    3    0    0 -0.88222616683E+01 -0.20246665967E+02  0.29461912508E+02  0.36820701682E+02  0.00000000000E+00 0.  1.
         11    1    4    4    0    0  0.77840994440E+01  0.87040792533E+01 -0.72960010366E+01  0.13768980761E+02  0.51100000000E-03 0. -1.
        -11    1    4    4    0    0  0.24043293121E+01  0.22624116881E+02 -0.13412911583E+02  0.26410938292E+02  0.51100000000E-03 0.  1.
        -12    1    4    4    0    0 -0.13661670878E+01 -0.11081530167E+02 -0.87529998889E+01  0.14187379265E+02  0.00000000000E+00 0.  1.
</event>
<event>
 8    1  0.1253703E-006  0.9118800E+02  0.7816164E-02  0.1184000E+00
        -11   -1    0    0    0    0  0.00000000000E+00  0.00000000000E+00  0.45593999997E+02  0.45594000000E+02  0.51100000000E-03 0. -1.
         11   -1    0    0    0    0 -0.00000000000E+00 -0.00000000000E+00 -0.45593999997E+02  0.45594000000E+02  0.51100000000E-03 0.  1.
         23    2    1    2    0    0  0.00000000000E+00  0.00000000000E+00  0.35527136788E-14  0.91188000000E+02  0.91188000000E+02 0.  0.
    9900012    2    3    3    0    0  0.26851377548E+02 -0.17002311290E+02  0.18593125571E+02  0.54367090399E+02  0.40000014182E+02 0.  0.
        -12    1    3    3    0    0 -0.26851377548E+02  0.17002311290E+02 -0.18593125571E+02  0.36820909601E+02  0.00000000000E+00 0.  1.
         11    1    4    4    0    0  0.27543531768E+02 -0.23861127286E+02  0.71740418831E+01  0.37141168732E+02  0.51100000000E-03 0. -1.
        -11    1    4    4    0    0 -0.39074475586E+01  0.81717900162E+01  0.62749190097E+01  0.11019115542E+02  0.51100000000E-03 0.  1.
         12    1    4    4    0    0  0.32152933386E+01 -0.13129740197E+01  0.51441646778E+01  0.62068061241E+01  0.00000000000E+00 0. -1.
</event>
<event>
 8    1  0.1253703E-006  0.9118800E+02  0.7816164E-02  0.1184000E+00
        -11   -1    0    0    0    0  0.00000000000E+00  0.00000000000E+00  0.45593999997E+02  0.45594000000E+02  0.51100000000E-03 0. -1.
         11   -1    0    0    0    0 -0.00000000000E+00 -0.00000000000E+00 -0.45593999997E+02  0.45594000000E+02  0.51100000000E-03 0.  1.
         23    2    1    2    0    0  0.00000000000E+00  0.88817841970E-15  0.00000000000E+00  0.91188000000E+02  0.91188000000E+02 0.  0.
    9900012    2    3    3    0    0 -0.13052918373E+02 -0.58582190848E+01 -0.33927591511E+02  0.54367097314E+02  0.40000029947E+02 0.  0.
         12    1    3    3    0    0  0.13052918373E+02  0.58582190848E+01  0.33927591511E+02  0.36820902686E+02  0.00000000000E+00 0. -1.
         11    1    4    4    0    0 -0.26751308579E+01  0.58688577089E+01 -0.14729875171E+02  0.16080082050E+02  0.51100000000E-03 0. -1.
        -11    1    4    4    0    0 -0.19898648661E+02 -0.35586669800E+01 -0.14561506845E+02  0.24913004859E+02  0.51100000000E-03 0.  1.
         12    1    4    4    0    0  0.95208611462E+01 -0.81684098137E+01 -0.46362094946E+01  0.13374010406E+02  0.00000000000E+00 0. -1.
</event>
<event>
 8    1  0.1253703E-006  0.9118800E+02  0.7816164E-02  0.1184000E+00
        -11   -1    0    0    0    0  0.00000000000E+00  0.00000000000E+00  0.45593999997E+02  0.45594000000E+02  0.51100000000E-03 0.  1.
         11   -1    0    0    0    0 -0.00000000000E+00 -0.00000000000E+00 -0.45593999997E+02  0.45594000000E+02  0.51100000000E-03 0. -1.
         23    2    1    2    0    0  0.00000000000E+00  0.00000000000E+00 -0.35527136788E-14  0.91188000000E+02  0.91188000000E+02 0.  0.
    9900012    2    3    3    0    0  0.10770646546E+02 -0.21592843005E+02 -0.27812279575E+02  0.54367074004E+02  0.39999976807E+02 0.  0.
        -12    1    3    3    0    0 -0.10770646546E+02  0.21592843005E+02  0.27812279575E+02  0.36820925996E+02  0.00000000000E+00 0.  1.
         11    1    4    4    0    0  0.14594852896E+02 -0.14028300129E+02 -0.82574558092E+01  0.21862948389E+02  0.51100000000E-03 0. -1.
        -11    1    4    4    0    0 -0.70824865500E+01 -0.10936278186E+02 -0.67068916924E+00  0.13046594211E+02  0.51100000000E-03 0.  1.
        -12    1    4    4    0    0  0.32582802002E+01  0.33717353104E+01 -0.18884134596E+02  0.19457531404E+02  0.00000000000E+00 0.  1.
</event>
<event>
 8    1  0.1253703E-006  0.9118800E+02  0.7816164E-02  0.1184000E+00
        -11   -1    0    0    0    0  0.00000000000E+00  0.00000000000E+00  0.45593999997E+02  0.45594000000E+02  0.51100000000E-03 0. -1.
         11   -1    0    0    0    0 -0.00000000000E+00 -0.00000000000E+00 -0.45593999997E+02  0.45594000000E+02  0.51100000000E-03 0.  1.
         23    2    1    2    0    0  0.00000000000E+00  0.71054273576E-14  0.88817841970E-15  0.91188000000E+02  0.91188000000E+02 0.  0.
    9900012    2    3    3    0    0 -0.58992781083E+01 -0.35832008844E+02 -0.60865813623E+01  0.54367070996E+02  0.39999969951E+02 0.  0.
        -12    1    3    3    0    0  0.58992781083E+01  0.35832008844E+02  0.60865813623E+01  0.36820929004E+02  0.00000000000E+00 0.  1.
         11    1    4    4    0    0  0.10011566170E+02 -0.32000721765E+02  0.40707919581E+01  0.33776456269E+02  0.51100000000E-03 0. -1.
        -11    1    4    4    0    0 -0.21552474043E+01  0.19841866994E+01 -0.22367984720E+01  0.36858317782E+01  0.51100000000E-03 0.  1.
        -12    1    4    4    0    0 -0.13755596874E+02 -0.58154737789E+01 -0.79205748484E+01  0.16904782950E+02  0.00000000000E+00 0.  1.
</event>
<event>
 8    1  0.1253703E-006  0.9118800E+02  0.7816164E-02  0.1184000E+00
        -11   -1    0    0    0    0  0.00000000000E+00  0.00000000000E+00  0.45593999997E+02  0.45594000000E+02  0.51100000000E-03 0.  1.
         11   -1    0    0    0    0 -0.00000000000E+00 -0.00000000000E+00 -0.45593999997E+02  0.45594000000E+02  0.51100000000E-03 0. -1.
         23    2    1    2    0    0  0.17763568394E-14 -0.11102230246E-14  0.00000000000E+00  0.91188000000E+02  0.91188000000E+02 0.  0.
    9900012    2    3    3    0    0  0.15154362315E+02 -0.11904973372E+01 -0.33536654816E+02  0.54367092932E+02  0.40000019957E+02 0.  0.
        -12    1    3    3    0    0 -0.15154362315E+02  0.11904973372E+01  0.33536654816E+02  0.36820907068E+02  0.00000000000E+00 0.  1.
         11    1    4    4    0    0  0.11424951400E+02 -0.17159517078E+02 -0.24316074508E+02  0.31878676582E+02  0.51100000000E-03 0. -1.
        -11    1    4    4    0    0  0.74927929928E+01  0.80800878419E+01 -0.21074843496E+01  0.11219236022E+02  0.51100000000E-03 0.  1.
         12    1    4    4    0    0 -0.37633820782E+01  0.78889318986E+01 -0.71130959581E+01  0.11269180329E+02  0.00000000000E+00 0. -1.
</event>
<event>
 8    1  0.1253703E-006  0.9118800E+02  0.7816164E-02  0.1184000E+00
        -11   -1    0    0    0    0  0.00000000000E+00  0.00000000000E+00  0.45593999997E+02  0.45594000000E+02  0.51100000000E-03 0.  1.
         11   -1    0    0    0    0 -0.00000000000E+00 -0.00000000000E+00 -0.45593999997E+02  0.45594000000E+02  0.51100000000E-03 0. -1.
         23    2    1    2    0    0 -0.88817841970E-15  0.00000000000E+00  0.71054273576E-14  0.91188000000E+02  0.91188000000E+02 0.  0.
    9900012    2    3    3    0    0  0.65500771346E+01  0.27236347536E+02  0.23896814645E+02  0.54367083557E+02  0.39999998584E+02 0.  0.
         12    1    3    3    0    0 -0.65500771346E+01 -0.27236347536E+02 -0.23896814645E+02  0.36820916443E+02  0.00000000000E+00 0. -1.
         11    1    4    4    0    0  0.11430531303E+02 -0.14977937672E+01  0.15148880711E+02  0.19036518040E+02  0.51100000000E-03 0. -1.
        -11    1    4    4    0    0 -0.79898429956E+01  0.34941252283E+01  0.32914593537E+01  0.93209552699E+01  0.51100000000E-03 0.  1.
        -12    1    4    4    0    0  0.31093888271E+01  0.25240016075E+02  0.54564745799E+01  0.26009610247E+02  0.00000000000E+00 0.  1.
</event>
<event>
 8    1  0.1253703E-006  0.9118800E+02  0.7816164E-02  0.1184000E+00
        -11   -1    0    0    0    0  0.00000000000E+00  0.00000000000E+00  0.45593999997E+02  0.45594000000E+02  0.51100000000E-03 0. -1.
         11   -1    0    0    0    0 -0.00000000000E+00 -0.00000000000E+00 -0.45593999997E+02  0.45594000000E+02  0.51100000000E-03 0.  1.
         23    2    1    2    0    0  0.00000000000E+00  0.00000000000E+00 -0.35527136788E-14  0.91188000000E+02  0.91188000000E+02 0.  0.
    9900012    2    3    3    0    0 -0.13940622868E+02  0.20822442757E+02  0.26978945118E+02  0.54367101477E+02  0.40000039438E+02 0.  0.
        -12    1    3    3    0    0  0.13940622868E+02 -0.20822442757E+02 -0.26978945118E+02  0.36820898523E+02  0.00000000000E+00 0.  1.
         11    1    4    4    0    0  0.11054150374E+00  0.54970918714E+01  0.35762894170E+01  0.65589697912E+01  0.51100000000E-03 0. -1.
        -11    1    4    4    0    0 -0.14818509503E+02  0.12766386905E+02  0.32717207511E+02  0.38118034132E+02  0.51100000000E-03 0.  1.
        -12    1    4    4    0    0  0.76734513160E+00  0.25589639811E+01 -0.93145518093E+01  0.96900975545E+01  0.00000000000E+00 0.  1.
</event>
<event>
 8    1  0.1253703E-006  0.9118800E+02  0.7816164E-02  0.1184000E+00
        -11   -1    0    0    0    0  0.00000000000E+00  0.00000000000E+00  0.45593999997E+02  0.45594000000E+02  0.51100000000E-03 0. -1.
         11   -1    0    0    0    0 -0.00000000000E+00 -0.00000000000E+00 -0.45593999997E+02  0.45594000000E+02  0.51100000000E-03 0.  1.
         23    2    1    2    0    0  0.00000000000E+00 -0.88817841970E-15 -0.35527136788E-14  0.91188000000E+02  0.91188000000E+02 0.  0.
    9900012    2    3    3    0    0  0.22304174664E+02 -0.75542572326E+01 -0.28306139257E+02  0.54367074843E+02  0.39999978719E+02 0.  0.
         12    1    3    3    0    0 -0.22304174664E+02  0.75542572326E+01  0.28306139257E+02  0.36820925157E+02  0.00000000000E+00 0. -1.
         11    1    4    4    0    0 -0.15205810685E+01  0.19387262225E+01  0.79374353747E+01  0.83110593031E+01  0.51100000000E-03 0. -1.
        -11    1    4    4    0    0  0.12493450841E+02  0.77144288807E+00 -0.11664388895E+02  0.17109629061E+02  0.51100000000E-03 0.  1.
         12    1    4    4    0    0  0.11331304891E+02 -0.10264426343E+02 -0.24579185737E+02  0.28946386479E+02  0.00000000000E+00 0. -1.
</event>
<event>
 8    1  0.1253703E-006  0.9118800E+02  0.7816164E-02  0.1184000E+00
        -11   -1    0    0    0    0  0.00000000000E+00  0.00000000000E+00  0.45593999997E+02  0.45594000000E+02  0.51100000000E-03 0.  1.
         11   -1    0    0    0    0 -0.00000000000E+00 -0.00000000000E+00 -0.45593999997E+02  0.45594000000E+02  0.51100000000E-03 0. -1.
         23    2    1    2    0    0 -0.17763568394E-14  0.00000000000E+00  0.00000000000E+00  0.91188000000E+02  0.91188000000E+02 0.  0.
    9900012    2    3    3    0    0  0.51930860097E+01 -0.26618884806E+02  0.24904768865E+02  0.54367072760E+02  0.39999973971E+02 0.  0.
         12    1    3    3    0    0 -0.51930860097E+01  0.26618884806E+02 -0.24904768865E+02  0.36820927240E+02  0.00000000000E+00 0. -1.
         11    1    4    4    0    0  0.26250272702E+01 -0.23831336895E+02  0.17735778378E+02  0.29822495223E+02  0.51100000000E-03 0.  1.
        -11    1    4    4    0    0  0.11367021061E+02 -0.21323554133E+01  0.99886546914E+01  0.15281666474E+02  0.51100000000E-03 0. -1.
         12    1    4    4    0    0 -0.87989623214E+01 -0.65519249702E+00 -0.28196642050E+01  0.92629110635E+01  0.00000000000E+00 0. -1.
</event>
<event>
 8    1  0.1253703E-006  0.9118800E+02  0.7816164E-02  0.1184000E+00
        -11   -1    0    0    0    0  0.00000000000E+00  0.00000000000E+00  0.45593999997E+02  0.45594000000E+02  0.51100000000E-03 0.  1.
         11   -1    0    0    0    0 -0.00000000000E+00 -0.00000000000E+00 -0.45593999997E+02  0.45594000000E+02  0.51100000000E-03 0. -1.
         23    2    1    2    0    0  0.12767564783E-14  0.00000000000E+00  0.71054273576E-14  0.91188000000E+02  0.91188000000E+02 0.  0.
    9900012    2    3    3    0    0  0.19776054210E+00 -0.70531878121E+01  0.36138535132E+02  0.54367078108E+02  0.39999986162E+02 0.  0.
         12    1    3    3    0    0 -0.19776054210E+00  0.70531878121E+01 -0.36138535132E+02  0.36820921892E+02  0.00000000000E+00 0. -1.
         11    1    4    4    0    0  0.20251828539E+01 -0.97796512248E+01  0.29348342515E+01  0.10409428227E+02  0.51100000000E-03 0. -1.
        -11    1    4    4    0    0 -0.13630617105E+02 -0.48071907042E+01  0.13443010814E+02  0.19738727039E+02  0.51100000000E-03 0.  1.
        -12    1    4    4    0    0  0.11803194793E+02  0.75336541170E+01  0.19760690067E+02  0.24218922841E+02  0.00000000000E+00 0.  1.
</event>
<event>
 8    1  0.1253703E-006  0.9118800E+02  0.7816164E-02  0.1184000E+00
        -11   -1    0    0    0    0  0.00000000000E+00  0.00000000000E+00  0.45593999997E+02  0.45594000000E+02  0.51100000000E-03 0. -1.
         11   -1    0    0    0    0 -0.00000000000E+00 -0.00000000000E+00 -0.45593999997E+02  0.45594000000E+02  0.51100000000E-03 0.  1.
         23    2    1    2    0    0 -0.22204460493E-15  0.00000000000E+00  0.00000000000E+00  0.91188000000E+02  0.91188000000E+02 0.  0.
    9900012    2    3    3    0    0  0.13320960318E+01  0.84044495862E+01  0.35824169459E+02  0.54367077007E+02  0.39999983652E+02 0.  0.
        -12    1    3    3    0    0 -0.13320960318E+01 -0.84044495862E+01 -0.35824169459E+02  0.36820922993E+02  0.00000000000E+00 0.  1.
         11    1    4    4    0    0 -0.46123358987E+01 -0.11369353235E+02  0.20517717600E+02  0.23906329103E+02  0.51100000000E-03 0. -1.
        -11    1    4    4    0    0  0.28745392916E+01  0.22554799273E+01  0.11774213888E+02  0.12328109295E+02  0.51100000000E-03 0.  1.
        -12    1    4    4    0    0  0.30698926388E+01  0.17518322894E+02  0.35322379706E+01  0.18132638609E+02  0.00000000000E+00 0.  1.
</event>
<event>
 8    1  0.1253703E-006  0.9118800E+02  0.7816164E-02  0.1184000E+00
        -11   -1    0    0    0    0  0.00000000000E+00  0.00000000000E+00  0.45593999997E+02  0.45594000000E+02  0.51100000000E-03 0.  1.
         11   -1    0    0    0    0 -0.00000000000E+00 -0.00000000000E+00 -0.45593999997E+02  0.45594000000E+02  0.51100000000E-03 0. -1.
         23    2    1    2    0    0  0.35527136788E-14  0.00000000000E+00 -0.35527136788E-14  0.91188000000E+02  0.91188000000E+02 0.  0.
    9900012    2    3    3    0    0 -0.22095978633E+02 -0.98750102591E+01  0.27749450576E+02  0.54367080584E+02  0.39999991807E+02 0.  0.
         12    1    3    3    0    0  0.22095978633E+02  0.98750102591E+01 -0.27749450576E+02  0.36820919416E+02  0.00000000000E+00 0. -1.
         11    1    4    4    0    0 -0.83892295934E+01 -0.11653664758E+02  0.12479387728E+02  0.19024252779E+02  0.51100000000E-03 0. -1.
        -11    1    4    4    0    0 -0.58857057275E+01  0.68177744183E+01  0.22057984552E+02  0.23825999721E+02  0.51100000000E-03 0.  1.
         12    1    4    4    0    0 -0.78210433119E+01 -0.50391199198E+01 -0.67879217045E+01  0.11516828084E+02  0.00000000000E+00 0. -1.
</event>
<event>
 8    1  0.1253703E-006  0.9118800E+02  0.7816164E-02  0.1184000E+00
        -11   -1    0    0    0    0  0.00000000000E+00  0.00000000000E+00  0.45593999997E+02  0.45594000000E+02  0.51100000000E-03 0.  1.
         11   -1    0    0    0    0 -0.00000000000E+00 -0.00000000000E+00 -0.45593999997E+02  0.45594000000E+02  0.51100000000E-03 0. -1.
         23    2    1    2    0    0 -0.17763568394E-14 -0.35527136788E-14  0.00000000000E+00  0.91188000000E+02  0.91188000000E+02 0.  0.
    9900012    2    3    3    0    0  0.80746977102E+01  0.31598101320E+02  0.17092068103E+02  0.54367088249E+02  0.40000009281E+02 0.  0.
         12    1    3    3    0    0 -0.80746977102E+01 -0.31598101320E+02 -0.17092068103E+02  0.36820911751E+02  0.00000000000E+00 0. -1.
         11    1    4    4    0    0  0.33395402204E+01  0.55605830636E+01  0.49716109240E+01  0.81724860558E+01  0.51100000000E-03 0. -1.
        -11    1    4    4    0    0  0.15059939096E+02  0.27166829066E+02  0.16203930515E+02  0.35034350735E+02  0.51100000000E-03 0.  1.
         12    1    4    4    0    0 -0.10324781606E+02 -0.11293108094E+01 -0.40834733358E+01  0.11160251458E+02  0.00000000000E+00 0. -1.
</event>
<event>
 8    1  0.1253703E-006  0.9118800E+02  0.7816164E-02  0.1184000E+00
        -11   -1    0    0    0    0  0.00000000000E+00  0.00000000000E+00  0.45593999997E+02  0.45594000000E+02  0.51100000000E-03 0. -1.
         11   -1    0    0    0    0 -0.00000000000E+00 -0.00000000000E+00 -0.45593999997E+02  0.45594000000E+02  0.51100000000E-03 0.  1.
         23    2    1    2    0    0 -0.35527136788E-14 -0.17763568394E-14  0.00000000000E+00  0.91188000000E+02  0.91188000000E+02 0.  0.
    9900012    2    3    3    0    0 -0.94500682225E+01 -0.10276822228E+02 -0.34071444082E+02  0.54367079773E+02  0.39999989958E+02 0.  0.
         12    1    3    3    0    0  0.94500682225E+01  0.10276822228E+02  0.34071444082E+02  0.36820920227E+02  0.00000000000E+00 0. -1.
         11    1    4    4    0    0  0.13437695982E+02 -0.12535572696E+02 -0.10677332968E+02  0.21253651350E+02  0.51100000000E-03 0. -1.
        -11    1    4    4    0    0 -0.20038560090E+02  0.24098769111E+01 -0.22247751218E+02  0.30038539108E+02  0.51100000000E-03 0.  1.
         12    1    4    4    0    0 -0.28492041148E+01 -0.15112644299E+00 -0.11463598960E+01  0.30748893152E+01  0.00000000000E+00 0. -1.
</event>
<event>
 8    1  0.1253703E-006  0.9118800E+02  0.7816164E-02  0.1184000E+00
        -11   -1    0    0    0    0  0.00000000000E+00  0.00000000000E+00  0.45593999997E+02  0.45594000000E+02  0.51100000000E-03 0. -1.
         11   -1    0    0    0    0 -0.00000000000E+00 -0.00000000000E+00 -0.45593999997E+02  0.45594000000E+02  0.51100000000E-03 0.  1.
         23    2    1    2    0    0  0.00000000000E+00  0.00000000000E+00  0.00000000000E+00  0.91188000000E+02  0.91188000000E+02 0.  0.
    9900012    2    3    3    0    0 -0.17634009856E+02 -0.23326194310E+02  0.22376572136E+02  0.54367073543E+02  0.39999975757E+02 0.  0.
        -12    1    3    3    0    0  0.17634009856E+02  0.23326194310E+02 -0.22376572136E+02  0.36820926457E+02  0.00000000000E+00 0.  1.
         11    1    4    4    0    0 -0.13609312590E+02 -0.17531262722E+02  0.27993184549E+02  0.35723618843E+02  0.51100000000E-03 0. -1.
        -11    1    4    4    0    0 -0.46001055474E+01  0.36071354449E+01  0.23561378090E+01  0.63026806045E+01  0.51100000000E-03 0.  1.
        -12    1    4    4    0    0  0.57540828131E+00 -0.94020670327E+01 -0.79727502223E+01  0.12340774096E+02  0.00000000000E+00 0.  1.
</event>
<event>
 8    1  0.1253703E-006  0.9118800E+02  0.7816164E-02  0.1184000E+00
        -11   -1    0    0    0    0  0.00000000000E+00  0.00000000000E+00  0.45593999997E+02  0.45594000000E+02  0.51100000000E-03 0. -1.
         11   -1    0    0    0    0 -0.00000000000E+00 -0.00000000000E+00 -0.45593999997E+02  0.45594000000E+02  0.51100000000E-03 0.  1.
         23    2    1    2    0    0  0.00000000000E+00  0.00000000000E+00  0.00000000000E+00  0.91188000000E+02  0.91188000000E+02 0.  0.
    9900012    2    3    3    0    0 -0.11411395124E+02 -0.34979573436E+02 -0.14098799729E+01  0.54367105688E+02  0.40000049037E+02 0.  0.
         12    1    3    3    0    0  0.11411395124E+02  0.34979573436E+02  0.14098799729E+01  0.36820894312E+02  0.00000000000E+00 0. -1.
         11    1    4    4    0    0 -0.74749108969E+01  0.23825553027E+01 -0.13244326380E+00  0.78465536489E+01  0.51100000000E-03 0. -1.
        -11    1    4    4    0    0 -0.11067853610E+02 -0.14673180565E+02 -0.10317363589E+02  0.21077182048E+02  0.51100000000E-03 0.  1.
         12    1    4    4    0    0  0.71313693830E+01 -0.22688948173E+02  0.90399268795E+01  0.25443369991E+02  0.00000000000E+00 0. -1.
</event>
<event>
 8    1  0.1253703E-006  0.9118800E+02  0.7816164E-02  0.1184000E+00
        -11   -1    0    0    0    0  0.00000000000E+00  0.00000000000E+00  0.45593999997E+02  0.45594000000E+02  0.51100000000E-03 0. -1.
         11   -1    0    0    0    0 -0.00000000000E+00 -0.00000000000E+00 -0.45593999997E+02  0.45594000000E+02  0.51100000000E-03 0.  1.
         23    2    1    2    0    0 -0.17763568394E-14  0.55511151231E-16  0.00000000000E+00  0.91188000000E+02  0.91188000000E+02 0.  0.
    9900012    2    3    3    0    0 -0.15264463370E+02 -0.94783009148E-01  0.33507706597E+02  0.54367092526E+02  0.40000019032E+02 0.  0.
        -12    1    3    3    0    0  0.15264463370E+02  0.94783009148E-01 -0.33507706597E+02  0.36820907474E+02  0.00000000000E+00 0.  1.
         11    1    4    4    0    0 -0.13701690585E+02  0.11968226875E+02  0.20839023098E+02  0.27662965557E+02  0.51100000000E-03 0. -1.
        -11    1    4    4    0    0 -0.35641358993E+01  0.44931704329E+01 -0.42723094315E-01  0.57352829723E+01  0.51100000000E-03 0.  1.
         12    1    4    4    0    0  0.20013631144E+01 -0.16556180318E+02  0.12711406593E+02  0.20968843998E+02  0.00000000000E+00 0. -1.
</event>
<event>
 8    1  0.1253703E-006  0.9118800E+02  0.7816164E-02  0.1184000E+00
        -11   -1    0    0    0    0  0.00000000000E+00  0.00000000000E+00  0.45593999997E+02  0.45594000000E+02  0.51100000000E-03 0.  1.
         11   -1    0    0    0    0 -0.00000000000E+00 -0.00000000000E+00 -0.45593999997E+02  0.45594000000E+02  0.51100000000E-03 0. -1.
         23    2    1    2    0    0  0.35527136788E-14  0.00000000000E+00 -0.35527136788E-14  0.91188000000E+02  0.91188000000E+02 0.  0.
    9900012    2    3    3    0    0 -0.22983618109E+02  0.13902835838E+02  0.25184216377E+02  0.54367077955E+02  0.39999985814E+02 0.  0.
         12    1    3    3    0    0  0.22983618109E+02 -0.13902835838E+02 -0.25184216377E+02  0.36820922045E+02  0.00000000000E+00 0. -1.
         11    1    4    4    0    0 -0.19167241649E+02 -0.31284749699E+00  0.54397689761E+01  0.19926668381E+02  0.51100000000E-03 0. -1.
        -11    1    4    4    0    0 -0.37525684190E+01 -0.66328264759E+00 -0.45602962709E+01  0.59428962593E+01  0.51100000000E-03 0.  1.
        -12    1    4    4    0    0 -0.63808040916E-01  0.14878965982E+02  0.24304743672E+02  0.28497513314E+02  0.00000000000E+00 0.  1.
</event>
<event>
 8    1  0.1253703E-006  0.9118800E+02  0.7816164E-02  0.1184000E+00
        -11   -1    0    0    0    0  0.00000000000E+00  0.00000000000E+00  0.45593999997E+02  0.45594000000E+02  0.51100000000E-03 0. -1.
         11   -1    0    0    0    0 -0.00000000000E+00 -0.00000000000E+00 -0.45593999997E+02  0.45594000000E+02  0.51100000000E-03 0.  1.
         23    2    1    2    0    0  0.00000000000E+00  0.35527136788E-14  0.44408920985E-15  0.91188000000E+02  0.91188000000E+02 0.  0.
    9900012    2    3    3    0    0  0.20242827355E+02 -0.30567300286E+02  0.34129748479E+01  0.54367077912E+02  0.39999985715E+02 0.  0.
         12    1    3    3    0    0 -0.20242827355E+02  0.30567300286E+02 -0.34129748479E+01  0.36820922088E+02  0.00000000000E+00 0. -1.
         11    1    4    4    0    0  0.26479640560E+01 -0.64117125453E+00  0.16222522769E+02  0.16449713052E+02  0.51100000000E-03 0. -1.
        -11    1    4    4    0    0  0.94301290852E+01 -0.17595362330E+02 -0.11577367189E+02  0.23077251599E+02  0.51100000000E-03 0.  1.
         12    1    4    4    0    0  0.81647342142E+01 -0.12330766702E+02 -0.12321807327E+01  0.14840113261E+02  0.00000000000E+00 0. -1.
</event>
<event>
 8    1  0.1253703E-006  0.9118800E+02  0.7816164E-02  0.1184000E+00
        -11   -1    0    0    0    0  0.00000000000E+00  0.00000000000E+00  0.45593999997E+02  0.45594000000E+02  0.51100000000E-03 0.  1.
         11   -1    0    0    0    0 -0.00000000000E+00 -0.00000000000E+00 -0.45593999997E+02  0.45594000000E+02  0.51100000000E-03 0. -1.
         23    2    1    2    0    0  0.00000000000E+00  0.35527136788E-14  0.00000000000E+00  0.91188000000E+02  0.91188000000E+02 0.  0.
    9900012    2    3    3    0    0  0.10642042624E+02 -0.18312386067E+02 -0.30119480005E+02  0.54367087050E+02  0.40000006548E+02 0.  0.
        -12    1    3    3    0    0 -0.10642042624E+02  0.18312386067E+02  0.30119480005E+02  0.36820912950E+02  0.00000000000E+00 0.  1.
         11    1    4    4    0    0  0.89319037333E+01 -0.23300915404E+02 -0.14617674881E+02  0.28920373133E+02  0.51100000000E-03 0. -1.
        -11    1    4    4    0    0 -0.75378566250E+01  0.48378310975E+01 -0.21619019267E+01  0.92139954650E+01  0.51100000000E-03 0.  1.
         12    1    4    4    0    0  0.92479955158E+01  0.15069824016E+00 -0.13339903198E+02  0.16232718452E+02  0.00000000000E+00 0. -1.
</event>
<event>
 8    1  0.1253703E-006  0.9118800E+02  0.7816164E-02  0.1184000E+00
        -11   -1    0    0    0    0  0.00000000000E+00  0.00000000000E+00  0.45593999997E+02  0.45594000000E+02  0.51100000000E-03 0.  1.
         11   -1    0    0    0    0 -0.00000000000E+00 -0.00000000000E+00 -0.45593999997E+02  0.45594000000E+02  0.51100000000E-03 0. -1.
         23    2    1    2    0    0  0.35527136788E-14  0.35527136788E-14  0.00000000000E+00  0.91188000000E+02  0.91188000000E+02 0.  0.
    9900012    2    3    3    0    0 -0.24404824113E+02 -0.86924598867E+01 -0.26165362555E+02  0.54367075290E+02  0.39999979738E+02 0.  0.
        -12    1    3    3    0    0  0.24404824113E+02  0.86924598867E+01  0.26165362555E+02  0.36820924710E+02  0.00000000000E+00 0.  1.
         11    1    4    4    0    0 -0.14701905987E+02 -0.12935044412E+02 -0.14007319325E+02  0.24076262346E+02  0.51100000000E-03 0. -1.
        -11    1    4    4    0    0 -0.36214692688E+01  0.12913756697E+02  0.94191848456E+00  0.13444975359E+02  0.51100000000E-03 0.  1.
        -12    1    4    4    0    0 -0.60814488571E+01 -0.86711721719E+01 -0.13099961715E+02  0.16845837586E+02  0.00000000000E+00 0.  1.
</event>
<event>
 8    1  0.1253703E-006  0.9118800E+02  0.7816164E-02  0.1184000E+00
        -11   -1    0    0    0    0  0.00000000000E+00  0.00000000000E+00  0.45593999997E+02  0.45594000000E+02  0.51100000000E-03 0. -1.
         11   -1    0    0    0    0 -0.00000000000E+00 -0.00000000000E+00 -0.45593999997E+02  0.45594000000E+02  0.51100000000E-03 0.  1.
         23    2    1    2    0    0  0.88817841970E-15 -0.17763568394E-14  0.00000000000E+00  0.91188000000E+02  0.91188000000E+02 0.  0.
    9900012    2    3    3    0    0  0.52404301743E+01  0.95554263650E+01  0.35171172849E+02  0.54367086364E+02  0.40000004984E+02 0.  0.
        -12    1    3    3    0    0 -0.52404301743E+01 -0.95554263650E+01 -0.35171172849E+02  0.36820913636E+02  0.00000000000E+00 0.  1.
         11    1    4    4    0    0 -0.89050447287E+00 -0.13711929201E+01  0.19617204733E+02  0.19685220092E+02  0.51100000000E-03 0. -1.
        -11    1    4    4    0    0  0.12040303670E+02  0.18069560930E+02  0.11381917868E+02  0.24515831605E+02  0.51100000000E-03 0.  1.
         12    1    4    4    0    0 -0.59093690232E+01 -0.71429416446E+01  0.41720502479E+01  0.10166034667E+02  0.00000000000E+00 0. -1.
</event>
<event>
 8    1  0.1253703E-006  0.9118800E+02  0.7816164E-02  0.1184000E+00
        -11   -1    0    0    0    0  0.00000000000E+00  0.00000000000E+00  0.45593999997E+02  0.45594000000E+02  0.51100000000E-03 0. -1.
         11   -1    0    0    0    0 -0.00000000000E+00 -0.00000000000E+00 -0.45593999997E+02  0.45594000000E+02  0.51100000000E-03 0.  1.
         23    2    1    2    0    0 -0.26645352591E-14  0.00000000000E+00 -0.35527136788E-14  0.91188000000E+02  0.91188000000E+02 0.  0.
    9900012    2    3    3    0    0 -0.38341892154E+01  0.32671934881E+02 -0.16541809861E+02  0.54366975988E+02  0.39999753359E+02 0.  0.
         12    1    3    3    0    0  0.38341892154E+01 -0.32671934881E+02  0.16541809861E+02  0.36821024012E+02  0.00000000000E+00 0. -1.
         11    1    4    4    0    0 -0.26472860757E+01  0.48027286836E+01 -0.11104705503E+02  0.12385023656E+02  0.51100000000E-03 0. -1.
        -11    1    4    4    0    0  0.53557365907E+01  0.12114707381E+01 -0.12488028059E+02  0.13641936110E+02  0.51100000000E-03 0.  1.
        -12    1    4    4    0    0 -0.65426397304E+01  0.26657735459E+02  0.70509237007E+01  0.28340016222E+02  0.00000000000E+00 0.  1.
</event>
<event>
 8    1  0.1253703E-006  0.9118800E+02  0.7816164E-02  0.1184000E+00
        -11   -1    0    0    0    0  0.00000000000E+00  0.00000000000E+00  0.45593999997E+02  0.45594000000E+02  0.51100000000E-03 0.  1.
         11   -1    0    0    0    0 -0.00000000000E+00 -0.00000000000E+00 -0.45593999997E+02  0.45594000000E+02  0.51100000000E-03 0. -1.
         23    2    1    2    0    0 -0.35527136788E-14  0.00000000000E+00 -0.35527136788E-14  0.91188000000E+02  0.91188000000E+02 0.  0.
    9900012    2    3    3    0    0  0.18025040751E+02  0.26324621229E+02  0.18381806984E+02  0.54367100976E+02  0.40000038295E+02 0.  0.
         12    1    3    3    0    0 -0.18025040751E+02 -0.26324621229E+02 -0.18381806984E+02  0.36820899024E+02  0.00000000000E+00 0. -1.
         11    1    4    4    0    0  0.14757080954E+01 -0.28993491883E+01 -0.71257081937E+01  0.78332405568E+01  0.51100000000E-03 0. -1.
        -11    1    4    4    0    0  0.16816876559E+01  0.13864640538E+02  0.20114142292E+02  0.24487446804E+02  0.51100000000E-03 0.  1.
        -12    1    4    4    0    0  0.14867645000E+02  0.15359329880E+02  0.53933728865E+01  0.22046413615E+02  0.00000000000E+00 0.  1.
</event>
<event>
 8    1  0.1253703E-006  0.9118800E+02  0.7816164E-02  0.1184000E+00
        -11   -1    0    0    0    0  0.00000000000E+00  0.00000000000E+00  0.45593999997E+02  0.45594000000E+02  0.51100000000E-03 0. -1.
         11   -1    0    0    0    0 -0.00000000000E+00 -0.00000000000E+00 -0.45593999997E+02  0.45594000000E+02  0.51100000000E-03 0.  1.
         23    2    1    2    0    0 -0.17763568394E-14  0.00000000000E+00 -0.44408920985E-15  0.91188000000E+02  0.91188000000E+02 0.  0.
    9900012    2    3    3    0    0  0.10008215502E+02  0.35341061392E+02  0.25735798193E+01  0.54367104968E+02  0.40000047396E+02 0.  0.
         12    1    3    3    0    0 -0.10008215502E+02 -0.35341061392E+02 -0.25735798193E+01  0.36820895032E+02  0.00000000000E+00 0. -1.
         11    1    4    4    0    0 -0.30840248059E+01  0.40158922656E+01  0.14499356882E+01  0.52669643490E+01  0.51100000000E-03 0. -1.
        -11    1    4    4    0    0 -0.44380835611E+01  0.30866717764E+02  0.35944348480E+01  0.31390616645E+02  0.51100000000E-03 0.  1.
         12    1    4    4    0    0  0.17530323869E+02  0.45845136229E+00 -0.24707907168E+01  0.17709523974E+02  0.00000000000E+00 0. -1.
</event>
<event>
 8    1  0.1253703E-006  0.9118800E+02  0.7816164E-02  0.1184000E+00
        -11   -1    0    0    0    0  0.00000000000E+00  0.00000000000E+00  0.45593999997E+02  0.45594000000E+02  0.51100000000E-03 0.  1.
         11   -1    0    0    0    0 -0.00000000000E+00 -0.00000000000E+00 -0.45593999997E+02  0.45594000000E+02  0.51100000000E-03 0. -1.
         23    2    1    2    0    0  0.00000000000E+00  0.17763568394E-14 -0.35527136788E-14  0.91188000000E+02  0.91188000000E+02 0.  0.
    9900012    2    3    3    0    0 -0.18261733007E+02  0.87155580470E+01 -0.30762432523E+02  0.54367094265E+02  0.40000022995E+02 0.  0.
        -12    1    3    3    0    0  0.18261733007E+02 -0.87155580470E+01  0.30762432523E+02  0.36820905735E+02  0.00000000000E+00 0.  1.
         11    1    4    4    0    0 -0.11602655922E+02  0.39967451033E+01 -0.21047702920E+02  0.24363936347E+02  0.51100000000E-03 0. -1.
        -11    1    4    4    0    0  0.10199655965E+02 -0.85116494524E+00 -0.11786626390E+01  0.10302752518E+02  0.51100000000E-03 0.  1.
        -12    1    4    4    0    0 -0.16858733049E+02  0.55699778889E+01 -0.85360669636E+01  0.19700405400E+02  0.00000000000E+00 0.  1.
</event>
<event>
 8    1  0.1253703E-006  0.9118800E+02  0.7816164E-02  0.1184000E+00
        -11   -1    0    0    0    0  0.00000000000E+00  0.00000000000E+00  0.45593999997E+02  0.45594000000E+02  0.51100000000E-03 0. -1.
         11   -1    0    0    0    0 -0.00000000000E+00 -0.00000000000E+00 -0.45593999997E+02  0.45594000000E+02  0.51100000000E-03 0.  1.
         23    2    1    2    0    0 -0.88817841970E-15  0.00000000000E+00 -0.71054273576E-14  0.91188000000E+02  0.91188000000E+02 0.  0.
    9900012    2    3    3    0    0 -0.54041419947E+01 -0.82405528055E+01 -0.35477726513E+02  0.54367074702E+02  0.39999978399E+02 0.  0.
         12    1    3    3    0    0  0.54041419947E+01  0.82405528055E+01  0.35477726513E+02  0.36820925298E+02  0.00000000000E+00 0. -1.
         11    1    4    4    0    0  0.65461174496E+01  0.77616625639E+01 -0.10347833259E+02  0.14497334681E+02  0.51100000000E-03 0. -1.
        -11    1    4    4    0    0  0.70646039046E+01 -0.41325672702E+01 -0.41882578078E+01  0.91939243143E+01  0.51100000000E-03 0.  1.
        -12    1    4    4    0    0 -0.19014863349E+02 -0.11869648099E+02 -0.20941635446E+02  0.30675815708E+02  0.00000000000E+00 0.  1.
</event>
<event>
 8    1  0.1253703E-006  0.9118800E+02  0.7816164E-02  0.1184000E+00
        -11   -1    0    0    0    0  0.00000000000E+00  0.00000000000E+00  0.45593999997E+02  0.45594000000E+02  0.51100000000E-03 0. -1.
         11   -1    0    0    0    0 -0.00000000000E+00 -0.00000000000E+00 -0.45593999997E+02  0.45594000000E+02  0.51100000000E-03 0.  1.
         23    2    1    2    0    0 -0.17763568394E-14  0.00000000000E+00  0.88817841970E-15  0.91188000000E+02  0.91188000000E+02 0.  0.
    9900012    2    3    3    0    0  0.13956452460E+02 -0.33911167890E+02  0.33212978848E+01  0.54367069911E+02  0.39999967477E+02 0.  0.
        -12    1    3    3    0    0 -0.13956452460E+02  0.33911167890E+02 -0.33212978848E+01  0.36820930089E+02  0.00000000000E+00 0.  1.
         11    1    4    4    0    0 -0.11720662708E+01 -0.28053584552E+01  0.31257546487E+01  0.43605180644E+01  0.51100000000E-03 0. -1.
        -11    1    4    4    0    0  0.15687698302E+02 -0.13784951726E+02 -0.15983411008E+02  0.26298254691E+02  0.51100000000E-03 0.  1.
        -12    1    4    4    0    0 -0.55917957058E+00 -0.17320857709E+02  0.16178954245E+02  0.23708297156E+02  0.00000000000E+00 0.  1.
</event>
<event>
 8    1  0.1253703E-006  0.9118800E+02  0.7816164E-02  0.1184000E+00
        -11   -1    0    0    0    0  0.00000000000E+00  0.00000000000E+00  0.45593999997E+02  0.45594000000E+02  0.51100000000E-03 0.  1.
         11   -1    0    0    0    0 -0.00000000000E+00 -0.00000000000E+00 -0.45593999997E+02  0.45594000000E+02  0.51100000000E-03 0. -1.
         23    2    1    2    0    0  0.17763568394E-14  0.00000000000E+00  0.35527136788E-14  0.91188000000E+02  0.91188000000E+02 0.  0.
    9900012    2    3    3    0    0 -0.57687154879E+01 -0.31028137195E+02  0.18967255618E+02  0.54367079834E+02  0.39999990099E+02 0.  0.
         12    1    3    3    0    0  0.57687154879E+01  0.31028137195E+02 -0.18967255618E+02  0.36820920166E+02  0.00000000000E+00 0. -1.
         11    1    4    4    0    0  0.13588636342E+02 -0.12883071023E+02  0.23688311942E+01  0.18874213046E+02  0.51100000000E-03 0. -1.
        -11    1    4    4    0    0 -0.13425505730E+02 -0.26777207254E+01  0.12238642713E+02  0.18362972747E+02  0.51100000000E-03 0.  1.
         12    1    4    4    0    0 -0.59318461001E+01 -0.15467345447E+02  0.43597817101E+01  0.17129894042E+02  0.00000000000E+00 0. -1.
</event>
<event>
 8    1  0.1253703E-006  0.9118800E+02  0.7816164E-02  0.1184000E+00
        -11   -1    0    0    0    0  0.00000000000E+00  0.00000000000E+00  0.45593999997E+02  0.45594000000E+02  0.51100000000E-03 0. -1.
         11   -1    0    0    0    0 -0.00000000000E+00 -0.00000000000E+00 -0.45593999997E+02  0.45594000000E+02  0.51100000000E-03 0.  1.
         23    2    1    2    0    0 -0.35527136788E-14  0.88817841970E-15 -0.71054273576E-14  0.91188000000E+02  0.91188000000E+02 0.  0.
    9900012    2    3    3    0    0  0.14247492107E+02 -0.41073132531E+01  0.33703400313E+02  0.54367078690E+02  0.39999987489E+02 0.  0.
        -12    1    3    3    0    0 -0.14247492107E+02  0.41073132531E+01 -0.33703400313E+02  0.36820921310E+02  0.00000000000E+00 0.  1.
         11    1    4    4    0    0  0.14168131979E+02 -0.77532914020E+01  0.30295029851E+02  0.34331302411E+02  0.51100000000E-03 0. -1.
        -11    1    4    4    0    0  0.53415921513E+01 -0.24385213957E+01  0.86351659923E+01  0.10442465479E+02  0.51100000000E-03 0.  1.
        -12    1    4    4    0    0 -0.52622320225E+01  0.60844995447E+01 -0.52267955307E+01  0.95933107990E+01  0.00000000000E+00 0.  1.
</event>
<event>
 8    1  0.1253703E-006  0.9118800E+02  0.7816164E-02  0.1184000E+00
        -11   -1    0    0    0    0  0.00000000000E+00  0.00000000000E+00  0.45593999997E+02  0.45594000000E+02  0.51100000000E-03 0.  1.
         11   -1    0    0    0    0 -0.00000000000E+00 -0.00000000000E+00 -0.45593999997E+02  0.45594000000E+02  0.51100000000E-03 0. -1.
         23    2    1    2    0    0  0.00000000000E+00  0.00000000000E+00 -0.35527136788E-14  0.91188000000E+02  0.91188000000E+02 0.  0.
    9900012    2    3    3    0    0  0.12085697636E+02  0.30411892463E+02  0.16876963923E+02  0.54367092871E+02  0.40000019819E+02 0.  0.
         12    1    3    3    0    0 -0.12085697636E+02 -0.30411892463E+02 -0.16876963923E+02  0.36820907129E+02  0.00000000000E+00 0. -1.
         11    1    4    4    0    0  0.27284976782E+01  0.17943645663E+02  0.17540098990E+02  0.25240328685E+02  0.51100000000E-03 0. -1.
        -11    1    4    4    0    0  0.42598305377E-01  0.59190586922E+00  0.10397581458E+02  0.10414502754E+02  0.51100000000E-03 0.  1.
         12    1    4    4    0    0  0.93146016527E+01  0.11876340931E+02 -0.11060716526E+02  0.18712261432E+02  0.00000000000E+00 0. -1.
</event>
<event>
 8    1  0.1253703E-006  0.9118800E+02  0.7816164E-02  0.1184000E+00
        -11   -1    0    0    0    0  0.00000000000E+00  0.00000000000E+00  0.45593999997E+02  0.45594000000E+02  0.51100000000E-03 0. -1.
         11   -1    0    0    0    0 -0.00000000000E+00 -0.00000000000E+00 -0.45593999997E+02  0.45594000000E+02  0.51100000000E-03 0.  1.
         23    2    1    2    0    0  0.00000000000E+00  0.71054273576E-14  0.17763568394E-14  0.91188000000E+02  0.91188000000E+02 0.  0.
    9900012    2    3    3    0    0  0.89148041855E+01  0.32873172898E+02  0.13987861356E+02  0.54367088885E+02  0.40000010731E+02 0.  0.
         12    1    3    3    0    0 -0.89148041855E+01 -0.32873172898E+02 -0.13987861356E+02  0.36820911115E+02  0.00000000000E+00 0. -1.
         11    1    4    4    0    0  0.52893403937E+01 -0.51226653179E+01  0.68960835633E+01  0.10088349247E+02  0.51100000000E-03 0. -1.
        -11    1    4    4    0    0  0.12612179663E+01  0.32630635501E+02 -0.28054128456E+01  0.32775286199E+02  0.51100000000E-03 0.  1.
         12    1    4    4    0    0  0.23642458256E+01  0.53652027150E+01  0.98971906380E+01  0.11503453439E+02  0.00000000000E+00 0. -1.
</event>
<event>
 8    1  0.1253703E-006  0.9118800E+02  0.7816164E-02  0.1184000E+00
        -11   -1    0    0    0    0  0.00000000000E+00  0.00000000000E+00  0.45593999997E+02  0.45594000000E+02  0.51100000000E-03 0.  1.
         11   -1    0    0    0    0 -0.00000000000E+00 -0.00000000000E+00 -0.45593999997E+02  0.45594000000E+02  0.51100000000E-03 0. -1.
         23    2    1    2    0    0  0.00000000000E+00  0.17763568394E-14  0.00000000000E+00  0.91188000000E+02  0.91188000000E+02 0.  0.
    9900012    2    3    3    0    0  0.15512805751E+02  0.87968051139E+01 -0.32214129005E+02  0.54367068045E+02  0.39999963223E+02 0.  0.
        -12    1    3    3    0    0 -0.15512805751E+02 -0.87968051139E+01  0.32214129005E+02  0.36820931955E+02  0.00000000000E+00 0.  1.
         11    1    4    4    0    0  0.62822987721E+01 -0.52881764909E+01 -0.16572665673E+02  0.18495549092E+02  0.51100000000E-03 0. -1.
        -11    1    4    4    0    0  0.31424137286E+01  0.20877118622E+02 -0.47043162313E+01  0.21630058656E+02  0.51100000000E-03 0.  1.
        -12    1    4    4    0    0  0.60880932499E+01 -0.67921370176E+01 -0.10937147101E+02  0.14241460297E+02  0.00000000000E+00 0.  1.
</event>
<event>
 8    1  0.1253703E-006  0.9118800E+02  0.7816164E-02  0.1184000E+00
        -11   -1    0    0    0    0  0.00000000000E+00  0.00000000000E+00  0.45593999997E+02  0.45594000000E+02  0.51100000000E-03 0. -1.
         11   -1    0    0    0    0 -0.00000000000E+00 -0.00000000000E+00 -0.45593999997E+02  0.45594000000E+02  0.51100000000E-03 0.  1.
         23    2    1    2    0    0  0.00000000000E+00  0.00000000000E+00  0.35527136788E-14  0.91188000000E+02  0.91188000000E+02 0.  0.
    9900012    2    3    3    0    0 -0.19269049490E+02  0.17355957081E+02 -0.26139135481E+02  0.54367083144E+02  0.39999997643E+02 0.  0.
         12    1    3    3    0    0  0.19269049490E+02 -0.17355957081E+02  0.26139135481E+02  0.36820916856E+02  0.00000000000E+00 0. -1.
         11    1    4    4    0    0 -0.82949089589E+00  0.57332297559E+01 -0.67127948609E+01  0.88667690669E+01  0.51100000000E-03 0. -1.
        -11    1    4    4    0    0 -0.83933797802E+01 -0.47410902889E+00 -0.26832771215E+02  0.28118876486E+02  0.51100000000E-03 0.  1.
         12    1    4    4    0    0 -0.10046178814E+02  0.12096836354E+02  0.74064305954E+01  0.17381437591E+02  0.00000000000E+00 0. -1.
</event>
<event>
 8    1  0.1253703E-006  0.9118800E+02  0.7816164E-02  0.1184000E+00
        -11   -1    0    0    0    0  0.00000000000E+00  0.00000000000E+00  0.45593999997E+02  0.45594000000E+02  0.51100000000E-03 0.  1.
         11   -1    0    0    0    0 -0.00000000000E+00 -0.00000000000E+00 -0.45593999997E+02  0.45594000000E+02  0.51100000000E-03 0. -1.
         23    2    1    2    0    0  0.35527136788E-14 -0.53290705182E-14  0.00000000000E+00  0.91188000000E+02  0.91188000000E+02 0.  0.
    9900012    2    3    3    0    0  0.14230580970E+02 -0.97415236996E+01  0.32532672362E+02  0.54367061802E+02  0.39999948991E+02 0.  0.
         12    1    3    3    0    0 -0.14230580970E+02  0.97415236996E+01 -0.32532672362E+02  0.36820938198E+02  0.00000000000E+00 0. -1.
         11    1    4    4    0    0  0.11308022706E+02  0.48000394733E+01  0.82764025286E+01  0.14812514828E+02  0.51100000000E-03 0. -1.
        -11    1    4    4    0    0 -0.22608289987E+01  0.78602065030E+01  0.75689242900E+01  0.11143734078E+02  0.51100000000E-03 0.  1.
        -12    1    4    4    0    0  0.51833872629E+01 -0.22401769676E+02  0.16687345543E+02  0.28410812896E+02  0.00000000000E+00 0.  1.
</event>
<event>
 8    1  0.1253703E-006  0.9118800E+02  0.7816164E-02  0.1184000E+00
        -11   -1    0    0    0    0  0.00000000000E+00  0.00000000000E+00  0.45593999997E+02  0.45594000000E+02  0.51100000000E-03 0.  1.
         11   -1    0    0    0    0 -0.00000000000E+00 -0.00000000000E+00 -0.45593999997E+02  0.45594000000E+02  0.51100000000E-03 0. -1.
         23    2    1    2    0    0  0.17763568394E-14  0.00000000000E+00  0.00000000000E+00  0.91188000000E+02  0.91188000000E+02 0.  0.
    9900012    2    3    3    0    0  0.92060658321E+01  0.22514776437E+02  0.27642594877E+02  0.54367083965E+02  0.39999999516E+02 0.  0.
         12    1    3    3    0    0 -0.92060658321E+01 -0.22514776437E+02 -0.27642594877E+02  0.36820916035E+02  0.00000000000E+00 0. -1.
         11    1    4    4    0    0  0.21211219361E+02  0.43244010594E+01  0.62153622306E+01  0.22522144641E+02  0.51100000000E-03 0. -1.
        -11    1    4    4    0    0  0.66662640810E+00  0.57249043135E+01  0.47056482443E+01  0.74405675742E+01  0.51100000000E-03 0.  1.
        -12    1    4    4    0    0 -0.12671779937E+02  0.12465471064E+02  0.16721584402E+02  0.24404371750E+02  0.00000000000E+00 0.  1.
</event>
<event>
 8    1  0.1253703E-006  0.9118800E+02  0.7816164E-02  0.1184000E+00
        -11   -1    0    0    0    0  0.00000000000E+00  0.00000000000E+00  0.45593999997E+02  0.45594000000E+02  0.51100000000E-03 0.  1.
         11   -1    0    0    0    0 -0.00000000000E+00 -0.00000000000E+00 -0.45593999997E+02  0.45594000000E+02  0.51100000000E-03 0. -1.
         23    2    1    2    0    0  0.00000000000E+00 -0.88817841970E-15 -0.88817841970E-15  0.91188000000E+02  0.91188000000E+02 0.  0.
    9900012    2    3    3    0    0 -0.36521923325E+02 -0.63859744363E+00  0.46391842035E+01  0.54367072253E+02  0.39999972816E+02 0.  0.
        -12    1    3    3    0    0  0.36521923325E+02  0.63859744363E+00 -0.46391842035E+01  0.36820927747E+02  0.00000000000E+00 0.  1.
         11    1    4    4    0    0 -0.59588149461E+01  0.72527754905E+01 -0.10532056000E+02  0.14107956327E+02  0.51100000000E-03 0. -1.
        -11    1    4    4    0    0 -0.37941126069E+01 -0.85308827760E+01  0.85867763247E+01  0.12684793231E+02  0.51100000000E-03 0.  1.
        -12    1    4    4    0    0 -0.26768995772E+02  0.63950984194E+00  0.65844638792E+01  0.27574322694E+02  0.00000000000E+00 0.  1.
</event>
<event>
 8    1  0.1253703E-006  0.9118800E+02  0.7816164E-02  0.1184000E+00
        -11   -1    0    0    0    0  0.00000000000E+00  0.00000000000E+00  0.45593999997E+02  0.45594000000E+02  0.51100000000E-03 0.  1.
         11   -1    0    0    0    0 -0.00000000000E+00 -0.00000000000E+00 -0.45593999997E+02  0.45594000000E+02  0.51100000000E-03 0. -1.
         23    2    1    2    0    0  0.35527136788E-14  0.14016565686E-14 -0.35527136788E-14  0.91188000000E+02  0.91188000000E+02 0.  0.
    9900012    2    3    3    0    0 -0.22555313683E+02  0.93741582646E-01  0.29103768141E+02  0.54367078192E+02  0.39999986354E+02 0.  0.
         12    1    3    3    0    0  0.22555313683E+02 -0.93741582646E-01 -0.29103768141E+02  0.36820921808E+02  0.00000000000E+00 0. -1.
         11    1    4    4    0    0 -0.24100800687E+02  0.13096921867E+02  0.16094938856E+02  0.31802908879E+02  0.51100000000E-03 0.  1.
        -11    1    4    4    0    0  0.94645605379E+00 -0.81215236102E+01  0.15137803654E+02  0.17204883741E+02  0.51100000000E-03 0. -1.
         12    1    4    4    0    0  0.59903095106E+00 -0.48816566743E+01 -0.21289743692E+01  0.53592855709E+01  0.00000000000E+00 0. -1.
</event>
<event>
 8    1  0.1253703E-006  0.9118800E+02  0.7816164E-02  0.1184000E+00
        -11   -1    0    0    0    0  0.00000000000E+00  0.00000000000E+00  0.45593999997E+02  0.45594000000E+02  0.51100000000E-03 0. -1.
         11   -1    0    0    0    0 -0.00000000000E+00 -0.00000000000E+00 -0.45593999997E+02  0.45594000000E+02  0.51100000000E-03 0.  1.
         23    2    1    2    0    0  0.00000000000E+00 -0.71054273576E-14  0.35527136788E-14  0.91188000000E+02  0.91188000000E+02 0.  0.
    9900012    2    3    3    0    0  0.58728964105E+01  0.35354208627E+02 -0.84480092593E+01  0.54367084200E+02  0.40000000051E+02 0.  0.
        -12    1    3    3    0    0 -0.58728964105E+01 -0.35354208627E+02  0.84480092593E+01  0.36820915800E+02  0.00000000000E+00 0.  1.
         11    1    4    4    0    0  0.25870473801E+00  0.13011762926E+02 -0.10180378904E+02  0.16523105564E+02  0.51100000000E-03 0. -1.
        -11    1    4    4    0    0  0.10365402317E+02  0.59823871957E+00  0.96949147308E+01  0.14205309805E+02  0.51100000000E-03 0.  1.
        -12    1    4    4    0    0 -0.47512106446E+01  0.21744206982E+02 -0.79625450856E+01  0.23638668831E+02  0.00000000000E+00 0.  1.
</event>
<event>
 8    1  0.1253703E-006  0.9118800E+02  0.7816164E-02  0.1184000E+00
        -11   -1    0    0    0    0  0.00000000000E+00  0.00000000000E+00  0.45593999997E+02  0.45594000000E+02  0.51100000000E-03 0. -1.
         11   -1    0    0    0    0 -0.00000000000E+00 -0.00000000000E+00 -0.45593999997E+02  0.45594000000E+02  0.51100000000E-03 0.  1.
         23    2    1    2    0    0  0.17763568394E-14  0.00000000000E+00  0.00000000000E+00  0.91188000000E+02  0.91188000000E+02 0.  0.
    9900012    2    3    3    0    0 -0.62639878756E+01 -0.91433872147E+01 -0.35113255143E+02  0.54367085282E+02  0.40000002519E+02 0.  0.
         12    1    3    3    0    0  0.62639878756E+01  0.91433872147E+01  0.35113255143E+02  0.36820914718E+02  0.00000000000E+00 0. -1.
         11    1    4    4    0    0  0.93140876990E+01 -0.20424264863E+01 -0.96851846498E+01  0.13591414113E+02  0.51100000000E-03 0. -1.
        -11    1    4    4    0    0 -0.11463227633E+02  0.24521755763E+01  0.15849250361E+01  0.11829232454E+02  0.51100000000E-03 0.  1.
        -12    1    4    4    0    0 -0.41148479416E+01 -0.95531363047E+01 -0.27012995530E+02  0.28946438716E+02  0.00000000000E+00 0.  1.
</event>
<event>
 8    1  0.1253703E-006  0.9118800E+02  0.7816164E-02  0.1184000E+00
        -11   -1    0    0    0    0  0.00000000000E+00  0.00000000000E+00  0.45593999997E+02  0.45594000000E+02  0.51100000000E-03 0.  1.
         11   -1    0    0    0    0 -0.00000000000E+00 -0.00000000000E+00 -0.45593999997E+02  0.45594000000E+02  0.51100000000E-03 0. -1.
         23    2    1    2    0    0  0.00000000000E+00 -0.35527136788E-14  0.00000000000E+00  0.91188000000E+02  0.91188000000E+02 0.  0.
    9900012    2    3    3    0    0 -0.21390031145E+02  0.28592366608E+02  0.89846018721E+01  0.54367082963E+02  0.39999997230E+02 0.  0.
        -12    1    3    3    0    0  0.21390031145E+02 -0.28592366608E+02 -0.89846018721E+01  0.36820917037E+02  0.00000000000E+00 0.  1.
         11    1    4    4    0    0 -0.30703477386E+02  0.23742024955E+02  0.13557342717E+02  0.41111905993E+02  0.51100000000E-03 0. -1.
        -11    1    4    4    0    0  0.66025136996E+01 -0.27672954942E+00 -0.29194828220E+01  0.72244824455E+01  0.51100000000E-03 0.  1.
         12    1    4    4    0    0  0.27109325406E+01  0.51270712026E+01 -0.16532580230E+01  0.60306945245E+01  0.00000000000E+00 0. -1.
</event>
<event>
 8    1  0.1253703E-006  0.9118800E+02  0.7816164E-02  0.1184000E+00
        -11   -1    0    0    0    0  0.00000000000E+00  0.00000000000E+00  0.45593999997E+02  0.45594000000E+02  0.51100000000E-03 0.  1.
         11   -1    0    0    0    0 -0.00000000000E+00 -0.00000000000E+00 -0.45593999997E+02  0.45594000000E+02  0.51100000000E-03 0. -1.
         23    2    1    2    0    0  0.00000000000E+00  0.00000000000E+00 -0.35527136788E-14  0.91188000000E+02  0.91188000000E+02 0.  0.
    9900012    2    3    3    0    0  0.21113910953E+02 -0.90245974125E+01  0.28784352142E+02  0.54367088517E+02  0.40000009893E+02 0.  0.
         12    1    3    3    0    0 -0.21113910953E+02  0.90245974125E+01 -0.28784352142E+02  0.36820911483E+02  0.00000000000E+00 0. -1.
         11    1    4    4    0    0 -0.98436377838E+01 -0.90269069599E+01  0.87376744451E+01  0.15960238377E+02  0.51100000000E-03 0. -1.
        -11    1    4    4    0    0  0.24915309607E+02 -0.31671370033E+01  0.19024406624E+02  0.31507641252E+02  0.51100000000E-03 0.  1.
         12    1    4    4    0    0  0.60422391295E+01  0.31694465508E+01  0.10222710732E+01  0.68992088882E+01  0.00000000000E+00 0. -1.
</event>
<event>
 8    1  0.1253703E-006  0.9118800E+02  0.7816164E-02  0.1184000E+00
        -11   -1    0    0    0    0  0.00000000000E+00  0.00000000000E+00  0.45593999997E+02  0.45594000000E+02  0.51100000000E-03 0. -1.
         11   -1    0    0    0    0 -0.00000000000E+00 -0.00000000000E+00 -0.45593999997E+02  0.45594000000E+02  0.51100000000E-03 0.  1.
         23    2    1    2    0    0  0.00000000000E+00 -0.35527136788E-14  0.00000000000E+00  0.91188000000E+02  0.91188000000E+02 0.  0.
    9900012    2    3    3    0    0  0.21333144834E+02  0.20546826779E+02 -0.21874722892E+02  0.54367100217E+02  0.40000036565E+02 0.  0.
         12    1    3    3    0    0 -0.21333144834E+02 -0.20546826779E+02  0.21874722892E+02  0.36820899783E+02  0.00000000000E+00 0. -1.
         11    1    4    4    0    0  0.10105715633E+02  0.41850194492E+01 -0.11556506003E+02  0.15912030276E+02  0.51100000000E-03 0.  1.
        -11    1    4    4    0    0 -0.22406986975E+01 -0.76798491534E+01 -0.71262809850E+01  0.10713761926E+02  0.51100000000E-03 0. -1.
        -12    1    4    4    0    0  0.13468127899E+02  0.24041656483E+02 -0.31919359035E+01  0.27741308015E+02  0.00000000000E+00 0.  1.
</event>
<event>
 8    1  0.1253703E-006  0.9118800E+02  0.7816164E-02  0.1184000E+00
        -11   -1    0    0    0    0  0.00000000000E+00  0.00000000000E+00  0.45593999997E+02  0.45594000000E+02  0.51100000000E-03 0.  1.
         11   -1    0    0    0    0 -0.00000000000E+00 -0.00000000000E+00 -0.45593999997E+02  0.45594000000E+02  0.51100000000E-03 0. -1.
         23    2    1    2    0    0  0.88817841970E-15  0.17763568394E-14  0.00000000000E+00  0.91188000000E+02  0.91188000000E+02 0.  0.
    9900012    2    3    3    0    0  0.58076986660E+01  0.75681741627E+01  0.35563686962E+02  0.54367048704E+02  0.39999919131E+02 0.  0.
         12    1    3    3    0    0 -0.58076986660E+01 -0.75681741627E+01 -0.35563686962E+02  0.36820951296E+02  0.00000000000E+00 0. -1.
         11    1    4    4    0    0 -0.73748165573E+01 -0.72584010692E+01  0.23734907046E+01  0.10616297081E+02  0.51100000000E-03 0. -1.
        -11    1    4    4    0    0  0.82775800397E+01 -0.45469376729E-01  0.24457727377E+02  0.25820550488E+02  0.51100000000E-03 0.  1.
        -12    1    4    4    0    0  0.49049351836E+01  0.14872044609E+02  0.87324688804E+01  0.17930201135E+02  0.00000000000E+00 0.  1.
</event>
<event>
 8    1  0.1253703E-006  0.9118800E+02  0.7816164E-02  0.1184000E+00
        -11   -1    0    0    0    0  0.00000000000E+00  0.00000000000E+00  0.45593999997E+02  0.45594000000E+02  0.51100000000E-03 0.  1.
         11   -1    0    0    0    0 -0.00000000000E+00 -0.00000000000E+00 -0.45593999997E+02  0.45594000000E+02  0.51100000000E-03 0. -1.
         23    2    1    2    0    0  0.17763568394E-14  0.00000000000E+00  0.00000000000E+00  0.91188000000E+02  0.91188000000E+02 0.  0.
    9900012    2    3    3    0    0 -0.15607263128E+02 -0.19557701394E+02  0.27012822014E+02  0.54367042661E+02  0.39999905355E+02 0.  0.
         12    1    3    3    0    0  0.15607263128E+02  0.19557701394E+02 -0.27012822014E+02  0.36820957339E+02  0.00000000000E+00 0. -1.
         11    1    4    4    0    0  0.27495964607E+01  0.30561805818E+01 -0.36710595603E+00  0.41273826440E+01  0.51100000000E-03 0. -1.
        -11    1    4    4    0    0 -0.26393604404E+02 -0.16210414065E+02  0.24708834392E+02  0.39622296436E+02  0.51100000000E-03 0.  1.
        -12    1    4    4    0    0  0.80367448153E+01 -0.64034679114E+01  0.26710935780E+01  0.10617363581E+02  0.00000000000E+00 0.  1.
</event>
<event>
 8    1  0.1253703E-006  0.9118800E+02  0.7816164E-02  0.1184000E+00
        -11   -1    0    0    0    0  0.00000000000E+00  0.00000000000E+00  0.45593999997E+02  0.45594000000E+02  0.51100000000E-03 0.  1.
         11   -1    0    0    0    0 -0.00000000000E+00 -0.00000000000E+00 -0.45593999997E+02  0.45594000000E+02  0.51100000000E-03 0. -1.
         23    2    1    2    0    0 -0.88817841970E-15  0.17763568394E-14  0.71054273576E-14  0.91188000000E+02  0.91188000000E+02 0.  0.
    9900012    2    3    3    0    0  0.77446914269E+01 -0.14698035354E+02 -0.32859814150E+02  0.54367083736E+02  0.39999998993E+02 0.  0.
        -12    1    3    3    0    0 -0.77446914269E+01  0.14698035354E+02  0.32859814150E+02  0.36820916264E+02  0.00000000000E+00 0.  1.
         11    1    4    4    0    0 -0.71309755393E+01 -0.78325791210E+01 -0.22964183539E+02  0.25289401608E+02  0.51100000000E-03 0. -1.
        -11    1    4    4    0    0  0.88348023569E+01 -0.13789376982E+02 -0.11902620311E+01  0.16420029665E+02  0.51100000000E-03 0.  1.
        -12    1    4    4    0    0  0.60408646094E+01  0.69239207485E+01 -0.87053685796E+01  0.12657652463E+02  0.00000000000E+00 0.  1.
</event>
<event>
 8    1  0.1253703E-006  0.9118800E+02  0.7816164E-02  0.1184000E+00
        -11   -1    0    0    0    0  0.00000000000E+00  0.00000000000E+00  0.45593999997E+02  0.45594000000E+02  0.51100000000E-03 0.  1.
         11   -1    0    0    0    0 -0.00000000000E+00 -0.00000000000E+00 -0.45593999997E+02  0.45594000000E+02  0.51100000000E-03 0. -1.
         23    2    1    2    0    0  0.88817841970E-15  0.00000000000E+00  0.35527136788E-14  0.91188000000E+02  0.91188000000E+02 0.  0.
    9900012    2    3    3    0    0  0.42908811000E+01 -0.19953974424E+02 -0.30646496953E+02  0.54367074816E+02  0.39999978657E+02 0.  0.
         12    1    3    3    0    0 -0.42908811000E+01  0.19953974424E+02  0.30646496953E+02  0.36820925184E+02  0.00000000000E+00 0. -1.
         11    1    4    4    0    0 -0.39175124797E+01 -0.21667582561E+02 -0.34714986906E+02  0.41109139546E+02  0.51100000000E-03 0. -1.
        -11    1    4    4    0    0  0.89603349479E+01 -0.13582448084E+01  0.15047645006E+01  0.91867702595E+01  0.51100000000E-03 0.  1.
         12    1    4    4    0    0 -0.75194136819E+00  0.30718529459E+01  0.25637254524E+01  0.40711650099E+01  0.00000000000E+00 0. -1.
</event>
<event>
 8    1  0.1253703E-006  0.9118800E+02  0.7816164E-02  0.1184000E+00
        -11   -1    0    0    0    0  0.00000000000E+00  0.00000000000E+00  0.45593999997E+02  0.45594000000E+02  0.51100000000E-03 0.  1.
         11   -1    0    0    0    0 -0.00000000000E+00 -0.00000000000E+00 -0.45593999997E+02  0.45594000000E+02  0.51100000000E-03 0. -1.
         23    2    1    2    0    0  0.88817841970E-15  0.00000000000E+00 -0.44408920985E-15  0.91188000000E+02  0.91188000000E+02 0.  0.
    9900012    2    3    3    0    0 -0.15680244223E+01 -0.36658418996E+02 -0.30791356717E+01  0.54367089360E+02  0.40000011814E+02 0.  0.
         12    1    3    3    0    0  0.15680244223E+01  0.36658418996E+02  0.30791356717E+01  0.36820910640E+02  0.00000000000E+00 0. -1.
         11    1    4    4    0    0 -0.36782392272E+01 -0.14513241780E+02 -0.10040488570E+02  0.18027064148E+02  0.51100000000E-03 0. -1.
        -11    1    4    4    0    0 -0.12092838561E+02 -0.60097868892E+01 -0.69370280782E+00  0.13521668046E+02  0.51100000000E-03 0.  1.
        -12    1    4    4    0    0  0.14203053366E+02 -0.16135390326E+02  0.76550557064E+01  0.22818357166E+02  0.00000000000E+00 0.  1.
</event>
<event>
 8    1  0.1253703E-006  0.9118800E+02  0.7816164E-02  0.1184000E+00
        -11   -1    0    0    0    0  0.00000000000E+00  0.00000000000E+00  0.45593999997E+02  0.45594000000E+02  0.51100000000E-03 0. -1.
         11   -1    0    0    0    0 -0.00000000000E+00 -0.00000000000E+00 -0.45593999997E+02  0.45594000000E+02  0.51100000000E-03 0.  1.
         23    2    1    2    0    0  0.17763568394E-14 -0.88817841970E-15  0.00000000000E+00  0.91188000000E+02  0.91188000000E+02 0.  0.
    9900012    2    3    3    0    0  0.49152222422E+01  0.45154408555E+01  0.36210924501E+02  0.54367086526E+02  0.40000005354E+02 0.  0.
        -12    1    3    3    0    0 -0.49152222422E+01 -0.45154408555E+01 -0.36210924501E+02  0.36820913474E+02  0.00000000000E+00 0.  1.
         11    1    4    4    0    0 -0.10475452266E+02 -0.78241636385E+01  0.12636017484E+02  0.18183002363E+02  0.51100000000E-03 0. -1.
        -11    1    4    4    0    0  0.74911854827E+01  0.13118367815E+02  0.48823916540E+01  0.15875993909E+02  0.51100000000E-03 0.  1.
         12    1    4    4    0    0  0.78994890256E+01 -0.77876332136E+00  0.18692515363E+02  0.20308090254E+02  0.00000000000E+00 0. -1.
</event>
<event>
 8    1  0.1253703E-006  0.9118800E+02  0.7816164E-02  0.1184000E+00
        -11   -1    0    0    0    0  0.00000000000E+00  0.00000000000E+00  0.45593999997E+02  0.45594000000E+02  0.51100000000E-03 0.  1.
         11   -1    0    0    0    0 -0.00000000000E+00 -0.00000000000E+00 -0.45593999997E+02  0.45594000000E+02  0.51100000000E-03 0. -1.
         23    2    1    2    0    0  0.00000000000E+00  0.17763568394E-14  0.35527136788E-14  0.91188000000E+02  0.91188000000E+02 0.  0.
    9900012    2    3    3    0    0  0.25882160639E+02 -0.15433339070E+02  0.21158992121E+02  0.54367120845E+02  0.40000083590E+02 0.  0.
         12    1    3    3    0    0 -0.25882160639E+02  0.15433339070E+02 -0.21158992121E+02  0.36820879155E+02  0.00000000000E+00 0. -1.
         11    1    4    4    0    0  0.58792137396E+01  0.48750002966E+01  0.12541821490E+01  0.77397516247E+01  0.51100000000E-03 0. -1.
        -11    1    4    4    0    0 -0.21525163760E+01 -0.62043844352E+01  0.19267412551E+02  0.20355856642E+02  0.51100000000E-03 0.  1.
         12    1    4    4    0    0  0.22155463275E+02 -0.14103954931E+02  0.63739742116E+00  0.26271512578E+02  0.00000000000E+00 0. -1.
</event>
<event>
 8    1  0.1253703E-006  0.9118800E+02  0.7816164E-02  0.1184000E+00
        -11   -1    0    0    0    0  0.00000000000E+00  0.00000000000E+00  0.45593999997E+02  0.45594000000E+02  0.51100000000E-03 0.  1.
         11   -1    0    0    0    0 -0.00000000000E+00 -0.00000000000E+00 -0.45593999997E+02  0.45594000000E+02  0.51100000000E-03 0. -1.
         23    2    1    2    0    0  0.00000000000E+00 -0.35527136788E-14  0.88817841970E-15  0.91188000000E+02  0.91188000000E+02 0.  0.
    9900012    2    3    3    0    0 -0.18703190690E+02 -0.30927460685E+02  0.70327707538E+01  0.54367122350E+02  0.40000087022E+02 0.  0.
         12    1    3    3    0    0  0.18703190690E+02  0.30927460685E+02 -0.70327707538E+01  0.36820877650E+02  0.00000000000E+00 0. -1.
         11    1    4    4    0    0 -0.16272155858E+02  0.20651403178E+01 -0.30438573502E+01  0.16682713467E+02  0.51100000000E-03 0. -1.
        -11    1    4    4    0    0 -0.68861290624E+01 -0.28707872997E+02  0.10854643990E+02  0.31454475705E+02  0.51100000000E-03 0.  1.
         12    1    4    4    0    0  0.44550942304E+01 -0.42847280062E+01 -0.77801588588E+00  0.62299331784E+01  0.00000000000E+00 0. -1.
</event>
<event>
 8    1  0.1253703E-006  0.9118800E+02  0.7816164E-02  0.1184000E+00
        -11   -1    0    0    0    0  0.00000000000E+00  0.00000000000E+00  0.45593999997E+02  0.45594000000E+02  0.51100000000E-03 0. -1.
         11   -1    0    0    0    0 -0.00000000000E+00 -0.00000000000E+00 -0.45593999997E+02  0.45594000000E+02  0.51100000000E-03 0.  1.
         23    2    1    2    0    0  0.00000000000E+00 -0.35527136788E-14  0.00000000000E+00  0.91188000000E+02  0.91188000000E+02 0.  0.
    9900012    2    3    3    0    0 -0.83680900578E+01 -0.31729055502E+02 -0.16703980638E+02  0.54367070307E+02  0.39999968380E+02 0.  0.
         12    1    3    3    0    0  0.83680900578E+01  0.31729055502E+02  0.16703980638E+02  0.36820929693E+02  0.00000000000E+00 0. -1.
         11    1    4    4    0    0 -0.97499040432E+01 -0.70972770073E+01  0.24891486363E+01  0.12313725308E+02  0.51100000000E-03 0. -1.
        -11    1    4    4    0    0 -0.51719991765E+01  0.31205262019E+01 -0.10721290774E+02  0.12305825262E+02  0.51100000000E-03 0.  1.
        -12    1    4    4    0    0  0.65538131619E+01 -0.27752304697E+02 -0.84718385002E+01  0.29747519737E+02  0.00000000000E+00 0.  1.
</event>
<event>
 8    1  0.1253703E-006  0.9118800E+02  0.7816164E-02  0.1184000E+00
        -11   -1    0    0    0    0  0.00000000000E+00  0.00000000000E+00  0.45593999997E+02  0.45594000000E+02  0.51100000000E-03 0. -1.
         11   -1    0    0    0    0 -0.00000000000E+00 -0.00000000000E+00 -0.45593999997E+02  0.45594000000E+02  0.51100000000E-03 0.  1.
         23    2    1    2    0    0 -0.35527136788E-14  0.00000000000E+00 -0.71054273576E-14  0.91188000000E+02  0.91188000000E+02 0.  0.
    9900012    2    3    3    0    0 -0.20959841285E+02 -0.16980606255E+02 -0.25062434926E+02  0.54367060578E+02  0.39999946200E+02 0.  0.
         12    1    3    3    0    0  0.20959841285E+02  0.16980606255E+02  0.25062434926E+02  0.36820939422E+02  0.00000000000E+00 0. -1.
         11    1    4    4    0    0 -0.16949145005E+02  0.34698755812E+01 -0.75236030003E+01  0.18865793260E+02  0.51100000000E-03 0. -1.
        -11    1    4    4    0    0  0.85715362238E+01 -0.60460946814E+01 -0.16124900685E+01  0.10612568898E+02  0.51100000000E-03 0.  1.
        -12    1    4    4    0    0 -0.12582232504E+02 -0.14404387155E+02 -0.15926341857E+02  0.24888698420E+02  0.00000000000E+00 0.  1.
</event>
<event>
 8    1  0.1253703E-006  0.9118800E+02  0.7816164E-02  0.1184000E+00
        -11   -1    0    0    0    0  0.00000000000E+00  0.00000000000E+00  0.45593999997E+02  0.45594000000E+02  0.51100000000E-03 0.  1.
         11   -1    0    0    0    0 -0.00000000000E+00 -0.00000000000E+00 -0.45593999997E+02  0.45594000000E+02  0.51100000000E-03 0. -1.
         23    2    1    2    0    0 -0.35527136788E-14  0.00000000000E+00 -0.35527136788E-14  0.91188000000E+02  0.91188000000E+02 0.  0.
    9900012    2    3    3    0    0 -0.30050952244E+02  0.55399821322E+01 -0.20543316610E+02  0.54367095745E+02  0.40000026371E+02 0.  0.
        -12    1    3    3    0    0  0.30050952244E+02 -0.55399821322E+01  0.20543316610E+02  0.36820904255E+02  0.00000000000E+00 0.  1.
         11    1    4    4    0    0 -0.52232934735E+00  0.56758077929E+01 -0.11617990399E+02  0.12940839355E+02  0.51100000000E-03 0.  1.
        -11    1    4    4    0    0 -0.11687927973E+01  0.17216784965E+01  0.80549872046E+01  0.83194394388E+01  0.51100000000E-03 0. -1.
         12    1    4    4    0    0 -0.28359830099E+02 -0.18575041572E+01 -0.16980313416E+02  0.33106816951E+02  0.00000000000E+00 0. -1.
</event>
<event>
 8    1  0.1253703E-006  0.9118800E+02  0.7816164E-02  0.1184000E+00
        -11   -1    0    0    0    0  0.00000000000E+00  0.00000000000E+00  0.45593999997E+02  0.45594000000E+02  0.51100000000E-03 0.  1.
         11   -1    0    0    0    0 -0.00000000000E+00 -0.00000000000E+00 -0.45593999997E+02  0.45594000000E+02  0.51100000000E-03 0. -1.
         23    2    1    2    0    0  0.17763568394E-14  0.00000000000E+00  0.00000000000E+00  0.91188000000E+02  0.91188000000E+02 0.  0.
    9900012    2    3    3    0    0  0.13212151684E+02 -0.27369262518E+02  0.20788110084E+02  0.54367041243E+02  0.39999902121E+02 0.  0.
         12    1    3    3    0    0 -0.13212151684E+02  0.27369262518E+02 -0.20788110084E+02  0.36820958757E+02  0.00000000000E+00 0. -1.
         11    1    4    4    0    0  0.46789287689E+00 -0.16957200765E+02 -0.54117968685E+01  0.17805985711E+02  0.51100000000E-03 0. -1.
        -11    1    4    4    0    0  0.11011585735E+02 -0.16027756639E+02  0.18198151842E+02  0.26633000845E+02  0.51100000000E-03 0.  1.
         12    1    4    4    0    0  0.17326730721E+01  0.56156948855E+01  0.80017551103E+01  0.99280546870E+01  0.00000000000E+00 0. -1.
</event>
<event>
 8    1  0.1253703E-006  0.9118800E+02  0.7816164E-02  0.1184000E+00
        -11   -1    0    0    0    0  0.00000000000E+00  0.00000000000E+00  0.45593999997E+02  0.45594000000E+02  0.51100000000E-03 0.  1.
         11   -1    0    0    0    0 -0.00000000000E+00 -0.00000000000E+00 -0.45593999997E+02  0.45594000000E+02  0.51100000000E-03 0. -1.
         23    2    1    2    0    0 -0.35527136788E-14  0.71054273576E-14  0.00000000000E+00  0.91188000000E+02  0.91188000000E+02 0.  0.
    9900012    2    3    3    0    0 -0.11589480965E+02  0.33932781740E+02  0.83684215469E+01  0.54367078979E+02  0.39999988149E+02 0.  0.
         12    1    3    3    0    0  0.11589480965E+02 -0.33932781740E+02 -0.83684215469E+01  0.36820921021E+02  0.00000000000E+00 0. -1.
         11    1    4    4    0    0 -0.82191410405E+01 -0.45788190101E+01  0.10234395498E+02  0.13901896074E+02  0.51100000000E-03 0. -1.
        -11    1    4    4    0    0  0.38785159628E+01  0.62458233113E+01 -0.35777983129E+00  0.73607881085E+01  0.51100000000E-03 0.  1.
        -12    1    4    4    0    0 -0.72488558871E+01  0.32265777438E+02 -0.15081941200E+01  0.33104394797E+02  0.00000000000E+00 0.  1.
</event>
<event>
 8    1  0.1253703E-006  0.9118800E+02  0.7816164E-02  0.1184000E+00
        -11   -1    0    0    0    0  0.00000000000E+00  0.00000000000E+00  0.45593999997E+02  0.45594000000E+02  0.51100000000E-03 0. -1.
         11   -1    0    0    0    0 -0.00000000000E+00 -0.00000000000E+00 -0.45593999997E+02  0.45594000000E+02  0.51100000000E-03 0.  1.
         23    2    1    2    0    0 -0.44408920985E-15 -0.71054273576E-14 -0.88817841970E-15  0.91188000000E+02  0.91188000000E+02 0.  0.
    9900012    2    3    3    0    0  0.36003816821E+01 -0.36396564988E+02 -0.42556366878E+01  0.54367039464E+02  0.39999898065E+02 0.  0.
        -12    1    3    3    0    0 -0.36003816821E+01  0.36396564988E+02  0.42556366878E+01  0.36820960536E+02  0.00000000000E+00 0.  1.
         11    1    4    4    0    0  0.61523207956E+01 -0.53689378387E+01  0.11655911580E+02  0.14231543125E+02  0.51100000000E-03 0. -1.
        -11    1    4    4    0    0  0.40722578992E+01 -0.19722434148E+02 -0.82798788819E+00  0.20155477105E+02  0.51100000000E-03 0.  1.
        -12    1    4    4    0    0 -0.66241970127E+01 -0.11305193001E+02 -0.15083560380E+02  0.19980019234E+02  0.00000000000E+00 0.  1.
</event>
<event>
 8    1  0.1253703E-006  0.9118800E+02  0.7816164E-02  0.1184000E+00
        -11   -1    0    0    0    0  0.00000000000E+00  0.00000000000E+00  0.45593999997E+02  0.45594000000E+02  0.51100000000E-03 0. -1.
         11   -1    0    0    0    0 -0.00000000000E+00 -0.00000000000E+00 -0.45593999997E+02  0.45594000000E+02  0.51100000000E-03 0.  1.
         23    2    1    2    0    0 -0.17763568394E-14  0.00000000000E+00  0.35527136788E-14  0.91188000000E+02  0.91188000000E+02 0.  0.
    9900012    2    3    3    0    0 -0.14641893313E+02 -0.20740292693E+02 -0.26669046881E+02  0.54367043436E+02  0.39999907120E+02 0.  0.
         12    1    3    3    0    0  0.14641893313E+02  0.20740292693E+02  0.26669046881E+02  0.36820956564E+02  0.00000000000E+00 0. -1.
         11    1    4    4    0    0 -0.29124387391E+01 -0.58619020885E+01 -0.30034672365E+02  0.30739644433E+02  0.51100000000E-03 0.  1.
        -11    1    4    4    0    0 -0.28060978191E+01  0.67828612524E+00  0.48368973954E+01  0.56329240819E+01  0.51100000000E-03 0. -1.
        -12    1    4    4    0    0 -0.89233567546E+01 -0.15556676729E+02 -0.14712719112E+01  0.17994474921E+02  0.00000000000E+00 0.  1.
</event>
<event>
 8    1  0.1253703E-006  0.9118800E+02  0.7816164E-02  0.1184000E+00
        -11   -1    0    0    0    0  0.00000000000E+00  0.00000000000E+00  0.45593999997E+02  0.45594000000E+02  0.51100000000E-03 0. -1.
         11   -1    0    0    0    0 -0.00000000000E+00 -0.00000000000E+00 -0.45593999997E+02  0.45594000000E+02  0.51100000000E-03 0.  1.
         23    2    1    2    0    0  0.00000000000E+00 -0.35527136788E-14  0.00000000000E+00  0.91188000000E+02  0.91188000000E+02 0.  0.
    9900012    2    3    3    0    0  0.18542974472E+02 -0.20354249203E+02  0.24446741970E+02  0.54367074484E+02  0.39999977902E+02 0.  0.
        -12    1    3    3    0    0 -0.18542974472E+02  0.20354249203E+02 -0.24446741970E+02  0.36820925516E+02  0.00000000000E+00 0.  1.
         11    1    4    4    0    0  0.75035188334E+01 -0.22882478853E+02  0.12163325477E+02  0.26978827259E+02  0.51100000000E-03 0. -1.
        -11    1    4    4    0    0  0.13041522107E+02  0.21669072501E+01 -0.16358078297E+01  0.13321135590E+02  0.51100000000E-03 0.  1.
        -12    1    4    4    0    0 -0.20020664687E+01  0.36132239946E+00  0.13919224322E+02  0.14067111635E+02  0.00000000000E+00 0.  1.
</event>
<event>
 8    1  0.1253703E-006  0.9118800E+02  0.7816164E-02  0.1184000E+00
        -11   -1    0    0    0    0  0.00000000000E+00  0.00000000000E+00  0.45593999997E+02  0.45594000000E+02  0.51100000000E-03 0.  1.
         11   -1    0    0    0    0 -0.00000000000E+00 -0.00000000000E+00 -0.45593999997E+02  0.45594000000E+02  0.51100000000E-03 0. -1.
         23    2    1    2    0    0 -0.35527136788E-14 -0.35527136788E-14  0.88817841970E-15  0.91188000000E+02  0.91188000000E+02 0.  0.
    9900012    2    3    3    0    0  0.28774561676E+02  0.21866380289E+02 -0.70474286034E+01  0.54367078821E+02  0.39999987788E+02 0.  0.
        -12    1    3    3    0    0 -0.28774561676E+02 -0.21866380289E+02  0.70474286034E+01  0.36820921179E+02  0.00000000000E+00 0.  1.
         11    1    4    4    0    0  0.45815141927E+01  0.46932013415E+01 -0.78403410327E+01  0.10221905835E+02  0.51100000000E-03 0. -1.
        -11    1    4    4    0    0  0.25971726395E+02  0.50593776306E+01 -0.95367787882E+01  0.28126109291E+02  0.51100000000E-03 0.  1.
        -12    1    4    4    0    0 -0.17786789119E+01  0.12113801317E+02  0.10329691217E+02  0.16019063695E+02  0.00000000000E+00 0.  1.
</event>
<event>
 8    1  0.1253703E-006  0.9118800E+02  0.7816164E-02  0.1184000E+00
        -11   -1    0    0    0    0  0.00000000000E+00  0.00000000000E+00  0.45593999997E+02  0.45594000000E+02  0.51100000000E-03 0. -1.
         11   -1    0    0    0    0 -0.00000000000E+00 -0.00000000000E+00 -0.45593999997E+02  0.45594000000E+02  0.51100000000E-03 0.  1.
         23    2    1    2    0    0  0.35527136788E-14  0.35527136788E-14  0.17763568394E-14  0.91188000000E+02  0.91188000000E+02 0.  0.
    9900012    2    3    3    0    0  0.26187949416E+02  0.21664145540E+02  0.14164660713E+02  0.54367061531E+02  0.39999948373E+02 0.  0.
        -12    1    3    3    0    0 -0.26187949416E+02 -0.21664145540E+02 -0.14164660713E+02  0.36820938469E+02  0.00000000000E+00 0.  1.
         11    1    4    4    0    0  0.10309450760E+01  0.60359119214E+01  0.16412906083E+02  0.17517949847E+02  0.51100000000E-03 0. -1.
        -11    1    4    4    0    0  0.18512113599E+01  0.11655977371E+02 -0.54350589240E+01  0.12993408242E+02  0.51100000000E-03 0.  1.
        -12    1    4    4    0    0  0.23305792980E+02  0.39722562476E+01  0.31868135539E+01  0.23855703443E+02  0.00000000000E+00 0.  1.
</event>
<event>
 8    1  0.1253703E-006  0.9118800E+02  0.7816164E-02  0.1184000E+00
        -11   -1    0    0    0    0  0.00000000000E+00  0.00000000000E+00  0.45593999997E+02  0.45594000000E+02  0.51100000000E-03 0.  1.
         11   -1    0    0    0    0 -0.00000000000E+00 -0.00000000000E+00 -0.45593999997E+02  0.45594000000E+02  0.51100000000E-03 0. -1.
         23    2    1    2    0    0  0.71054273576E-14  0.88817841970E-15 -0.88817841970E-15  0.91188000000E+02  0.91188000000E+02 0.  0.
    9900012    2    3    3    0    0  0.35977950145E+02 -0.58292345134E+01 -0.52333035366E+01  0.54367077448E+02  0.39999984658E+02 0.  0.
        -12    1    3    3    0    0 -0.35977950145E+02  0.58292345134E+01  0.52333035366E+01  0.36820922552E+02  0.00000000000E+00 0.  1.
         11    1    4    4    0    0  0.81113262497E+01 -0.76175193058E+01  0.10189061396E+02  0.15087650125E+02  0.51100000000E-03 0. -1.
        -11    1    4    4    0    0  0.11792828809E+02  0.43911787941E+00  0.53687473501E+01  0.12964840308E+02  0.51100000000E-03 0.  1.
         12    1    4    4    0    0  0.16073795086E+02  0.13491669130E+01 -0.20791112283E+02  0.26314587015E+02  0.00000000000E+00 0. -1.
</event>
<event>
 8    1  0.1253703E-006  0.9118800E+02  0.7816164E-02  0.1184000E+00
        -11   -1    0    0    0    0  0.00000000000E+00  0.00000000000E+00  0.45593999997E+02  0.45594000000E+02  0.51100000000E-03 0.  1.
         11   -1    0    0    0    0 -0.00000000000E+00 -0.00000000000E+00 -0.45593999997E+02  0.45594000000E+02  0.51100000000E-03 0. -1.
         23    2    1    2    0    0  0.00000000000E+00  0.00000000000E+00  0.35527136788E-14  0.91188000000E+02  0.91188000000E+02 0.  0.
    9900012    2    3    3    0    0  0.24992601959E+02 -0.14847518809E+02 -0.22598696464E+02  0.54367081362E+02  0.39999993582E+02 0.  0.
         12    1    3    3    0    0 -0.24992601959E+02  0.14847518809E+02  0.22598696464E+02  0.36820918638E+02  0.00000000000E+00 0. -1.
         11    1    4    4    0    0  0.13041667389E+02 -0.17595088931E+02 -0.29412429478E+02  0.36671013769E+02  0.51100000000E-03 0. -1.
        -11    1    4    4    0    0  0.31003239686E+00  0.44982799464E+01  0.12712170783E+01  0.46847236508E+01  0.51100000000E-03 0.  1.
         12    1    4    4    0    0  0.11640902173E+02 -0.17507098246E+01  0.55425159364E+01  0.13011343942E+02  0.00000000000E+00 0. -1.
</event>
<event>
 8    1  0.1253703E-006  0.9118800E+02  0.7816164E-02  0.1184000E+00
        -11   -1    0    0    0    0  0.00000000000E+00  0.00000000000E+00  0.45593999997E+02  0.45594000000E+02  0.51100000000E-03 0.  1.
         11   -1    0    0    0    0 -0.00000000000E+00 -0.00000000000E+00 -0.45593999997E+02  0.45594000000E+02  0.51100000000E-03 0. -1.
         23    2    1    2    0    0  0.00000000000E+00  0.00000000000E+00  0.00000000000E+00  0.91188000000E+02  0.91188000000E+02 0.  0.
    9900012    2    3    3    0    0  0.29888154262E+02  0.12580422732E+02  0.17441657276E+02  0.54367079182E+02  0.39999988612E+02 0.  0.
         12    1    3    3    0    0 -0.29888154262E+02 -0.12580422732E+02 -0.17441657276E+02  0.36820920818E+02  0.00000000000E+00 0. -1.
         11    1    4    4    0    0  0.29621968720E+01  0.11927610902E+02  0.12276113046E+02  0.17370822200E+02  0.51100000000E-03 0.  1.
        -11    1    4    4    0    0  0.15473618418E+02 -0.10129808576E+02 -0.38145186135E+01  0.18883761311E+02  0.51100000000E-03 0. -1.
        -12    1    4    4    0    0  0.11452338972E+02  0.10782620406E+02  0.89800628441E+01  0.18112495671E+02  0.00000000000E+00 0.  1.
</event>
<event>
 8    1  0.1253703E-006  0.9118800E+02  0.7816164E-02  0.1184000E+00
        -11   -1    0    0    0    0  0.00000000000E+00  0.00000000000E+00  0.45593999997E+02  0.45594000000E+02  0.51100000000E-03 0.  1.
         11   -1    0    0    0    0 -0.00000000000E+00 -0.00000000000E+00 -0.45593999997E+02  0.45594000000E+02  0.51100000000E-03 0. -1.
         23    2    1    2    0    0  0.00000000000E+00  0.35527136788E-14  0.00000000000E+00  0.91188000000E+02  0.91188000000E+02 0.  0.
    9900012    2    3    3    0    0 -0.33404151515E+02  0.50314348888E+01 -0.14650310231E+02  0.54367024113E+02  0.39999863069E+02 0.  0.
        -12    1    3    3    0    0  0.33404151515E+02 -0.50314348888E+01  0.14650310231E+02  0.36820975887E+02  0.00000000000E+00 0.  1.
         11    1    4    4    0    0 -0.18942994151E+02  0.21224588983E+02 -0.35165287337E+01  0.28665068978E+02  0.51100000000E-03 0. -1.
        -11    1    4    4    0    0 -0.10750243120E+02 -0.10709446712E+02 -0.11546446202E+02  0.19067784249E+02  0.51100000000E-03 0.  1.
        -12    1    4    4    0    0 -0.37109142435E+01 -0.54837073822E+01  0.41266470513E+00  0.66341708852E+01  0.00000000000E+00 0.  1.
</event>
<event>
 8    1  0.1253703E-006  0.9118800E+02  0.7816164E-02  0.1184000E+00
        -11   -1    0    0    0    0  0.00000000000E+00  0.00000000000E+00  0.45593999997E+02  0.45594000000E+02  0.51100000000E-03 0.  1.
         11   -1    0    0    0    0 -0.00000000000E+00 -0.00000000000E+00 -0.45593999997E+02  0.45594000000E+02  0.51100000000E-03 0. -1.
         23    2    1    2    0    0 -0.71054273576E-14 -0.44408920985E-14 -0.17763568394E-14  0.91188000000E+02  0.91188000000E+02 0.  0.
    9900012    2    3    3    0    0  0.35171317046E+02  0.71630146491E+01  0.82127613488E+01  0.54367085147E+02  0.40000002210E+02 0.  0.
         12    1    3    3    0    0 -0.35171317046E+02 -0.71630146491E+01 -0.82127613488E+01  0.36820914853E+02  0.00000000000E+00 0. -1.
         11    1    4    4    0    0  0.36838089439E+01  0.15244280510E+01  0.18217578365E+01  0.43832785782E+01  0.51100000000E-03 0. -1.
        -11    1    4    4    0    0  0.23434762323E+02  0.20779856222E+02  0.91131446018E+01  0.32619624684E+02  0.51100000000E-03 0.  1.
         12    1    4    4    0    0  0.80527457789E+01 -0.15141269624E+02 -0.27221410894E+01  0.17364181884E+02  0.00000000000E+00 0. -1.
</event>
<event>
 8    1  0.1253703E-006  0.9118800E+02  0.7816164E-02  0.1184000E+00
        -11   -1    0    0    0    0  0.00000000000E+00  0.00000000000E+00  0.45593999997E+02  0.45594000000E+02  0.51100000000E-03 0. -1.
         11   -1    0    0    0    0 -0.00000000000E+00 -0.00000000000E+00 -0.45593999997E+02  0.45594000000E+02  0.51100000000E-03 0.  1.
         23    2    1    2    0    0  0.00000000000E+00 -0.26645352591E-14  0.00000000000E+00  0.91188000000E+02  0.91188000000E+02 0.  0.
    9900012    2    3    3    0    0 -0.14858051507E+02 -0.38350839962E+01  0.33471024225E+02  0.54367095251E+02  0.40000025245E+02 0.  0.
        -12    1    3    3    0    0  0.14858051507E+02  0.38350839962E+01 -0.33471024225E+02  0.36820904749E+02  0.00000000000E+00 0.  1.
         11    1    4    4    0    0 -0.51607909621E+01  0.14645073781E+02  0.98100709065E+01  0.18367074913E+02  0.51100000000E-03 0. -1.
        -11    1    4    4    0    0 -0.10412030154E+02 -0.23852408205E+01  0.67106909758E+01  0.12614797634E+02  0.51100000000E-03 0.  1.
         12    1    4    4    0    0  0.71476960952E+00 -0.16094916957E+02  0.16950262343E+02  0.23385222704E+02  0.00000000000E+00 0. -1.
</event>
<event>
 8    1  0.1253703E-006  0.9118800E+02  0.7816164E-02  0.1184000E+00
        -11   -1    0    0    0    0  0.00000000000E+00  0.00000000000E+00  0.45593999997E+02  0.45594000000E+02  0.51100000000E-03 0. -1.
         11   -1    0    0    0    0 -0.00000000000E+00 -0.00000000000E+00 -0.45593999997E+02  0.45594000000E+02  0.51100000000E-03 0.  1.
         23    2    1    2    0    0  0.00000000000E+00  0.88817841970E-15  0.00000000000E+00  0.91188000000E+02  0.91188000000E+02 0.  0.
    9900012    2    3    3    0    0 -0.11566179377E+02 -0.77486435331E+01  0.34087570488E+02  0.54367076006E+02  0.39999981372E+02 0.  0.
        -12    1    3    3    0    0  0.11566179377E+02  0.77486435331E+01 -0.34087570488E+02  0.36820923994E+02  0.00000000000E+00 0.  1.
         11    1    4    4    0    0  0.12216856979E+02 -0.34195911568E+00  0.20416781236E+02  0.23795240843E+02  0.51100000000E-03 0. -1.
        -11    1    4    4    0    0 -0.40372199040E+01 -0.19214895627E+01  0.82336236728E+01  0.93693023080E+01  0.51100000000E-03 0.  1.
        -12    1    4    4    0    0 -0.19745816452E+02 -0.54851948548E+01  0.54371655794E+01  0.21202532856E+02  0.00000000000E+00 0.  1.
</event>
<event>
 8    1  0.1253703E-006  0.9118800E+02  0.7816164E-02  0.1184000E+00
        -11   -1    0    0    0    0  0.00000000000E+00  0.00000000000E+00  0.45593999997E+02  0.45594000000E+02  0.51100000000E-03 0.  1.
         11   -1    0    0    0    0 -0.00000000000E+00 -0.00000000000E+00 -0.45593999997E+02  0.45594000000E+02  0.51100000000E-03 0. -1.
         23    2    1    2    0    0  0.00000000000E+00  0.00000000000E+00  0.00000000000E+00  0.91188000000E+02  0.91188000000E+02 0.  0.
    9900012    2    3    3    0    0  0.19162797285E+02 -0.29863942838E+01 -0.31299337474E+02  0.54367083704E+02  0.39999998919E+02 0.  0.
        -12    1    3    3    0    0 -0.19162797285E+02  0.29863942838E+01  0.31299337474E+02  0.36820916296E+02  0.00000000000E+00 0.  1.
         11    1    4    4    0    0  0.16093262728E+02  0.10433499253E+02 -0.15540916074E+02  0.24685442766E+02  0.51100000000E-03 0.  1.
        -11    1    4    4    0    0  0.11290452301E+02 -0.11767061080E+02 -0.76341495594E+01  0.18006062295E+02  0.51100000000E-03 0. -1.
         12    1    4    4    0    0 -0.82209177443E+01 -0.16528324566E+01 -0.81242718404E+01  0.11675578642E+02  0.00000000000E+00 0. -1.
</event>
<event>
 8    1  0.1253703E-006  0.9118800E+02  0.7816164E-02  0.1184000E+00
        -11   -1    0    0    0    0  0.00000000000E+00  0.00000000000E+00  0.45593999997E+02  0.45594000000E+02  0.51100000000E-03 0. -1.
         11   -1    0    0    0    0 -0.00000000000E+00 -0.00000000000E+00 -0.45593999997E+02  0.45594000000E+02  0.51100000000E-03 0.  1.
         23    2    1    2    0    0  0.00000000000E+00  0.00000000000E+00  0.53290705182E-14  0.91188000000E+02  0.91188000000E+02 0.  0.
    9900012    2    3    3    0    0  0.32993453526E+02  0.64137600007E+01  0.15035867045E+02  0.54367060431E+02  0.39999945865E+02 0.  0.
        -12    1    3    3    0    0 -0.32993453526E+02 -0.64137600007E+01 -0.15035867045E+02  0.36820939569E+02  0.00000000000E+00 0.  1.
         11    1    4    4    0    0  0.88528693080E+01  0.11207280828E+01 -0.11581497602E+01  0.89983686048E+01  0.51100000000E-03 0. -1.
        -11    1    4    4    0    0  0.17931724141E+01  0.14963722897E+02 -0.16777833042E+01  0.15163885628E+02  0.51100000000E-03 0.  1.
        -12    1    4    4    0    0  0.22347411804E+02 -0.96706909794E+01  0.17871800110E+02  0.30204806199E+02  0.00000000000E+00 0.  1.
</event>
<event>
 8    1  0.1253703E-006  0.9118800E+02  0.7816164E-02  0.1184000E+00
        -11   -1    0    0    0    0  0.00000000000E+00  0.00000000000E+00  0.45593999997E+02  0.45594000000E+02  0.51100000000E-03 0.  1.
         11   -1    0    0    0    0 -0.00000000000E+00 -0.00000000000E+00 -0.45593999997E+02  0.45594000000E+02  0.51100000000E-03 0. -1.
         23    2    1    2    0    0  0.00000000000E+00  0.35527136788E-14  0.35527136788E-14  0.91188000000E+02  0.91188000000E+02 0.  0.
    9900012    2    3    3    0    0  0.16233874034E+02  0.30299735909E+02 -0.13197236033E+02  0.54367086089E+02  0.40000004358E+02 0.  0.
        -12    1    3    3    0    0 -0.16233874034E+02 -0.30299735909E+02  0.13197236033E+02  0.36820913911E+02  0.00000000000E+00 0.  1.
         11    1    4    4    0    0 -0.10925687356E+01  0.11538565753E+02  0.39585961942E+01  0.12247558539E+02  0.51100000000E-03 0. -1.
        -11    1    4    4    0    0 -0.47569758631E+01  0.95431968319E+01  0.27280770191E+01  0.11006535768E+02  0.51100000000E-03 0.  1.
         12    1    4    4    0    0  0.22083418633E+02  0.92179733239E+01 -0.19883909247E+02  0.31112991782E+02  0.00000000000E+00 0. -1.
</event>
<event>
 8    1  0.1253703E-006  0.9118800E+02  0.7816164E-02  0.1184000E+00
        -11   -1    0    0    0    0  0.00000000000E+00  0.00000000000E+00  0.45593999997E+02  0.45594000000E+02  0.51100000000E-03 0.  1.
         11   -1    0    0    0    0 -0.00000000000E+00 -0.00000000000E+00 -0.45593999997E+02  0.45594000000E+02  0.51100000000E-03 0. -1.
         23    2    1    2    0    0 -0.17763568394E-14  0.00000000000E+00  0.71054273576E-14  0.91188000000E+02  0.91188000000E+02 0.  0.
    9900012    2    3    3    0    0  0.62589765062E+01 -0.22548524582E+02 -0.28428318241E+02  0.54367081682E+02  0.39999994311E+02 0.  0.
        -12    1    3    3    0    0 -0.62589765062E+01  0.22548524582E+02  0.28428318241E+02  0.36820918318E+02  0.00000000000E+00 0.  1.
         11    1    4    4    0    0  0.64155546943E+00  0.17218711329E+01  0.12290412749E+01  0.22106506588E+01  0.51100000000E-03 0.  1.
        -11    1    4    4    0    0 -0.81661892785E+01 -0.20907361360E+02 -0.39453537735E+01  0.22789695545E+02  0.51100000000E-03 0. -1.
        -12    1    4    4    0    0  0.13783610315E+02 -0.33630343555E+01 -0.25712005742E+02  0.29366735479E+02  0.00000000000E+00 0.  1.
</event>
<event>
 8    1  0.1253703E-006  0.9118800E+02  0.7816164E-02  0.1184000E+00
        -11   -1    0    0    0    0  0.00000000000E+00  0.00000000000E+00  0.45593999997E+02  0.45594000000E+02  0.51100000000E-03 0.  1.
         11   -1    0    0    0    0 -0.00000000000E+00 -0.00000000000E+00 -0.45593999997E+02  0.45594000000E+02  0.51100000000E-03 0. -1.
         23    2    1    2    0    0  0.00000000000E+00  0.00000000000E+00  0.00000000000E+00  0.91188000000E+02  0.91188000000E+02 0.  0.
    9900012    2    3    3    0    0  0.32619938132E+02  0.13478768427E+02  0.10490117919E+02  0.54367080185E+02  0.39999990898E+02 0.  0.
         12    1    3    3    0    0 -0.32619938132E+02 -0.13478768427E+02 -0.10490117919E+02  0.36820919815E+02  0.00000000000E+00 0. -1.
         11    1    4    4    0    0  0.18772928269E+02 -0.61288711617E+01 -0.48870700191E+00  0.19754106720E+02  0.51100000000E-03 0. -1.
        -11    1    4    4    0    0  0.18183600699E+02  0.11244079134E+02  0.12939569976E+02  0.24990100468E+02  0.51100000000E-03 0.  1.
        -12    1    4    4    0    0 -0.43365908362E+01  0.83635604541E+01 -0.19607450551E+01  0.96228729973E+01  0.00000000000E+00 0.  1.
</event>
<event>
 8    1  0.1253703E-006  0.9118800E+02  0.7816164E-02  0.1184000E+00
        -11   -1    0    0    0    0  0.00000000000E+00  0.00000000000E+00  0.45593999997E+02  0.45594000000E+02  0.51100000000E-03 0.  1.
         11   -1    0    0    0    0 -0.00000000000E+00 -0.00000000000E+00 -0.45593999997E+02  0.45594000000E+02  0.51100000000E-03 0. -1.
         23    2    1    2    0    0  0.00000000000E+00 -0.17763568394E-14  0.00000000000E+00  0.91188000000E+02  0.91188000000E+02 0.  0.
    9900012    2    3    3    0    0  0.34917857572E+02 -0.87083553457E+01 -0.77904062303E+01  0.54367045918E+02  0.39999912780E+02 0.  0.
        -12    1    3    3    0    0 -0.34917857572E+02  0.87083553457E+01  0.77904062303E+01  0.36820954082E+02  0.00000000000E+00 0.  1.
         11    1    4    4    0    0  0.16541885844E+02 -0.53254258881E+01 -0.19861353606E+02  0.26390670993E+02  0.51100000000E-03 0. -1.
        -11    1    4    4    0    0 -0.27180465375E+01  0.10778665214E+01  0.39999331814E+01  0.49546986724E+01  0.51100000000E-03 0.  1.
         12    1    4    4    0    0  0.21094018266E+02 -0.44607959791E+01  0.80710141941E+01  0.23021676253E+02  0.00000000000E+00 0. -1.
</event>
<event>
 8    1  0.1253703E-006  0.9118800E+02  0.7816164E-02  0.1184000E+00
        -11   -1    0    0    0    0  0.00000000000E+00  0.00000000000E+00  0.45593999997E+02  0.45594000000E+02  0.51100000000E-03 0. -1.
         11   -1    0    0    0    0 -0.00000000000E+00 -0.00000000000E+00 -0.45593999997E+02  0.45594000000E+02  0.51100000000E-03 0.  1.
         23    2    1    2    0    0  0.00000000000E+00  0.33306690739E-15 -0.35527136788E-14  0.91188000000E+02  0.91188000000E+02 0.  0.
    9900012    2    3    3    0    0  0.24090611876E+02  0.38218556184E+00  0.27843777959E+02  0.54367087227E+02  0.40000006952E+02 0.  0.
        -12    1    3    3    0    0 -0.24090611876E+02 -0.38218556184E+00 -0.27843777959E+02  0.36820912773E+02  0.00000000000E+00 0.  1.
         11    1    4    4    0    0  0.26323054622E+02 -0.54880802639E+01  0.13299114460E+02  0.29998144531E+02  0.51100000000E-03 0. -1.
        -11    1    4    4    0    0  0.50666936925E+01 -0.43973843208E+01  0.69465248996E+01  0.96572554217E+01  0.51100000000E-03 0.  1.
        -12    1    4    4    0    0 -0.72991364388E+01  0.10267650147E+02  0.75981386001E+01  0.14711687275E+02  0.00000000000E+00 0.  1.
</event>
<event>
 8    1  0.1253703E-006  0.9118800E+02  0.7816164E-02  0.1184000E+00
        -11   -1    0    0    0    0  0.00000000000E+00  0.00000000000E+00  0.45593999997E+02  0.45594000000E+02  0.51100000000E-03 0. -1.
         11   -1    0    0    0    0 -0.00000000000E+00 -0.00000000000E+00 -0.45593999997E+02  0.45594000000E+02  0.51100000000E-03 0.  1.
         23    2    1    2    0    0  0.13322676296E-14  0.88817841970E-15  0.00000000000E+00  0.91188000000E+02  0.91188000000E+02 0.  0.
    9900012    2    3    3    0    0 -0.32209166047E+01  0.41146169817E+01 -0.36448256148E+02  0.54367085387E+02  0.40000002758E+02 0.  0.
         12    1    3    3    0    0  0.32209166047E+01 -0.41146169817E+01  0.36448256148E+02  0.36820914613E+02  0.00000000000E+00 0. -1.
         11    1    4    4    0    0 -0.10184220584E+02 -0.37554912437E+01  0.24331000034E+01  0.11123939917E+02  0.51100000000E-03 0. -1.
        -11    1    4    4    0    0  0.44954415629E+00 -0.46968686922E+01 -0.83693724653E+01  0.96077604666E+01  0.51100000000E-03 0.  1.
         12    1    4    4    0    0  0.65137598233E+01  0.12566976918E+02 -0.30511983686E+02  0.33635385004E+02  0.00000000000E+00 0. -1.
</event>
<event>
 8    1  0.1253703E-006  0.9118800E+02  0.7816164E-02  0.1184000E+00
        -11   -1    0    0    0    0  0.00000000000E+00  0.00000000000E+00  0.45593999997E+02  0.45594000000E+02  0.51100000000E-03 0.  1.
         11   -1    0    0    0    0 -0.00000000000E+00 -0.00000000000E+00 -0.45593999997E+02  0.45594000000E+02  0.51100000000E-03 0. -1.
         23    2    1    2    0    0  0.00000000000E+00  0.35527136788E-14  0.35527136788E-14  0.91188000000E+02  0.91188000000E+02 0.  0.
    9900012    2    3    3    0    0  0.17611395555E+02 -0.25096691286E+02  0.20390531713E+02  0.54367096284E+02  0.40000027599E+02 0.  0.
         12    1    3    3    0    0 -0.17611395555E+02  0.25096691286E+02 -0.20390531713E+02  0.36820903716E+02  0.00000000000E+00 0. -1.
         11    1    4    4    0    0  0.69931702839E+01 -0.83706653506E+01 -0.10324540388E+02  0.15018941491E+02  0.51100000000E-03 0. -1.
        -11    1    4    4    0    0  0.94414928391E+01 -0.17945932868E+02  0.19936011544E+02  0.28436646253E+02  0.51100000000E-03 0.  1.
        -12    1    4    4    0    0  0.11767324319E+01  0.12199069331E+01  0.10779060557E+02  0.10911508541E+02  0.00000000000E+00 0.  1.
</event>
<event>
 8    1  0.1253703E-006  0.9118800E+02  0.7816164E-02  0.1184000E+00
        -11   -1    0    0    0    0  0.00000000000E+00  0.00000000000E+00  0.45593999997E+02  0.45594000000E+02  0.51100000000E-03 0.  1.
         11   -1    0    0    0    0 -0.00000000000E+00 -0.00000000000E+00 -0.45593999997E+02  0.45594000000E+02  0.51100000000E-03 0. -1.
         23    2    1    2    0    0  0.00000000000E+00 -0.35527136788E-14  0.17763568394E-14  0.91188000000E+02  0.91188000000E+02 0.  0.
    9900012    2    3    3    0    0 -0.24143033238E+02 -0.26364556383E+02  0.88207391785E+01  0.54367064014E+02  0.39999954033E+02 0.  0.
        -12    1    3    3    0    0  0.24143033238E+02  0.26364556383E+02 -0.88207391785E+01  0.36820935986E+02  0.00000000000E+00 0.  1.
         11    1    4    4    0    0 -0.20341635292E+02 -0.10751353939E+02 -0.20533146391E+01  0.23099563613E+02  0.51100000000E-03 0. -1.
        -11    1    4    4    0    0 -0.50980703560E+01 -0.19369719016E+02  0.36560774040E+00  0.20032723365E+02  0.51100000000E-03 0.  1.
        -12    1    4    4    0    0  0.12966724092E+01  0.37565165721E+01  0.10508446077E+02  0.11234777036E+02  0.00000000000E+00 0.  1.
</event>
<event>
 8    1  0.1253703E-006  0.9118800E+02  0.7816164E-02  0.1184000E+00
        -11   -1    0    0    0    0  0.00000000000E+00  0.00000000000E+00  0.45593999997E+02  0.45594000000E+02  0.51100000000E-03 0. -1.
         11   -1    0    0    0    0 -0.00000000000E+00 -0.00000000000E+00 -0.45593999997E+02  0.45594000000E+02  0.51100000000E-03 0.  1.
         23    2    1    2    0    0  0.00000000000E+00  0.17763568394E-14 -0.17763568394E-14  0.91188000000E+02  0.91188000000E+02 0.  0.
    9900012    2    3    3    0    0 -0.31188975547E+02  0.15710682323E+02 -0.11670573341E+02  0.54367081804E+02  0.39999994588E+02 0.  0.
         12    1    3    3    0    0  0.31188975547E+02 -0.15710682323E+02  0.11670573341E+02  0.36820918196E+02  0.00000000000E+00 0. -1.
         11    1    4    4    0    0  0.99244383538E+00 -0.33267342771E+01  0.85846580033E+01  0.92600463828E+01  0.51100000000E-03 0. -1.
        -11    1    4    4    0    0 -0.26797367883E+02  0.11226702777E+02 -0.20597091881E+02  0.35614294530E+02  0.51100000000E-03 0.  1.
        -12    1    4    4    0    0 -0.53840514994E+01  0.78107138240E+01  0.34186053738E+00  0.94927408906E+01  0.00000000000E+00 0.  1.
</event>
<event>
 8    1  0.1253703E-006  0.9118800E+02  0.7816164E-02  0.1184000E+00
        -11   -1    0    0    0    0  0.00000000000E+00  0.00000000000E+00  0.45593999997E+02  0.45594000000E+02  0.51100000000E-03 0. -1.
         11   -1    0    0    0    0 -0.00000000000E+00 -0.00000000000E+00 -0.45593999997E+02  0.45594000000E+02  0.51100000000E-03 0.  1.
         23    2    1    2    0    0 -0.35527136788E-14  0.00000000000E+00  0.00000000000E+00  0.91188000000E+02  0.91188000000E+02 0.  0.
    9900012    2    3    3    0    0  0.31855279598E+02  0.12927838017E+02  0.13186793993E+02  0.54367090589E+02  0.40000014615E+02 0.  0.
        -12    1    3    3    0    0 -0.31855279598E+02 -0.12927838017E+02 -0.13186793993E+02  0.36820909411E+02  0.00000000000E+00 0.  1.
         11    1    4    4    0    0  0.10535859994E+02 -0.84400011571E+01  0.13616752906E+02  0.19174303777E+02  0.51100000000E-03 0. -1.
        -11    1    4    4    0    0  0.11604642153E+02  0.11886729835E+02 -0.92409549572E+01  0.19009400686E+02  0.51100000000E-03 0.  1.
         12    1    4    4    0    0  0.97147774509E+01  0.94811093385E+01  0.88109960436E+01  0.16183386126E+02  0.00000000000E+00 0. -1.
</event>
<event>
 8    1  0.1253703E-006  0.9118800E+02  0.7816164E-02  0.1184000E+00
        -11   -1    0    0    0    0  0.00000000000E+00  0.00000000000E+00  0.45593999997E+02  0.45594000000E+02  0.51100000000E-03 0. -1.
         11   -1    0    0    0    0 -0.00000000000E+00 -0.00000000000E+00 -0.45593999997E+02  0.45594000000E+02  0.51100000000E-03 0.  1.
         23    2    1    2    0    0 -0.17763568394E-14  0.00000000000E+00  0.00000000000E+00  0.91188000000E+02  0.91188000000E+02 0.  0.
    9900012    2    3    3    0    0  0.12790100578E+02  0.31632182407E+01  0.34383003424E+02  0.54367033868E+02  0.39999885309E+02 0.  0.
        -12    1    3    3    0    0 -0.12790100578E+02 -0.31632182407E+01 -0.34383003424E+02  0.36820966132E+02  0.00000000000E+00 0.  1.
         11    1    4    4    0    0 -0.62325778090E+01  0.75996307832E+01  0.16935115278E+02  0.19580539930E+02  0.51100000000E-03 0. -1.
        -11    1    4    4    0    0 -0.46635982038E+00 -0.35624736451E+01  0.14642908215E+02  0.15077250121E+02  0.51100000000E-03 0.  1.
        -12    1    4    4    0    0  0.19489038208E+02 -0.87393889737E+00  0.28049799308E+01  0.19709243818E+02  0.00000000000E+00 0.  1.
</event>
<event>
 8    1  0.1253703E-006  0.9118800E+02  0.7816164E-02  0.1184000E+00
        -11   -1    0    0    0    0  0.00000000000E+00  0.00000000000E+00  0.45593999997E+02  0.45594000000E+02  0.51100000000E-03 0. -1.
         11   -1    0    0    0    0 -0.00000000000E+00 -0.00000000000E+00 -0.45593999997E+02  0.45594000000E+02  0.51100000000E-03 0.  1.
         23    2    1    2    0    0  0.71054273576E-14 -0.35527136788E-14  0.44408920985E-15  0.91188000000E+02  0.91188000000E+02 0.  0.
    9900012    2    3    3    0    0  0.32782170414E+02 -0.16287193247E+02 -0.39796258121E+01  0.54367071406E+02  0.39999970883E+02 0.  0.
         12    1    3    3    0    0 -0.32782170414E+02  0.16287193247E+02  0.39796258121E+01  0.36820928594E+02  0.00000000000E+00 0. -1.
         11    1    4    4    0    0 -0.13064741397E+01  0.49605415565E+01 -0.79236803417E+01  0.94392032307E+01  0.51100000000E-03 0. -1.
        -11    1    4    4    0    0  0.14882380259E+02 -0.91641322628E+01 -0.80718160188E+01  0.19251513613E+02  0.51100000000E-03 0.  1.
         12    1    4    4    0    0  0.19206264295E+02 -0.12083602541E+02  0.12015870548E+02  0.25676354562E+02  0.00000000000E+00 0. -1.
</event>
<event>
 8    1  0.1253703E-006  0.9118800E+02  0.7816164E-02  0.1184000E+00
        -11   -1    0    0    0    0  0.00000000000E+00  0.00000000000E+00  0.45593999997E+02  0.45594000000E+02  0.51100000000E-03 0.  1.
         11   -1    0    0    0    0 -0.00000000000E+00 -0.00000000000E+00 -0.45593999997E+02  0.45594000000E+02  0.51100000000E-03 0. -1.
         23    2    1    2    0    0  0.17763568394E-14  0.00000000000E+00 -0.71054273576E-14  0.91188000000E+02  0.91188000000E+02 0.  0.
    9900012    2    3    3    0    0  0.99191678883E+01  0.14902919768E+02  0.32175948270E+02  0.54367101637E+02  0.40000039801E+02 0.  0.
         12    1    3    3    0    0 -0.99191678883E+01 -0.14902919768E+02 -0.32175948270E+02  0.36820898363E+02  0.00000000000E+00 0. -1.
         11    1    4    4    0    0  0.19475548051E+01  0.10000396228E+02 -0.25761965497E+01  0.10508933503E+02  0.51100000000E-03 0. -1.
        -11    1    4    4    0    0  0.14940497810E+02 -0.39049749472E+01  0.18414043665E+02  0.24032151558E+02  0.51100000000E-03 0.  1.
         12    1    4    4    0    0 -0.69688847271E+01  0.88074984875E+01  0.16338101154E+02  0.19826016576E+02  0.00000000000E+00 0. -1.
</event>
<event>
 8    1  0.1253703E-006  0.9118800E+02  0.7816164E-02  0.1184000E+00
        -11   -1    0    0    0    0  0.00000000000E+00  0.00000000000E+00  0.45593999997E+02  0.45594000000E+02  0.51100000000E-03 0. -1.
         11   -1    0    0    0    0 -0.00000000000E+00 -0.00000000000E+00 -0.45593999997E+02  0.45594000000E+02  0.51100000000E-03 0.  1.
         23    2    1    2    0    0  0.00000000000E+00  0.35527136788E-14 -0.35527136788E-14  0.91188000000E+02  0.91188000000E+02 0.  0.
    9900012    2    3    3    0    0 -0.26934836328E+02 -0.18984361320E+02  0.16428291809E+02  0.54367079934E+02  0.39999990325E+02 0.  0.
        -12    1    3    3    0    0  0.26934836328E+02  0.18984361320E+02 -0.16428291809E+02  0.36820920066E+02  0.00000000000E+00 0.  1.
         11    1    4    4    0    0 -0.15431233045E+02 -0.14387210842E+02  0.14377924290E+02  0.25531147570E+02  0.51100000000E-03 0. -1.
        -11    1    4    4    0    0 -0.10656720962E+02  0.42994928512E+01  0.11199595990E+02  0.16046254736E+02  0.51100000000E-03 0.  1.
        -12    1    4    4    0    0 -0.84688232113E+00 -0.88966433295E+01 -0.91492284711E+01  0.12789677628E+02  0.00000000000E+00 0.  1.
</event>
<event>
 8    1  0.1253703E-006  0.9118800E+02  0.7816164E-02  0.1184000E+00
        -11   -1    0    0    0    0  0.00000000000E+00  0.00000000000E+00  0.45593999997E+02  0.45594000000E+02  0.51100000000E-03 0.  1.
         11   -1    0    0    0    0 -0.00000000000E+00 -0.00000000000E+00 -0.45593999997E+02  0.45594000000E+02  0.51100000000E-03 0. -1.
         23    2    1    2    0    0  0.00000000000E+00 -0.88817841970E-15 -0.17763568394E-14  0.91188000000E+02  0.91188000000E+02 0.  0.
    9900012    2    3    3    0    0 -0.34029893943E+02 -0.53029465213E+01  0.13024044109E+02  0.54367073225E+02  0.39999975032E+02 0.  0.
         12    1    3    3    0    0  0.34029893943E+02  0.53029465213E+01 -0.13024044109E+02  0.36820926775E+02  0.00000000000E+00 0. -1.
         11    1    4    4    0    0 -0.31888378085E+01  0.83045640755E+01  0.17241946474E+01  0.90613088733E+01  0.51100000000E-03 0. -1.
        -11    1    4    4    0    0  0.33437209491E+01 -0.78735391186E+01  0.54782181616E+01  0.10157950705E+02  0.51100000000E-03 0.  1.
         12    1    4    4    0    0 -0.34184777084E+02 -0.57339714783E+01  0.58216313002E+01  0.35147813647E+02  0.00000000000E+00 0. -1.
</event>
<event>
 8    1  0.1253703E-006  0.9118800E+02  0.7816164E-02  0.1184000E+00
        -11   -1    0    0    0    0  0.00000000000E+00  0.00000000000E+00  0.45593999997E+02  0.45594000000E+02  0.51100000000E-03 0. -1.
         11   -1    0    0    0    0 -0.00000000000E+00 -0.00000000000E+00 -0.45593999997E+02  0.45594000000E+02  0.51100000000E-03 0.  1.
         23    2    1    2    0    0  0.00000000000E+00 -0.17763568394E-14 -0.44408920985E-15  0.91188000000E+02  0.91188000000E+02 0.  0.
    9900012    2    3    3    0    0 -0.35009589752E+02 -0.11188265542E+02 -0.22206690363E+01  0.54367081605E+02  0.39999994135E+02 0.  0.
         12    1    3    3    0    0  0.35009589752E+02  0.11188265542E+02  0.22206690363E+01  0.36820918395E+02  0.00000000000E+00 0. -1.
         11    1    4    4    0    0  0.56284996060E+01  0.45309531085E+01  0.42308032712E+01  0.83731260869E+01  0.51100000000E-03 0. -1.
        -11    1    4    4    0    0 -0.13218984386E+00 -0.30999556764E+01 -0.68845027391E+00  0.31782327466E+01  0.51100000000E-03 0.  1.
        -12    1    4    4    0    0 -0.40505899515E+02 -0.12619262974E+02 -0.57630220336E+01  0.42815722772E+02  0.00000000000E+00 0.  1.
</event>
<event>
 8    1  0.1253703E-006  0.9118800E+02  0.7816164E-02  0.1184000E+00
        -11   -1    0    0    0    0  0.00000000000E+00  0.00000000000E+00  0.45593999997E+02  0.45594000000E+02  0.51100000000E-03 0.  1.
         11   -1    0    0    0    0 -0.00000000000E+00 -0.00000000000E+00 -0.45593999997E+02  0.45594000000E+02  0.51100000000E-03 0. -1.
         23    2    1    2    0    0  0.35527136788E-14  0.17763568394E-14 -0.35527136788E-14  0.91188000000E+02  0.91188000000E+02 0.  0.
    9900012    2    3    3    0    0  0.28507785562E+02  0.92718972329E+01 -0.21380313248E+02  0.54367085963E+02  0.40000004069E+02 0.  0.
        -12    1    3    3    0    0 -0.28507785562E+02 -0.92718972329E+01  0.21380313248E+02  0.36820914037E+02  0.00000000000E+00 0.  1.
         11    1    4    4    0    0  0.15257420299E+02 -0.31400836280E+01 -0.18957623482E+02  0.24536513357E+02  0.51100000000E-03 0. -1.
        -11    1    4    4    0    0  0.92606131317E+01  0.11381640613E+02 -0.12288263827E+02  0.19139021050E+02  0.51100000000E-03 0.  1.
        -12    1    4    4    0    0  0.39897521319E+01  0.10303402479E+01  0.98655740615E+01  0.10691551555E+02  0.00000000000E+00 0.  1.
</event>
<event>
 8    1  0.1253703E-006  0.9118800E+02  0.7816164E-02  0.1184000E+00
        -11   -1    0    0    0    0  0.00000000000E+00  0.00000000000E+00  0.45593999997E+02  0.45594000000E+02  0.51100000000E-03 0.  1.
         11   -1    0    0    0    0 -0.00000000000E+00 -0.00000000000E+00 -0.45593999997E+02  0.45594000000E+02  0.51100000000E-03 0. -1.
         23    2    1    2    0    0  0.00000000000E+00  0.00000000000E+00 -0.35527136788E-14  0.91188000000E+02  0.91188000000E+02 0.  0.
    9900012    2    3    3    0    0 -0.82630518681E+01 -0.18392936408E+02 -0.30809126586E+02  0.54367076371E+02  0.39999982203E+02 0.  0.
        -12    1    3    3    0    0  0.82630518681E+01  0.18392936408E+02  0.30809126586E+02  0.36820923629E+02  0.00000000000E+00 0.  1.
         11    1    4    4    0    0  0.12520566029E+02 -0.27432002921E+01 -0.53515968588E+01  0.13889899594E+02  0.51100000000E-03 0. -1.
        -11    1    4    4    0    0 -0.11620101814E+02 -0.13415029079E+02 -0.57961418152E+01  0.18670432013E+02  0.51100000000E-03 0.  1.
         12    1    4    4    0    0 -0.91635160838E+01 -0.22347070372E+01 -0.19661387912E+02  0.21806744764E+02  0.00000000000E+00 0. -1.
</event>
<event>
 8    1  0.1253703E-006  0.9118800E+02  0.7816164E-02  0.1184000E+00
        -11   -1    0    0    0    0  0.00000000000E+00  0.00000000000E+00  0.45593999997E+02  0.45594000000E+02  0.51100000000E-03 0.  1.
         11   -1    0    0    0    0 -0.00000000000E+00 -0.00000000000E+00 -0.45593999997E+02  0.45594000000E+02  0.51100000000E-03 0. -1.
         23    2    1    2    0    0  0.00000000000E+00 -0.17763568394E-14 -0.17763568394E-14  0.91188000000E+02  0.91188000000E+02 0.  0.
    9900012    2    3    3    0    0 -0.31137078741E+02 -0.12695610765E+02  0.15002770377E+02  0.54367091209E+02  0.40000016029E+02 0.  0.
         12    1    3    3    0    0  0.31137078741E+02  0.12695610765E+02 -0.15002770377E+02  0.36820908791E+02  0.00000000000E+00 0. -1.
         11    1    4    4    0    0  0.16868989313E+01  0.51994323319E+01 -0.19018774215E+01  0.57876474120E+01  0.51100000000E-03 0. -1.
        -11    1    4    4    0    0 -0.20036055310E+02 -0.63026458604E+01  0.22164344032E+02  0.30535634984E+02  0.51100000000E-03 0.  1.
        -12    1    4    4    0    0 -0.12787922362E+02 -0.11592397236E+02 -0.52596962331E+01  0.18043808813E+02  0.00000000000E+00 0.  1.
</event>
<event>
 8    1  0.1253703E-006  0.9118800E+02  0.7816164E-02  0.1184000E+00
        -11   -1    0    0    0    0  0.00000000000E+00  0.00000000000E+00  0.45593999997E+02  0.45594000000E+02  0.51100000000E-03 0.  1.
         11   -1    0    0    0    0 -0.00000000000E+00 -0.00000000000E+00 -0.45593999997E+02  0.45594000000E+02  0.51100000000E-03 0. -1.
         23    2    1    2    0    0  0.17763568394E-14  0.13322676296E-14 -0.71054273576E-14  0.91188000000E+02  0.91188000000E+02 0.  0.
    9900012    2    3    3    0    0  0.15194147983E+02 -0.32712723626E+01 -0.33379866314E+02  0.54367097907E+02  0.40000031298E+02 0.  0.
        -12    1    3    3    0    0 -0.15194147983E+02  0.32712723626E+01  0.33379866314E+02  0.36820902093E+02  0.00000000000E+00 0.  1.
         11    1    4    4    0    0 -0.59441044976E+01  0.10156920073E+02 -0.93714826242E+01  0.15043938663E+02  0.51100000000E-03 0. -1.
        -11    1    4    4    0    0 -0.13034162274E+01 -0.75873711160E+01 -0.39017202434E+01  0.86307888070E+01  0.51100000000E-03 0.  1.
         12    1    4    4    0    0  0.22441668708E+02 -0.58408213201E+01 -0.20106663447E+02  0.30692370437E+02  0.00000000000E+00 0. -1.
</event>
<event>
 8    1  0.1253703E-006  0.9118800E+02  0.7816164E-02  0.1184000E+00
        -11   -1    0    0    0    0  0.00000000000E+00  0.00000000000E+00  0.45593999997E+02  0.45594000000E+02  0.51100000000E-03 0.  1.
         11   -1    0    0    0    0 -0.00000000000E+00 -0.00000000000E+00 -0.45593999997E+02  0.45594000000E+02  0.51100000000E-03 0. -1.
         23    2    1    2    0    0  0.00000000000E+00  0.00000000000E+00  0.71054273576E-14  0.91188000000E+02  0.91188000000E+02 0.  0.
    9900012    2    3    3    0    0  0.19548860536E+02  0.73618225792E+01 -0.30322029423E+02  0.54367084093E+02  0.39999999807E+02 0.  0.
        -12    1    3    3    0    0 -0.19548860536E+02 -0.73618225792E+01  0.30322029423E+02  0.36820915907E+02  0.00000000000E+00 0.  1.
         11    1    4    4    0    0  0.11508775807E+02  0.18813286101E+01 -0.36029350043E+02  0.37869583872E+02  0.51100000000E-03 0. -1.
        -11    1    4    4    0    0  0.92203172292E+01  0.42920756631E+01  0.84909251715E+01  0.13248848019E+02  0.51100000000E-03 0.  1.
         12    1    4    4    0    0 -0.11802325009E+01  0.11884183060E+01 -0.27836045516E+01  0.32486522014E+01  0.00000000000E+00 0. -1.
</event>
<event>
 8    1  0.1253703E-006  0.9118800E+02  0.7816164E-02  0.1184000E+00
        -11   -1    0    0    0    0  0.00000000000E+00  0.00000000000E+00  0.45593999997E+02  0.45594000000E+02  0.51100000000E-03 0. -1.
         11   -1    0    0    0    0 -0.00000000000E+00 -0.00000000000E+00 -0.45593999997E+02  0.45594000000E+02  0.51100000000E-03 0.  1.
         23    2    1    2    0    0 -0.35527136788E-14  0.00000000000E+00  0.00000000000E+00  0.91188000000E+02  0.91188000000E+02 0.  0.
    9900012    2    3    3    0    0 -0.17256981541E+02  0.13491421827E+02  0.29596657534E+02  0.54367027552E+02  0.39999870910E+02 0.  0.
        -12    1    3    3    0    0  0.17256981541E+02 -0.13491421827E+02 -0.29596657534E+02  0.36820972448E+02  0.00000000000E+00 0.  1.
         11    1    4    4    0    0 -0.14914840130E+02 -0.76688483051E+01  0.10872537113E+02  0.19986889552E+02  0.51100000000E-03 0. -1.
        -11    1    4    4    0    0 -0.10829742521E+02  0.96003738831E+01  0.10051200532E+02  0.17620361351E+02  0.51100000000E-03 0.  1.
        -12    1    4    4    0    0  0.84876011100E+01  0.11559896249E+02  0.86729198893E+01  0.16759776648E+02  0.00000000000E+00 0.  1.
</event>
<event>
 8    1  0.1253703E-006  0.9118800E+02  0.7816164E-02  0.1184000E+00
        -11   -1    0    0    0    0  0.00000000000E+00  0.00000000000E+00  0.45593999997E+02  0.45594000000E+02  0.51100000000E-03 0. -1.
         11   -1    0    0    0    0 -0.00000000000E+00 -0.00000000000E+00 -0.45593999997E+02  0.45594000000E+02  0.51100000000E-03 0.  1.
         23    2    1    2    0    0  0.00000000000E+00  0.00000000000E+00  0.88817841970E-15  0.91188000000E+02  0.91188000000E+02 0.  0.
    9900012    2    3    3    0    0  0.13304436520E+02 -0.33547283480E+02  0.73042324370E+01  0.54367081061E+02  0.39999992894E+02 0.  0.
        -12    1    3    3    0    0 -0.13304436520E+02  0.33547283480E+02 -0.73042324370E+01  0.36820918939E+02  0.00000000000E+00 0.  1.
         11    1    4    4    0    0  0.55536950856E+01  0.46803967800E+01  0.50875275408E+01  0.88675013314E+01  0.51100000000E-03 0. -1.
        -11    1    4    4    0    0 -0.11084050257E+01 -0.13511245983E+01 -0.63771882059E+01  0.66123089051E+01  0.51100000000E-03 0.  1.
         12    1    4    4    0    0  0.88591464604E+01 -0.36876555662E+02  0.85938931022E+01  0.38887270824E+02  0.00000000000E+00 0. -1.
</event>
<event>
 8    1  0.1253703E-006  0.9118800E+02  0.7816164E-02  0.1184000E+00
        -11   -1    0    0    0    0  0.00000000000E+00  0.00000000000E+00  0.45593999997E+02  0.45594000000E+02  0.51100000000E-03 0. -1.
         11   -1    0    0    0    0 -0.00000000000E+00 -0.00000000000E+00 -0.45593999997E+02  0.45594000000E+02  0.51100000000E-03 0.  1.
         23    2    1    2    0    0  0.00000000000E+00  0.71054273576E-14 -0.15543122345E-14  0.91188000000E+02  0.91188000000E+02 0.  0.
    9900012    2    3    3    0    0 -0.11695732848E+02  0.34911385204E+02 -0.42984076383E+00  0.54367085471E+02  0.40000002947E+02 0.  0.
         12    1    3    3    0    0  0.11695732848E+02 -0.34911385204E+02  0.42984076383E+00  0.36820914529E+02  0.00000000000E+00 0. -1.
         11    1    4    4    0    0  0.30747943576E+01  0.76674823643E+01  0.25227699833E+01  0.86376510000E+01  0.51100000000E-03 0. -1.
        -11    1    4    4    0    0  0.19268789612E+01 -0.37202222011E+01  0.78762471380E+01  0.89212210485E+01  0.51100000000E-03 0.  1.
        -12    1    4    4    0    0 -0.16697406167E+02  0.30964125041E+02 -0.10828857885E+02  0.36808213422E+02  0.00000000000E+00 0.  1.
</event>
<event>
 8    1  0.1253703E-006  0.9118800E+02  0.7816164E-02  0.1184000E+00
        -11   -1    0    0    0    0  0.00000000000E+00  0.00000000000E+00  0.45593999997E+02  0.45594000000E+02  0.51100000000E-03 0.  1.
         11   -1    0    0    0    0 -0.00000000000E+00 -0.00000000000E+00 -0.45593999997E+02  0.45594000000E+02  0.51100000000E-03 0. -1.
         23    2    1    2    0    0  0.00000000000E+00  0.00000000000E+00  0.71054273576E-14  0.91188000000E+02  0.91188000000E+02 0.  0.
    9900012    2    3    3    0    0  0.76487923723E+01 -0.19141258260E+02  0.30510388478E+02  0.54367141813E+02  0.40000131391E+02 0.  0.
         12    1    3    3    0    0 -0.76487923723E+01  0.19141258260E+02 -0.30510388478E+02  0.36820858187E+02  0.00000000000E+00 0. -1.
         11    1    4    4    0    0 -0.11823772757E+02 -0.77066999112E+01  0.27774919649E+02  0.31155111739E+02  0.51100000000E-03 0. -1.
        -11    1    4    4    0    0  0.45139429667E+01 -0.29238565631E+01  0.26636526913E+01  0.60016384621E+01  0.51100000000E-03 0.  1.
         12    1    4    4    0    0  0.14958622162E+02 -0.85107017858E+01  0.71816137852E-01  0.17210391612E+02  0.00000000000E+00 0. -1.
</event>
<event>
 8    1  0.1253703E-006  0.9118800E+02  0.7816164E-02  0.1184000E+00
        -11   -1    0    0    0    0  0.00000000000E+00  0.00000000000E+00  0.45593999997E+02  0.45594000000E+02  0.51100000000E-03 0.  1.
         11   -1    0    0    0    0 -0.00000000000E+00 -0.00000000000E+00 -0.45593999997E+02  0.45594000000E+02  0.51100000000E-03 0. -1.
         23    2    1    2    0    0  0.00000000000E+00  0.00000000000E+00  0.17763568394E-14  0.91188000000E+02  0.91188000000E+02 0.  0.
    9900012    2    3    3    0    0 -0.19345750179E+02  0.30990872071E+02  0.45922891106E+01  0.54367064094E+02  0.39999954215E+02 0.  0.
        -12    1    3    3    0    0  0.19345750179E+02 -0.30990872071E+02 -0.45922891106E+01  0.36820935906E+02  0.00000000000E+00 0.  1.
         11    1    4    4    0    0  0.35462338824E+01  0.10118139666E+02 -0.96599604518E+01  0.14431471209E+02  0.51100000000E-03 0. -1.
        -11    1    4    4    0    0 -0.19637729213E+02  0.21874320752E+02  0.46678131986E+01  0.29764320878E+02  0.51100000000E-03 0.  1.
        -12    1    4    4    0    0 -0.32542548483E+01 -0.10015883470E+01  0.95844363638E+01  0.10171272007E+02  0.00000000000E+00 0.  1.
</event>
<event>
 8    1  0.1253703E-006  0.9118800E+02  0.7816164E-02  0.1184000E+00
        -11   -1    0    0    0    0  0.00000000000E+00  0.00000000000E+00  0.45593999997E+02  0.45594000000E+02  0.51100000000E-03 0. -1.
         11   -1    0    0    0    0 -0.00000000000E+00 -0.00000000000E+00 -0.45593999997E+02  0.45594000000E+02  0.51100000000E-03 0.  1.
         23    2    1    2    0    0 -0.17763568394E-14 -0.12212453271E-14  0.71054273576E-14  0.91188000000E+02  0.91188000000E+02 0.  0.
    9900012    2    3    3    0    0  0.15673553186E+02  0.42374580102E+00 -0.33315758603E+02  0.54367087446E+02  0.40000007451E+02 0.  0.
         12    1    3    3    0    0 -0.15673553186E+02 -0.42374580102E+00  0.33315758603E+02  0.36820912554E+02  0.00000000000E+00 0. -1.
         11    1    4    4    0    0  0.42747738377E+01 -0.10844936351E+02  0.23681338418E+01  0.11895141612E+02  0.51100000000E-03 0. -1.
        -11    1    4    4    0    0  0.22234606474E+01  0.13100671387E+02 -0.17008121248E+02  0.21583501956E+02  0.51100000000E-03 0.  1.
        -12    1    4    4    0    0  0.91753187012E+01 -0.18319892348E+01 -0.18675771197E+02  0.20888443878E+02  0.00000000000E+00 0.  1.
</event>
<event>
 8    1  0.1253703E-006  0.9118800E+02  0.7816164E-02  0.1184000E+00
        -11   -1    0    0    0    0  0.00000000000E+00  0.00000000000E+00  0.45593999997E+02  0.45594000000E+02  0.51100000000E-03 0.  1.
         11   -1    0    0    0    0 -0.00000000000E+00 -0.00000000000E+00 -0.45593999997E+02  0.45594000000E+02  0.51100000000E-03 0. -1.
         23    2    1    2    0    0  0.00000000000E+00  0.00000000000E+00 -0.35527136788E-14  0.91188000000E+02  0.91188000000E+02 0.  0.
    9900012    2    3    3    0    0  0.21938833871E+02 -0.65501943207E+01 -0.28836827952E+02  0.54367080354E+02  0.39999991283E+02 0.  0.
        -12    1    3    3    0    0 -0.21938833871E+02  0.65501943207E+01  0.28836827952E+02  0.36820919646E+02  0.00000000000E+00 0.  1.
         11    1    4    4    0    0 -0.50205133128E+01  0.89385350487E+01 -0.12670864030E+02  0.16298888253E+02  0.51100000000E-03 0.  1.
        -11    1    4    4    0    0  0.20572804495E+02 -0.90947671810E+01 -0.38944553712E+01  0.22828093608E+02  0.51100000000E-03 0. -1.
        -12    1    4    4    0    0  0.63865426888E+01 -0.63939621883E+01 -0.12271508551E+02  0.15240098494E+02  0.00000000000E+00 0.  1.
</event>
<event>
 8    1  0.1253703E-006  0.9118800E+02  0.7816164E-02  0.1184000E+00
        -11   -1    0    0    0    0  0.00000000000E+00  0.00000000000E+00  0.45593999997E+02  0.45594000000E+02  0.51100000000E-03 0.  1.
         11   -1    0    0    0    0 -0.00000000000E+00 -0.00000000000E+00 -0.45593999997E+02  0.45594000000E+02  0.51100000000E-03 0. -1.
         23    2    1    2    0    0 -0.35527136788E-14  0.00000000000E+00 -0.22204460493E-15  0.91188000000E+02  0.91188000000E+02 0.  0.
    9900012    2    3    3    0    0 -0.16692644146E+02 -0.32785027330E+02  0.15097505509E+01  0.54367058508E+02  0.39999941481E+02 0.  0.
        -12    1    3    3    0    0  0.16692644146E+02  0.32785027330E+02 -0.15097505509E+01  0.36820941492E+02  0.00000000000E+00 0.  1.
         11    1    4    4    0    0 -0.84360002037E+01 -0.25480306797E+02  0.22661631713E+01  0.26935991344E+02  0.51100000000E-03 0. -1.
        -11    1    4    4    0    0  0.41351906249E+01 -0.13055054388E+02  0.56722275468E+00  0.13706056635E+02  0.51100000000E-03 0.  1.
        -12    1    4    4    0    0 -0.12391834568E+02  0.57503338555E+01 -0.13236353751E+01  0.13725010529E+02  0.00000000000E+00 0.  1.
</event>
<event>
 8    1  0.1253703E-006  0.9118800E+02  0.7816164E-02  0.1184000E+00
        -11   -1    0    0    0    0  0.00000000000E+00  0.00000000000E+00  0.45593999997E+02  0.45594000000E+02  0.51100000000E-03 0. -1.
         11   -1    0    0    0    0 -0.00000000000E+00 -0.00000000000E+00 -0.45593999997E+02  0.45594000000E+02  0.51100000000E-03 0.  1.
         23    2    1    2    0    0  0.00000000000E+00  0.39968028887E-14  0.00000000000E+00  0.91188000000E+02  0.91188000000E+02 0.  0.
    9900012    2    3    3    0    0  0.30329034636E+02  0.27269680114E+01 -0.20700327953E+02  0.54366942521E+02  0.39999677064E+02 0.  0.
         12    1    3    3    0    0 -0.30329034636E+02 -0.27269680114E+01  0.20700327953E+02  0.36821057479E+02  0.00000000000E+00 0. -1.
         11    1    4    4    0    0  0.40502952459E+01 -0.12167557951E+00 -0.11926143193E+02  0.12595736907E+02  0.51100000000E-03 0. -1.
        -11    1    4    4    0    0  0.13928265875E+02  0.16022085941E+02  0.97082211018E+00  0.21251972238E+02  0.51100000000E-03 0.  1.
        -12    1    4    4    0    0  0.12350473515E+02 -0.13173442350E+02 -0.97450068705E+01  0.20519233375E+02  0.00000000000E+00 0.  1.
</event>
<event>
 8    1  0.1253703E-006  0.9118800E+02  0.7816164E-02  0.1184000E+00
        -11   -1    0    0    0    0  0.00000000000E+00  0.00000000000E+00  0.45593999997E+02  0.45594000000E+02  0.51100000000E-03 0. -1.
         11   -1    0    0    0    0 -0.00000000000E+00 -0.00000000000E+00 -0.45593999997E+02  0.45594000000E+02  0.51100000000E-03 0.  1.
         23    2    1    2    0    0  0.00000000000E+00 -0.17763568394E-14  0.00000000000E+00  0.91188000000E+02  0.91188000000E+02 0.  0.
    9900012    2    3    3    0    0 -0.27001025987E+02  0.12869442475E+02  0.21473319830E+02  0.54367062770E+02  0.39999951196E+02 0.  0.
        -12    1    3    3    0    0  0.27001025987E+02 -0.12869442475E+02 -0.21473319830E+02  0.36820937230E+02  0.00000000000E+00 0.  1.
         11    1    4    4    0    0 -0.88422999215E+01 -0.30511960714E+01  0.38662290096E+01  0.10121452089E+02  0.51100000000E-03 0. -1.
        -11    1    4    4    0    0  0.16653367718E+01 -0.85713434413E+01  0.15056587485E+01  0.88604900248E+01  0.51100000000E-03 0.  1.
         12    1    4    4    0    0 -0.19824062838E+02  0.24491981988E+02  0.16101432072E+02  0.35385120656E+02  0.00000000000E+00 0. -1.
</event>
<event>
 8    1  0.1253703E-006  0.9118800E+02  0.7816164E-02  0.1184000E+00
        -11   -1    0    0    0    0  0.00000000000E+00  0.00000000000E+00  0.45593999997E+02  0.45594000000E+02  0.51100000000E-03 0.  1.
         11   -1    0    0    0    0 -0.00000000000E+00 -0.00000000000E+00 -0.45593999997E+02  0.45594000000E+02  0.51100000000E-03 0. -1.
         23    2    1    2    0    0  0.00000000000E+00  0.00000000000E+00  0.00000000000E+00  0.91188000000E+02  0.91188000000E+02 0.  0.
    9900012    2    3    3    0    0  0.32498820957E+02  0.56863400868E+01 -0.16348423918E+02  0.54367098439E+02  0.40000032511E+02 0.  0.
        -12    1    3    3    0    0 -0.32498820957E+02 -0.56863400868E+01  0.16348423918E+02  0.36820901561E+02  0.00000000000E+00 0.  1.
         11    1    4    4    0    0 -0.26224092683E+01  0.43731932316E+01  0.34185938473E+01  0.61391069029E+01  0.51100000000E-03 0.  1.
        -11    1    4    4    0    0 -0.38556803370E+01 -0.22263965267E+01 -0.16290975805E+00  0.44552948506E+01  0.51100000000E-03 0. -1.
        -12    1    4    4    0    0  0.38976910562E+02  0.35395433819E+01 -0.19604108007E+02  0.43772696685E+02  0.00000000000E+00 0.  1.
</event>
<event>
 8    1  0.1253703E-006  0.9118800E+02  0.7816164E-02  0.1184000E+00
        -11   -1    0    0    0    0  0.00000000000E+00  0.00000000000E+00  0.45593999997E+02  0.45594000000E+02  0.51100000000E-03 0. -1.
         11   -1    0    0    0    0 -0.00000000000E+00 -0.00000000000E+00 -0.45593999997E+02  0.45594000000E+02  0.51100000000E-03 0.  1.
         23    2    1    2    0    0 -0.88817841970E-15  0.00000000000E+00  0.00000000000E+00  0.91188000000E+02  0.91188000000E+02 0.  0.
    9900012    2    3    3    0    0  0.61873301467E+01  0.21571147291E+02  0.29192241871E+02  0.54367021805E+02  0.39999857808E+02 0.  0.
        -12    1    3    3    0    0 -0.61873301467E+01 -0.21571147291E+02 -0.29192241871E+02  0.36820978195E+02  0.00000000000E+00 0.  1.
         11    1    4    4    0    0  0.28101897442E+01 -0.97355648072E+01  0.27268700889E+01  0.10493531782E+02  0.51100000000E-03 0.  1.
        -11    1    4    4    0    0  0.45997393514E+00  0.25061362531E+02  0.11873855173E+02  0.27735751384E+02  0.51100000000E-03 0. -1.
        -12    1    4    4    0    0  0.29171664673E+01  0.62453495669E+01  0.14591516609E+02  0.16137738639E+02  0.00000000000E+00 0.  1.
</event>
<event>
 8    1  0.1253703E-006  0.9118800E+02  0.7816164E-02  0.1184000E+00
        -11   -1    0    0    0    0  0.00000000000E+00  0.00000000000E+00  0.45593999997E+02  0.45594000000E+02  0.51100000000E-03 0.  1.
         11   -1    0    0    0    0 -0.00000000000E+00 -0.00000000000E+00 -0.45593999997E+02  0.45594000000E+02  0.51100000000E-03 0. -1.
         23    2    1    2    0    0 -0.71054273576E-14  0.00000000000E+00 -0.11102230246E-15  0.91188000000E+02  0.91188000000E+02 0.  0.
    9900012    2    3    3    0    0 -0.36148206180E+02  0.69409177091E+01  0.95423243748E+00  0.54367085994E+02  0.40000004140E+02 0.  0.
         12    1    3    3    0    0  0.36148206180E+02 -0.69409177091E+01 -0.95423243748E+00  0.36820914006E+02  0.00000000000E+00 0. -1.
         11    1    4    4    0    0 -0.94184163325E+01  0.10157690128E+02 -0.14158327206E+02  0.19807661762E+02  0.51100000000E-03 0. -1.
        -11    1    4    4    0    0 -0.13984713038E+02  0.61354272062E+01  0.75043242690E+01  0.17015597220E+02  0.51100000000E-03 0.  1.
         12    1    4    4    0    0 -0.12745076810E+02 -0.93521996250E+01  0.76082353742E+01  0.17543827012E+02  0.00000000000E+00 0. -1.
</event>
<event>
 8    1  0.1253703E-006  0.9118800E+02  0.7816164E-02  0.1184000E+00
        -11   -1    0    0    0    0  0.00000000000E+00  0.00000000000E+00  0.45593999997E+02  0.45594000000E+02  0.51100000000E-03 0.  1.
         11   -1    0    0    0    0 -0.00000000000E+00 -0.00000000000E+00 -0.45593999997E+02  0.45594000000E+02  0.51100000000E-03 0. -1.
         23    2    1    2    0    0 -0.88817841970E-15  0.35527136788E-14  0.00000000000E+00  0.91188000000E+02  0.91188000000E+02 0.  0.
    9900012    2    3    3    0    0  0.44368427308E+01 -0.25663457655E+02  0.26028466568E+02  0.54367086050E+02  0.40000004269E+02 0.  0.
         12    1    3    3    0    0 -0.44368427308E+01  0.25663457655E+02 -0.26028466568E+02  0.36820913950E+02  0.00000000000E+00 0. -1.
         11    1    4    4    0    0 -0.72747300456E+01 -0.31989999845E+01  0.81195021140E+00  0.79884016889E+01  0.51100000000E-03 0. -1.
        -11    1    4    4    0    0  0.24691867891E+01 -0.24677603780E+02  0.68989899043E+01  0.25742514906E+02  0.51100000000E-03 0.  1.
        -12    1    4    4    0    0  0.92423859872E+01  0.22131461101E+01  0.18317526452E+02  0.20636169455E+02  0.00000000000E+00 0.  1.
</event>
<event>
 8    1  0.1253703E-006  0.9118800E+02  0.7816164E-02  0.1184000E+00
        -11   -1    0    0    0    0  0.00000000000E+00  0.00000000000E+00  0.45593999997E+02  0.45594000000E+02  0.51100000000E-03 0.  1.
         11   -1    0    0    0    0 -0.00000000000E+00 -0.00000000000E+00 -0.45593999997E+02  0.45594000000E+02  0.51100000000E-03 0. -1.
         23    2    1    2    0    0  0.00000000000E+00  0.35527136788E-14  0.35527136788E-14  0.91188000000E+02  0.91188000000E+02 0.  0.
    9900012    2    3    3    0    0  0.92615696275E+01 -0.19816092455E+02 -0.29619685824E+02  0.54367082297E+02  0.39999995714E+02 0.  0.
        -12    1    3    3    0    0 -0.92615696275E+01  0.19816092455E+02  0.29619685824E+02  0.36820917703E+02  0.00000000000E+00 0.  1.
         11    1    4    4    0    0  0.68681445171E+01 -0.15665459440E+02 -0.33130773260E+02  0.37285736759E+02  0.51100000000E-03 0. -1.
        -11    1    4    4    0    0  0.62070762729E+01 -0.80087470535E+01 -0.78291592495E+00  0.10162715328E+02  0.51100000000E-03 0.  1.
        -12    1    4    4    0    0 -0.38136511625E+01  0.38581140384E+01  0.42940033616E+01  0.69186302107E+01  0.00000000000E+00 0.  1.
</event>
<event>
 8    1  0.1253703E-006  0.9118800E+02  0.7816164E-02  0.1184000E+00
        -11   -1    0    0    0    0  0.00000000000E+00  0.00000000000E+00  0.45593999997E+02  0.45594000000E+02  0.51100000000E-03 0.  1.
         11   -1    0    0    0    0 -0.00000000000E+00 -0.00000000000E+00 -0.45593999997E+02  0.45594000000E+02  0.51100000000E-03 0. -1.
         23    2    1    2    0    0  0.35527136788E-14  0.00000000000E+00  0.00000000000E+00  0.91188000000E+02  0.91188000000E+02 0.  0.
    9900012    2    3    3    0    0  0.82240027440E+01 -0.33641638477E+02  0.12505472054E+02  0.54367069922E+02  0.39999967500E+02 0.  0.
        -12    1    3    3    0    0 -0.82240027440E+01  0.33641638477E+02 -0.12505472054E+02  0.36820930078E+02  0.00000000000E+00 0.  1.
         11    1    4    4    0    0 -0.15084319074E+02 -0.16697391089E+02  0.42879205875E+01  0.22906894472E+02  0.51100000000E-03 0. -1.
        -11    1    4    4    0    0  0.55684368465E+01 -0.40059274862E+01  0.64771854463E+01  0.94344515212E+01  0.51100000000E-03 0.  1.
         12    1    4    4    0    0  0.17739884972E+02 -0.12938319901E+02  0.17403660206E+01  0.22025723928E+02  0.00000000000E+00 0. -1.
</event>
<event>
 8    1  0.1253703E-006  0.9118800E+02  0.7816164E-02  0.1184000E+00
        -11   -1    0    0    0    0  0.00000000000E+00  0.00000000000E+00  0.45593999997E+02  0.45594000000E+02  0.51100000000E-03 0.  1.
         11   -1    0    0    0    0 -0.00000000000E+00 -0.00000000000E+00 -0.45593999997E+02  0.45594000000E+02  0.51100000000E-03 0. -1.
         23    2    1    2    0    0 -0.44408920985E-15  0.00000000000E+00  0.00000000000E+00  0.91188000000E+02  0.91188000000E+02 0.  0.
    9900012    2    3    3    0    0 -0.27473113629E+01 -0.24133657404E+02  0.27673020067E+02  0.54367120339E+02  0.40000082436E+02 0.  0.
         12    1    3    3    0    0  0.27473113629E+01  0.24133657404E+02 -0.27673020067E+02  0.36820879661E+02  0.00000000000E+00 0. -1.
         11    1    4    4    0    0 -0.54357530196E+01 -0.19492937610E+01  0.57403774351E+01  0.81424253399E+01  0.51100000000E-03 0. -1.
        -11    1    4    4    0    0 -0.80233153120E+01 -0.26516688834E+02  0.95882152617E+01  0.29316245454E+02  0.51100000000E-03 0.  1.
         12    1    4    4    0    0  0.10711756969E+02  0.43323251915E+01  0.12344427370E+02  0.16908449545E+02  0.00000000000E+00 0. -1.
</event>
<event>
 8    1  0.1253703E-006  0.9118800E+02  0.7816164E-02  0.1184000E+00
        -11   -1    0    0    0    0  0.00000000000E+00  0.00000000000E+00  0.45593999997E+02  0.45594000000E+02  0.51100000000E-03 0.  1.
         11   -1    0    0    0    0 -0.00000000000E+00 -0.00000000000E+00 -0.45593999997E+02  0.45594000000E+02  0.51100000000E-03 0. -1.
         23    2    1    2    0    0  0.00000000000E+00  0.00000000000E+00  0.00000000000E+00  0.91188000000E+02  0.91188000000E+02 0.  0.
    9900012    2    3    3    0    0 -0.89930709138E+01 -0.12332051344E+02 -0.33508576519E+02  0.54367088616E+02  0.40000010118E+02 0.  0.
        -12    1    3    3    0    0  0.89930709138E+01  0.12332051344E+02  0.33508576519E+02  0.36820911384E+02  0.00000000000E+00 0.  1.
         11    1    4    4    0    0 -0.62182292599E+01  0.37515768793E+01 -0.26119333080E+02  0.27110150590E+02  0.51100000000E-03 0. -1.
        -11    1    4    4    0    0  0.21626758996E+01  0.38458229840E+01 -0.48691901974E+01  0.65708853977E+01  0.51100000000E-03 0.  1.
         12    1    4    4    0    0 -0.49375175535E+01 -0.19929451207E+02 -0.25200532418E+01  0.20686052629E+02  0.00000000000E+00 0. -1.
</event>
<event>
 8    1  0.1253703E-006  0.9118800E+02  0.7816164E-02  0.1184000E+00
        -11   -1    0    0    0    0  0.00000000000E+00  0.00000000000E+00  0.45593999997E+02  0.45594000000E+02  0.51100000000E-03 0.  1.
         11   -1    0    0    0    0 -0.00000000000E+00 -0.00000000000E+00 -0.45593999997E+02  0.45594000000E+02  0.51100000000E-03 0. -1.
         23    2    1    2    0    0  0.35527136788E-14  0.00000000000E+00  0.00000000000E+00  0.91188000000E+02  0.91188000000E+02 0.  0.
    9900012    2    3    3    0    0 -0.26194821798E+02 -0.10122413147E+02  0.23814868783E+02  0.54367083226E+02  0.39999997830E+02 0.  0.
         12    1    3    3    0    0  0.26194821798E+02  0.10122413147E+02 -0.23814868783E+02  0.36820916774E+02  0.00000000000E+00 0. -1.
         11    1    4    4    0    0 -0.27750558549E+01 -0.76085807310E+01 -0.70914807596E+01  0.10764782179E+02  0.51100000000E-03 0. -1.
        -11    1    4    4    0    0 -0.18387576793E+02 -0.68564091774E+01  0.10744700772E+02  0.22373241206E+02  0.51100000000E-03 0.  1.
        -12    1    4    4    0    0 -0.50321891502E+01  0.43425767617E+01  0.20161648770E+02  0.21229059840E+02  0.00000000000E+00 0.  1.
</event>
<event>
 8    1  0.1253703E-006  0.9118800E+02  0.7816164E-02  0.1184000E+00
        -11   -1    0    0    0    0  0.00000000000E+00  0.00000000000E+00  0.45593999997E+02  0.45594000000E+02  0.51100000000E-03 0.  1.
         11   -1    0    0    0    0 -0.00000000000E+00 -0.00000000000E+00 -0.45593999997E+02  0.45594000000E+02  0.51100000000E-03 0. -1.
         23    2    1    2    0    0  0.00000000000E+00  0.00000000000E+00  0.35527136788E-14  0.91188000000E+02  0.91188000000E+02 0.  0.
    9900012    2    3    3    0    0 -0.30729526739E+02  0.65651511337E+01  0.19193071366E+02  0.54367095456E+02  0.40000025711E+02 0.  0.
         12    1    3    3    0    0  0.30729526739E+02 -0.65651511337E+01 -0.19193071366E+02  0.36820904544E+02  0.00000000000E+00 0. -1.
         11    1    4    4    0    0 -0.12088289290E+02  0.14691437767E+02  0.14820326286E+01  0.19083016077E+02  0.51100000000E-03 0. -1.
        -11    1    4    4    0    0 -0.31212394594E+01  0.19370370620E+01  0.16327193620E+02  0.16735336869E+02  0.51100000000E-03 0.  1.
         12    1    4    4    0    0 -0.15519997989E+02 -0.10063323695E+02  0.13838451166E+01  0.18548742510E+02  0.00000000000E+00 0. -1.
</event>
<event>
 8    1  0.1253703E-006  0.9118800E+02  0.7816164E-02  0.1184000E+00
        -11   -1    0    0    0    0  0.00000000000E+00  0.00000000000E+00  0.45593999997E+02  0.45594000000E+02  0.51100000000E-03 0.  1.
         11   -1    0    0    0    0 -0.00000000000E+00 -0.00000000000E+00 -0.45593999997E+02  0.45594000000E+02  0.51100000000E-03 0. -1.
         23    2    1    2    0    0  0.00000000000E+00  0.35527136788E-14  0.00000000000E+00  0.91188000000E+02  0.91188000000E+02 0.  0.
    9900012    2    3    3    0    0  0.18938506358E+02 -0.17047221090E+02 -0.26580141449E+02  0.54367099829E+02  0.40000035681E+02 0.  0.
        -12    1    3    3    0    0 -0.18938506358E+02  0.17047221090E+02  0.26580141449E+02  0.36820900171E+02  0.00000000000E+00 0.  1.
         11    1    4    4    0    0  0.22042523067E+02 -0.22327807028E+01 -0.19917871985E+02  0.29792276809E+02  0.51100000000E-03 0. -1.
        -11    1    4    4    0    0 -0.67018769935E+01  0.11761867914E+01 -0.42115480817E+01  0.80022314456E+01  0.51100000000E-03 0.  1.
         12    1    4    4    0    0  0.35978602845E+01 -0.15990627179E+02 -0.24507213822E+01  0.16572591574E+02  0.00000000000E+00 0. -1.
</event>
<event>
 8    1  0.1253703E-006  0.9118800E+02  0.7816164E-02  0.1184000E+00
        -11   -1    0    0    0    0  0.00000000000E+00  0.00000000000E+00  0.45593999997E+02  0.45594000000E+02  0.51100000000E-03 0.  1.
         11   -1    0    0    0    0 -0.00000000000E+00 -0.00000000000E+00 -0.45593999997E+02  0.45594000000E+02  0.51100000000E-03 0. -1.
         23    2    1    2    0    0 -0.71054273576E-14 -0.17763568394E-14  0.00000000000E+00  0.91188000000E+02  0.91188000000E+02 0.  0.
    9900012    2    3    3    0    0 -0.32984738769E+02 -0.43062727093E+01  0.15787382479E+02  0.54367103463E+02  0.40000043964E+02 0.  0.
        -12    1    3    3    0    0  0.32984738769E+02  0.43062727093E+01 -0.15787382479E+02  0.36820896537E+02  0.00000000000E+00 0.  1.
         11    1    4    4    0    0 -0.11189958518E+01  0.41535787254E+01 -0.71867246461E+01  0.83757614188E+01  0.51100000000E-03 0. -1.
        -11    1    4    4    0    0 -0.61680699565E+00 -0.85442410636E+01  0.42611650665E+01  0.95677601458E+01  0.51100000000E-03 0.  1.
         12    1    4    4    0    0 -0.31248935921E+02  0.84389628879E-01  0.18712942058E+02  0.36423581898E+02  0.00000000000E+00 0. -1.
</event>
<event>
 8    1  0.1253703E-006  0.9118800E+02  0.7816164E-02  0.1184000E+00
        -11   -1    0    0    0    0  0.00000000000E+00  0.00000000000E+00  0.45593999997E+02  0.45594000000E+02  0.51100000000E-03 0.  1.
         11   -1    0    0    0    0 -0.00000000000E+00 -0.00000000000E+00 -0.45593999997E+02  0.45594000000E+02  0.51100000000E-03 0. -1.
         23    2    1    2    0    0 -0.35527136788E-14  0.00000000000E+00  0.00000000000E+00  0.91188000000E+02  0.91188000000E+02 0.  0.
    9900012    2    3    3    0    0  0.23939149654E+02  0.27324658743E+02 -0.60055656492E+01  0.54366991318E+02  0.39999788308E+02 0.  0.
         12    1    3    3    0    0 -0.23939149654E+02 -0.27324658743E+02  0.60055656492E+01  0.36821008682E+02  0.00000000000E+00 0. -1.
         11    1    4    4    0    0  0.22471642973E+01 -0.26455344433E+01  0.78874758039E+01  0.86174749601E+01  0.51100000000E-03 0. -1.
        -11    1    4    4    0    0  0.21263903454E+02  0.99424607270E+01 -0.60857827929E+01  0.24249595210E+02  0.51100000000E-03 0.  1.
         12    1    4    4    0    0  0.42808190257E+00  0.20027732460E+02 -0.78072586601E+01  0.21499921148E+02  0.00000000000E+00 0. -1.
</event>
<event>
 8    1  0.1253703E-006  0.9118800E+02  0.7816164E-02  0.1184000E+00
        -11   -1    0    0    0    0  0.00000000000E+00  0.00000000000E+00  0.45593999997E+02  0.45594000000E+02  0.51100000000E-03 0. -1.
         11   -1    0    0    0    0 -0.00000000000E+00 -0.00000000000E+00 -0.45593999997E+02  0.45594000000E+02  0.51100000000E-03 0.  1.
         23    2    1    2    0    0  0.00000000000E+00  0.35527136788E-14  0.17763568394E-14  0.91188000000E+02  0.91188000000E+02 0.  0.
    9900012    2    3    3    0    0 -0.27536876378E+02 -0.21482537478E+02  0.11661835423E+02  0.54367117575E+02  0.40000076135E+02 0.  0.
        -12    1    3    3    0    0  0.27536876378E+02  0.21482537478E+02 -0.11661835423E+02  0.36820882425E+02  0.00000000000E+00 0.  1.
         11    1    4    4    0    0 -0.22246146975E+02 -0.31899645032E+00 -0.63222221130E+01  0.23129273804E+02  0.51100000000E-03 0. -1.
        -11    1    4    4    0    0  0.41125668957E+01 -0.70177472664E+01  0.32760316502E+01  0.87689433115E+01  0.51100000000E-03 0.  1.
         12    1    4    4    0    0 -0.94032962982E+01 -0.14145793761E+02  0.14708025886E+02  0.22468900460E+02  0.00000000000E+00 0. -1.
</event>
<event>
 8    1  0.1253703E-006  0.9118800E+02  0.7816164E-02  0.1184000E+00
        -11   -1    0    0    0    0  0.00000000000E+00  0.00000000000E+00  0.45593999997E+02  0.45594000000E+02  0.51100000000E-03 0. -1.
         11   -1    0    0    0    0 -0.00000000000E+00 -0.00000000000E+00 -0.45593999997E+02  0.45594000000E+02  0.51100000000E-03 0.  1.
         23    2    1    2    0    0  0.00000000000E+00  0.00000000000E+00  0.68001160258E-15  0.91188000000E+02  0.91188000000E+02 0.  0.
    9900012    2    3    3    0    0 -0.32779326023E+02 -0.16771830332E+02  0.50785541753E-01  0.54367067280E+02  0.39999961479E+02 0.  0.
        -12    1    3    3    0    0  0.32779326023E+02  0.16771830332E+02 -0.50785541753E-01  0.36820932720E+02  0.00000000000E+00 0.  1.
         11    1    4    4    0    0 -0.14366082576E+02  0.63551441283E+01 -0.17165260036E+01  0.15802488642E+02  0.51100000000E-03 0. -1.
        -11    1    4    4    0    0  0.19215424592E+01 -0.15882879311E+02  0.49447293177E+01  0.16745403218E+02  0.51100000000E-03 0.  1.
        -12    1    4    4    0    0 -0.20334785905E+02 -0.72440951487E+01 -0.31774177724E+01  0.21819175421E+02  0.00000000000E+00 0.  1.
</event>
<event>
 8    1  0.1253703E-006  0.9118800E+02  0.7816164E-02  0.1184000E+00
        -11   -1    0    0    0    0  0.00000000000E+00  0.00000000000E+00  0.45593999997E+02  0.45594000000E+02  0.51100000000E-03 0. -1.
         11   -1    0    0    0    0 -0.00000000000E+00 -0.00000000000E+00 -0.45593999997E+02  0.45594000000E+02  0.51100000000E-03 0.  1.
         23    2    1    2    0    0  0.00000000000E+00  0.00000000000E+00  0.00000000000E+00  0.91188000000E+02  0.91188000000E+02 0.  0.
    9900012    2    3    3    0    0  0.46060276242E+01 -0.32753052176E+02  0.16180291615E+02  0.54367085372E+02  0.40000002723E+02 0.  0.
        -12    1    3    3    0    0 -0.46060276242E+01  0.32753052176E+02 -0.16180291615E+02  0.36820914628E+02  0.00000000000E+00 0.  1.
         11    1    4    4    0    0  0.10645647177E+01 -0.30613960648E+02  0.14530306204E+02  0.33903947901E+02  0.51100000000E-03 0. -1.
        -11    1    4    4    0    0  0.24495329774E+01 -0.23319074887E+01  0.10763545206E+02  0.11282371648E+02  0.51100000000E-03 0.  1.
        -12    1    4    4    0    0  0.10919299292E+01  0.19281596121E+00 -0.91135597953E+01  0.91807658236E+01  0.00000000000E+00 0.  1.
</event>
<event>
 8    1  0.1253703E-006  0.9118800E+02  0.7816164E-02  0.1184000E+00
        -11   -1    0    0    0    0  0.00000000000E+00  0.00000000000E+00  0.45593999997E+02  0.45594000000E+02  0.51100000000E-03 0.  1.
         11   -1    0    0    0    0 -0.00000000000E+00 -0.00000000000E+00 -0.45593999997E+02  0.45594000000E+02  0.51100000000E-03 0. -1.
         23    2    1    2    0    0  0.00000000000E+00  0.00000000000E+00 -0.17763568394E-14  0.91188000000E+02  0.91188000000E+02 0.  0.
    9900012    2    3    3    0    0 -0.24562071248E+02  0.24697016524E+02  0.11939022271E+02  0.54367106176E+02  0.40000050150E+02 0.  0.
        -12    1    3    3    0    0  0.24562071248E+02 -0.24697016524E+02 -0.11939022271E+02  0.36820893824E+02  0.00000000000E+00 0.  1.
         11    1    4    4    0    0  0.44580729896E+01  0.27207968025E+01 -0.37637520971E+01  0.64376222420E+01  0.51100000000E-03 0.  1.
        -11    1    4    4    0    0 -0.13978986526E+02  0.64641680460E+01  0.20652515269E+02  0.25762839906E+02  0.51100000000E-03 0. -1.
         12    1    4    4    0    0 -0.15041157712E+02  0.15512051675E+02 -0.49497409010E+01  0.22166644028E+02  0.00000000000E+00 0. -1.
</event>
<event>
 8    1  0.1253703E-006  0.9118800E+02  0.7816164E-02  0.1184000E+00
        -11   -1    0    0    0    0  0.00000000000E+00  0.00000000000E+00  0.45593999997E+02  0.45594000000E+02  0.51100000000E-03 0. -1.
         11   -1    0    0    0    0 -0.00000000000E+00 -0.00000000000E+00 -0.45593999997E+02  0.45594000000E+02  0.51100000000E-03 0.  1.
         23    2    1    2    0    0  0.44408920985E-15 -0.71054273576E-14  0.00000000000E+00  0.91188000000E+02  0.91188000000E+02 0.  0.
    9900012    2    3    3    0    0  0.33679316693E+01  0.28819861148E+02  0.22668363392E+02  0.54367054070E+02  0.39999931363E+02 0.  0.
        -12    1    3    3    0    0 -0.33679316693E+01 -0.28819861148E+02 -0.22668363392E+02  0.36820945930E+02  0.00000000000E+00 0.  1.
         11    1    4    4    0    0 -0.53083421224E-01  0.22467879695E+02  0.24579931144E+02  0.33301373112E+02  0.51100000000E-03 0. -1.
        -11    1    4    4    0    0  0.65674735035E+01 -0.54760818673E+01  0.59716387998E+00  0.85718017824E+01  0.51100000000E-03 0.  1.
        -12    1    4    4    0    0 -0.31464584130E+01  0.11828063320E+02 -0.25087316319E+01  0.12493879175E+02  0.00000000000E+00 0.  1.
</event>
<event>
 8    1  0.1253703E-006  0.9118800E+02  0.7816164E-02  0.1184000E+00
        -11   -1    0    0    0    0  0.00000000000E+00  0.00000000000E+00  0.45593999997E+02  0.45594000000E+02  0.51100000000E-03 0. -1.
         11   -1    0    0    0    0 -0.00000000000E+00 -0.00000000000E+00 -0.45593999997E+02  0.45594000000E+02  0.51100000000E-03 0.  1.
         23    2    1    2    0    0 -0.35527136788E-14 -0.35527136788E-14 -0.35527136788E-14  0.91188000000E+02  0.91188000000E+02 0.  0.
    9900012    2    3    3    0    0 -0.70512865063E+01 -0.20382318879E+02  0.29843256146E+02  0.54367088799E+02  0.40000010536E+02 0.  0.
        -12    1    3    3    0    0  0.70512865063E+01  0.20382318879E+02 -0.29843256146E+02  0.36820911201E+02  0.00000000000E+00 0.  1.
         11    1    4    4    0    0 -0.14977619231E+02 -0.14401228224E+02  0.14608792604E+02  0.25399631372E+02  0.51100000000E-03 0. -1.
        -11    1    4    4    0    0  0.15370507304E+02 -0.61863949680E+01  0.13370539965E+02  0.21290733118E+02  0.51100000000E-03 0.  1.
        -12    1    4    4    0    0 -0.74441745793E+01  0.20530431366E+00  0.18639235774E+01  0.76767243099E+01  0.00000000000E+00 0.  1.
</event>
<event>
 8    1  0.1253703E-006  0.9118800E+02  0.7816164E-02  0.1184000E+00
        -11   -1    0    0    0    0  0.00000000000E+00  0.00000000000E+00  0.45593999997E+02  0.45594000000E+02  0.51100000000E-03 0. -1.
         11   -1    0    0    0    0 -0.00000000000E+00 -0.00000000000E+00 -0.45593999997E+02  0.45594000000E+02  0.51100000000E-03 0.  1.
         23    2    1    2    0    0 -0.88817841970E-15  0.22204460493E-14 -0.14210854715E-13  0.91188000000E+02  0.91188000000E+02 0.  0.
    9900012    2    3    3    0    0 -0.44992183518E+01  0.23968595256E+01 -0.36466308860E+02  0.54367087692E+02  0.40000008011E+02 0.  0.
         12    1    3    3    0    0  0.44992183518E+01 -0.23968595256E+01  0.36466308860E+02  0.36820912308E+02  0.00000000000E+00 0. -1.
         11    1    4    4    0    0 -0.10529080024E+02 -0.44236431780E+01  0.39824104711E+01  0.12095029497E+02  0.51100000000E-03 0. -1.
        -11    1    4    4    0    0  0.61767485602E+01  0.75016882744E+01 -0.25218702730E+02  0.27026108070E+02  0.51100000000E-03 0.  1.
         12    1    4    4    0    0 -0.14688688778E+00 -0.68118557078E+00 -0.15230016601E+02  0.15245950125E+02  0.00000000000E+00 0. -1.
</event>
<event>
 8    1  0.1253703E-006  0.9118800E+02  0.7816164E-02  0.1184000E+00
        -11   -1    0    0    0    0  0.00000000000E+00  0.00000000000E+00  0.45593999997E+02  0.45594000000E+02  0.51100000000E-03 0.  1.
         11   -1    0    0    0    0 -0.00000000000E+00 -0.00000000000E+00 -0.45593999997E+02  0.45594000000E+02  0.51100000000E-03 0. -1.
         23    2    1    2    0    0  0.00000000000E+00 -0.12767564783E-14  0.00000000000E+00  0.91188000000E+02  0.91188000000E+02 0.  0.
    9900012    2    3    3    0    0 -0.21060192333E+02 -0.29805589629E+00 -0.30201972681E+02  0.54367086211E+02  0.40000004635E+02 0.  0.
        -12    1    3    3    0    0  0.21060192333E+02  0.29805589629E+00  0.30201972681E+02  0.36820913789E+02  0.00000000000E+00 0.  1.
         11    1    4    4    0    0 -0.84815797477E+01 -0.16570991157E+02 -0.17581520787E+02  0.25605562216E+02  0.51100000000E-03 0. -1.
        -11    1    4    4    0    0  0.14637833598E+01  0.10150335541E+02 -0.30526936099E+01  0.10700042610E+02  0.51100000000E-03 0.  1.
        -12    1    4    4    0    0 -0.14042395945E+02  0.61225997193E+01 -0.95677582843E+01  0.18061481384E+02  0.00000000000E+00 0.  1.
</event>
<event>
 8    1  0.1253703E-006  0.9118800E+02  0.7816164E-02  0.1184000E+00
        -11   -1    0    0    0    0  0.00000000000E+00  0.00000000000E+00  0.45593999997E+02  0.45594000000E+02  0.51100000000E-03 0.  1.
         11   -1    0    0    0    0 -0.00000000000E+00 -0.00000000000E+00 -0.45593999997E+02  0.45594000000E+02  0.51100000000E-03 0. -1.
         23    2    1    2    0    0  0.00000000000E+00 -0.44408920985E-15  0.00000000000E+00  0.91188000000E+02  0.91188000000E+02 0.  0.
    9900012    2    3    3    0    0 -0.46112472758E+01 -0.30642563275E+01 -0.36402284011E+02  0.54367088150E+02  0.40000009056E+02 0.  0.
        -12    1    3    3    0    0  0.46112472758E+01  0.30642563275E+01  0.36402284011E+02  0.36820911850E+02  0.00000000000E+00 0.  1.
         11    1    4    4    0    0  0.17822524815E+01 -0.70185951306E+01 -0.94431134275E+01  0.11899978697E+02  0.51100000000E-03 0. -1.
        -11    1    4    4    0    0 -0.78050087776E+01 -0.91515701911E+01  0.46777381613E+00  0.12036951922E+02  0.51100000000E-03 0.  1.
        -12    1    4    4    0    0  0.14115090202E+01  0.13105908994E+02 -0.27426944399E+02  0.30430157531E+02  0.00000000000E+00 0.  1.
</event>
<event>
 8    1  0.1253703E-006  0.9118800E+02  0.7816164E-02  0.1184000E+00
        -11   -1    0    0    0    0  0.00000000000E+00  0.00000000000E+00  0.45593999997E+02  0.45594000000E+02  0.51100000000E-03 0. -1.
         11   -1    0    0    0    0 -0.00000000000E+00 -0.00000000000E+00 -0.45593999997E+02  0.45594000000E+02  0.51100000000E-03 0.  1.
         23    2    1    2    0    0  0.88817841970E-15  0.00000000000E+00 -0.17763568394E-14  0.91188000000E+02  0.91188000000E+02 0.  0.
    9900012    2    3    3    0    0 -0.54990580089E+01  0.32808797868E+02 -0.15783587685E+02  0.54367102445E+02  0.40000041643E+02 0.  0.
         12    1    3    3    0    0  0.54990580089E+01 -0.32808797868E+02  0.15783587685E+02  0.36820897555E+02  0.00000000000E+00 0. -1.
         11    1    4    4    0    0  0.28892279384E+01  0.41421603826E+00  0.36548265947E+01  0.46772824060E+01  0.51100000000E-03 0. -1.
        -11    1    4    4    0    0  0.10111068139E+02  0.46538649085E+01 -0.73113661310E-01  0.11130925540E+02  0.51100000000E-03 0.  1.
        -12    1    4    4    0    0 -0.18499354086E+02  0.27740716921E+02 -0.19365300619E+02  0.38558894499E+02  0.00000000000E+00 0.  1.
</event>
<event>
 8    1  0.1253703E-006  0.9118800E+02  0.7816164E-02  0.1184000E+00
        -11   -1    0    0    0    0  0.00000000000E+00  0.00000000000E+00  0.45593999997E+02  0.45594000000E+02  0.51100000000E-03 0.  1.
         11   -1    0    0    0    0 -0.00000000000E+00 -0.00000000000E+00 -0.45593999997E+02  0.45594000000E+02  0.51100000000E-03 0. -1.
         23    2    1    2    0    0  0.00000000000E+00 -0.17763568394E-14 -0.35527136788E-14  0.91188000000E+02  0.91188000000E+02 0.  0.
    9900012    2    3    3    0    0  0.15440424613E+02  0.13151169149E+02 -0.30731207824E+02  0.54367257252E+02  0.40000394555E+02 0.  0.
        -12    1    3    3    0    0 -0.15440424613E+02 -0.13151169149E+02  0.30731207824E+02  0.36820742748E+02  0.00000000000E+00 0.  1.
         11    1    4    4    0    0  0.10545123951E+01  0.10814911495E+02 -0.12891891323E+02  0.16860461713E+02  0.51100000000E-03 0. -1.
        -11    1    4    4    0    0  0.93300566857E+01 -0.18958701922E+00  0.72320631899E+01  0.11806296593E+02  0.51100000000E-03 0.  1.
        -12    1    4    4    0    0  0.50558555322E+01  0.25258446734E+01 -0.25071379690E+02  0.25700498946E+02  0.00000000000E+00 0.  1.
</event>
<event>
 8    1  0.1253703E-006  0.9118800E+02  0.7816164E-02  0.1184000E+00
        -11   -1    0    0    0    0  0.00000000000E+00  0.00000000000E+00  0.45593999997E+02  0.45594000000E+02  0.51100000000E-03 0. -1.
         11   -1    0    0    0    0 -0.00000000000E+00 -0.00000000000E+00 -0.45593999997E+02  0.45594000000E+02  0.51100000000E-03 0.  1.
         23    2    1    2    0    0 -0.88817841970E-15  0.35527136788E-14 -0.35527136788E-14  0.91188000000E+02  0.91188000000E+02 0.  0.
    9900012    2    3    3    0    0 -0.75716182824E+01  0.22488813895E+02 -0.28154983424E+02  0.54367092279E+02  0.40000018467E+02 0.  0.
         12    1    3    3    0    0  0.75716182824E+01 -0.22488813895E+02  0.28154983424E+02  0.36820907721E+02  0.00000000000E+00 0. -1.
         11    1    4    4    0    0 -0.53398362165E+01  0.11483749404E+02  0.49903392976E+00  0.12674359404E+02  0.51100000000E-03 0. -1.
        -11    1    4    4    0    0  0.38919036779E+00 -0.84709563950E+01 -0.16595327310E+02  0.18636347823E+02  0.51100000000E-03 0.  1.
        -12    1    4    4    0    0 -0.26209724337E+01  0.19476020886E+02 -0.12058690044E+02  0.23056385051E+02  0.00000000000E+00 0.  1.
</event>
<event>
 8    1  0.1253703E-006  0.9118800E+02  0.7816164E-02  0.1184000E+00
        -11   -1    0    0    0    0  0.00000000000E+00  0.00000000000E+00  0.45593999997E+02  0.45594000000E+02  0.51100000000E-03 0.  1.
         11   -1    0    0    0    0 -0.00000000000E+00 -0.00000000000E+00 -0.45593999997E+02  0.45594000000E+02  0.51100000000E-03 0. -1.
         23    2    1    2    0    0  0.88817841970E-15  0.00000000000E+00  0.15543122345E-14  0.91188000000E+02  0.91188000000E+02 0.  0.
    9900012    2    3    3    0    0 -0.79809696062E+01 -0.35940040232E+02  0.63066852755E+00  0.54367080531E+02  0.39999991687E+02 0.  0.
         12    1    3    3    0    0  0.79809696062E+01  0.35940040232E+02 -0.63066852755E+00  0.36820919469E+02  0.00000000000E+00 0. -1.
         11    1    4    4    0    0  0.76576531570E+01 -0.37018968415E+01  0.13369694605E+02  0.15845896194E+02  0.51100000000E-03 0. -1.
        -11    1    4    4    0    0 -0.60856584132E+01 -0.17870238723E+02 -0.45296843027E+01  0.19413879326E+02  0.51100000000E-03 0.  1.
         12    1    4    4    0    0 -0.95529643501E+01 -0.14367904667E+02 -0.82093417747E+01  0.19107305011E+02  0.00000000000E+00 0. -1.
</event>
<event>
 8    1  0.1253703E-006  0.9118800E+02  0.7816164E-02  0.1184000E+00
        -11   -1    0    0    0    0  0.00000000000E+00  0.00000000000E+00  0.45593999997E+02  0.45594000000E+02  0.51100000000E-03 0.  1.
         11   -1    0    0    0    0 -0.00000000000E+00 -0.00000000000E+00 -0.45593999997E+02  0.45594000000E+02  0.51100000000E-03 0. -1.
         23    2    1    2    0    0  0.00000000000E+00  0.88817841970E-15  0.00000000000E+00  0.91188000000E+02  0.91188000000E+02 0.  0.
    9900012    2    3    3    0    0 -0.12383256498E+02  0.16602102426E+01 -0.34636371084E+02  0.54367088259E+02  0.40000009305E+02 0.  0.
        -12    1    3    3    0    0  0.12383256498E+02 -0.16602102426E+01  0.34636371084E+02  0.36820911741E+02  0.00000000000E+00 0.  1.
         11    1    4    4    0    0 -0.55183782814E+01 -0.10724045383E+02 -0.16018045073E+02  0.20050820843E+02  0.51100000000E-03 0. -1.
        -11    1    4    4    0    0  0.35589793884E+01 -0.58473731119E+01 -0.87572440916E+01  0.11115189199E+02  0.51100000000E-03 0.  1.
        -12    1    4    4    0    0 -0.10423857605E+02  0.18231628738E+02 -0.98610819190E+01  0.23201078217E+02  0.00000000000E+00 0.  1.
</event>
<event>
 8    1  0.1253703E-006  0.9118800E+02  0.7816164E-02  0.1184000E+00
        -11   -1    0    0    0    0  0.00000000000E+00  0.00000000000E+00  0.45593999997E+02  0.45594000000E+02  0.51100000000E-03 0.  1.
         11   -1    0    0    0    0 -0.00000000000E+00 -0.00000000000E+00 -0.45593999997E+02  0.45594000000E+02  0.51100000000E-03 0. -1.
         23    2    1    2    0    0  0.00000000000E+00  0.17763568394E-14  0.17763568394E-14  0.91188000000E+02  0.91188000000E+02 0.  0.
    9900012    2    3    3    0    0  0.34312843771E+02  0.10035193744E+02  0.88149454611E+01  0.54367087129E+02  0.40000006728E+02 0.  0.
         12    1    3    3    0    0 -0.34312843771E+02 -0.10035193744E+02 -0.88149454611E+01  0.36820912871E+02  0.00000000000E+00 0. -1.
         11    1    4    4    0    0  0.17549058551E+02  0.11036740812E+02 -0.10220220229E+02  0.23113459403E+02  0.51100000000E-03 0. -1.
        -11    1    4    4    0    0  0.19370879512E+02  0.47712824851E+00  0.10145165014E+02  0.21871968312E+02  0.51100000000E-03 0.  1.
        -12    1    4    4    0    0 -0.26070942916E+01 -0.14786753168E+01  0.88900006763E+01  0.93816594141E+01  0.00000000000E+00 0.  1.
</event>
<event>
 8    1  0.1253703E-006  0.9118800E+02  0.7816164E-02  0.1184000E+00
        -11   -1    0    0    0    0  0.00000000000E+00  0.00000000000E+00  0.45593999997E+02  0.45594000000E+02  0.51100000000E-03 0. -1.
         11   -1    0    0    0    0 -0.00000000000E+00 -0.00000000000E+00 -0.45593999997E+02  0.45594000000E+02  0.51100000000E-03 0.  1.
         23    2    1    2    0    0  0.35527136788E-14  0.00000000000E+00  0.00000000000E+00  0.91188000000E+02  0.91188000000E+02 0.  0.
    9900012    2    3    3    0    0 -0.13525709040E+02  0.18597725178E+02  0.28756905521E+02  0.54367084721E+02  0.40000001239E+02 0.  0.
        -12    1    3    3    0    0  0.13525709040E+02 -0.18597725178E+02 -0.28756905521E+02  0.36820915279E+02  0.00000000000E+00 0.  1.
         11    1    4    4    0    0 -0.32250191176E+01  0.47760275561E+01 -0.65305147033E+00  0.57997986180E+01  0.51100000000E-03 0. -1.
        -11    1    4    4    0    0  0.10155381445E+02  0.14953652943E+02  0.15412601467E+02  0.23754826727E+02  0.51100000000E-03 0.  1.
        -12    1    4    4    0    0 -0.20456071367E+02 -0.11319553212E+01  0.13997355525E+02  0.24812459376E+02  0.00000000000E+00 0.  1.
</event>
<event>
 8    1  0.1253703E-006  0.9118800E+02  0.7816164E-02  0.1184000E+00
        -11   -1    0    0    0    0  0.00000000000E+00  0.00000000000E+00  0.45593999997E+02  0.45594000000E+02  0.51100000000E-03 0.  1.
         11   -1    0    0    0    0 -0.00000000000E+00 -0.00000000000E+00 -0.45593999997E+02  0.45594000000E+02  0.51100000000E-03 0. -1.
         23    2    1    2    0    0  0.00000000000E+00  0.00000000000E+00  0.00000000000E+00  0.91188000000E+02  0.91188000000E+02 0.  0.
    9900012    2    3    3    0    0 -0.22886731382E+02  0.23270963239E+02  0.17042325965E+02  0.54367067398E+02  0.39999961746E+02 0.  0.
         12    1    3    3    0    0  0.22886731382E+02 -0.23270963239E+02 -0.17042325965E+02  0.36820932602E+02  0.00000000000E+00 0. -1.
         11    1    4    4    0    0 -0.81243464349E+01  0.18189933123E+02 -0.60172100100E+01  0.20810706105E+02  0.51100000000E-03 0. -1.
        -11    1    4    4    0    0 -0.68153303320E+01  0.11840328345E+02  0.10510338800E+02  0.17236859482E+02  0.51100000000E-03 0.  1.
        -12    1    4    4    0    0 -0.79470546150E+01 -0.67592982295E+01  0.12549197175E+02  0.16319501811E+02  0.00000000000E+00 0.  1.
</event>
<event>
 8    1  0.1253703E-006  0.9118800E+02  0.7816164E-02  0.1184000E+00
        -11   -1    0    0    0    0  0.00000000000E+00  0.00000000000E+00  0.45593999997E+02  0.45594000000E+02  0.51100000000E-03 0. -1.
         11   -1    0    0    0    0 -0.00000000000E+00 -0.00000000000E+00 -0.45593999997E+02  0.45594000000E+02  0.51100000000E-03 0.  1.
         23    2    1    2    0    0 -0.26645352591E-14  0.00000000000E+00  0.35527136788E-14  0.91188000000E+02  0.91188000000E+02 0.  0.
    9900012    2    3    3    0    0 -0.47758195577E+01  0.27845321142E+02 -0.23613751385E+02  0.54367087240E+02  0.40000006982E+02 0.  0.
         12    1    3    3    0    0  0.47758195577E+01 -0.27845321142E+02  0.23613751385E+02  0.36820912760E+02  0.00000000000E+00 0. -1.
         11    1    4    4    0    0  0.65652812802E+01  0.19299781313E+02 -0.61658817662E+01  0.21297947677E+02  0.51100000000E-03 0. -1.
        -11    1    4    4    0    0  0.59063439519E+01 -0.21937295966E+01 -0.19509598120E-01  0.63006134072E+01  0.51100000000E-03 0.  1.
        -12    1    4    4    0    0 -0.17247444790E+02  0.10739269426E+02 -0.17428360021E+02  0.26768526157E+02  0.00000000000E+00 0.  1.
</event>
<event>
 8    1  0.1253703E-006  0.9118800E+02  0.7816164E-02  0.1184000E+00
        -11   -1    0    0    0    0  0.00000000000E+00  0.00000000000E+00  0.45593999997E+02  0.45594000000E+02  0.51100000000E-03 0.  1.
         11   -1    0    0    0    0 -0.00000000000E+00 -0.00000000000E+00 -0.45593999997E+02  0.45594000000E+02  0.51100000000E-03 0. -1.
         23    2    1    2    0    0  0.00000000000E+00  0.00000000000E+00  0.00000000000E+00  0.91188000000E+02  0.91188000000E+02 0.  0.
    9900012    2    3    3    0    0 -0.22918064110E+02  0.15771761702E+02  0.24120440672E+02  0.54367057753E+02  0.39999939761E+02 0.  0.
         12    1    3    3    0    0  0.22918064110E+02 -0.15771761702E+02 -0.24120440672E+02  0.36820942247E+02  0.00000000000E+00 0. -1.
         11    1    4    4    0    0  0.47771993736E+01  0.19694751506E+01  0.78094937724E+00  0.52259303875E+01  0.51100000000E-03 0. -1.
        -11    1    4    4    0    0 -0.18305711171E+02 -0.61697740589E+01  0.38483346261E+01  0.19697077272E+02  0.51100000000E-03 0.  1.
        -12    1    4    4    0    0 -0.93895523124E+01  0.19972060610E+02  0.19491156668E+02  0.29444050093E+02  0.00000000000E+00 0.  1.
</event>
<event>
 8    1  0.1253703E-006  0.9118800E+02  0.7816164E-02  0.1184000E+00
        -11   -1    0    0    0    0  0.00000000000E+00  0.00000000000E+00  0.45593999997E+02  0.45594000000E+02  0.51100000000E-03 0.  1.
         11   -1    0    0    0    0 -0.00000000000E+00 -0.00000000000E+00 -0.45593999997E+02  0.45594000000E+02  0.51100000000E-03 0. -1.
         23    2    1    2    0    0  0.00000000000E+00  0.00000000000E+00 -0.44408920985E-15  0.91188000000E+02  0.91188000000E+02 0.  0.
    9900012    2    3    3    0    0 -0.12925083540E+02 -0.34326132646E+02  0.32326022692E+01  0.54366934231E+02  0.39999658165E+02 0.  0.
        -12    1    3    3    0    0  0.12925083540E+02  0.34326132646E+02 -0.32326022692E+01  0.36821065769E+02  0.00000000000E+00 0.  1.
         11    1    4    4    0    0  0.59022111650E+01 -0.82072945672E+01 -0.90188480434E+01  0.13547523797E+02  0.51100000000E-03 0. -1.
        -11    1    4    4    0    0 -0.56646099400E+01  0.32897112065E+01  0.68471005846E+00  0.65862609818E+01  0.51100000000E-03 0.  1.
         12    1    4    4    0    0 -0.13162684765E+02 -0.29408549285E+02  0.11566740254E+02  0.34233149452E+02  0.00000000000E+00 0. -1.
</event>
<event>
 8    1  0.1253703E-006  0.9118800E+02  0.7816164E-02  0.1184000E+00
        -11   -1    0    0    0    0  0.00000000000E+00  0.00000000000E+00  0.45593999997E+02  0.45594000000E+02  0.51100000000E-03 0.  1.
         11   -1    0    0    0    0 -0.00000000000E+00 -0.00000000000E+00 -0.45593999997E+02  0.45594000000E+02  0.51100000000E-03 0. -1.
         23    2    1    2    0    0 -0.71054273576E-14 -0.35527136788E-14  0.11102230246E-14  0.91188000000E+02  0.91188000000E+02 0.  0.
    9900012    2    3    3    0    0 -0.35204295612E+02 -0.10717373189E+02 -0.12543158138E+01  0.54367111557E+02  0.40000062415E+02 0.  0.
        -12    1    3    3    0    0  0.35204295612E+02  0.10717373189E+02  0.12543158138E+01  0.36820888443E+02  0.00000000000E+00 0.  1.
         11    1    4    4    0    0  0.11752395076E+01  0.19371159574E+00 -0.54683250017E+01  0.55965427424E+01  0.51100000000E-03 0.  1.
        -11    1    4    4    0    0 -0.25920647560E+02 -0.19831917465E+02 -0.38013786886E+01  0.32857805777E+02  0.51100000000E-03 0. -1.
         12    1    4    4    0    0 -0.10458887559E+02  0.89208326796E+01  0.80153878765E+01  0.15912763037E+02  0.00000000000E+00 0. -1.
</event>
<event>
 8    1  0.1253703E-006  0.9118800E+02  0.7816164E-02  0.1184000E+00
        -11   -1    0    0    0    0  0.00000000000E+00  0.00000000000E+00  0.45593999997E+02  0.45594000000E+02  0.51100000000E-03 0.  1.
         11   -1    0    0    0    0 -0.00000000000E+00 -0.00000000000E+00 -0.45593999997E+02  0.45594000000E+02  0.51100000000E-03 0. -1.
         23    2    1    2    0    0 -0.71054273576E-14 -0.88817841970E-15  0.35527136788E-14  0.91188000000E+02  0.91188000000E+02 0.  0.
    9900012    2    3    3    0    0  0.26418778851E+02  0.33072395257E+01 -0.25434033807E+02  0.54367084952E+02  0.40000001765E+02 0.  0.
        -12    1    3    3    0    0 -0.26418778851E+02 -0.33072395257E+01  0.25434033807E+02  0.36820915048E+02  0.00000000000E+00 0.  1.
         11    1    4    4    0    0  0.38381094092E+01 -0.14545916712E+01 -0.18607446384E+02  0.19054762711E+02  0.51100000000E-03 0. -1.
        -11    1    4    4    0    0 -0.25847728890E+00  0.10288085846E+02 -0.57516590349E+01  0.11789533612E+02  0.51100000000E-03 0.  1.
        -12    1    4    4    0    0  0.22839146731E+02 -0.55262546488E+01 -0.10749283885E+01  0.23522788629E+02  0.00000000000E+00 0.  1.
</event>
<event>
 8    1  0.1253703E-006  0.9118800E+02  0.7816164E-02  0.1184000E+00
        -11   -1    0    0    0    0  0.00000000000E+00  0.00000000000E+00  0.45593999997E+02  0.45594000000E+02  0.51100000000E-03 0. -1.
         11   -1    0    0    0    0 -0.00000000000E+00 -0.00000000000E+00 -0.45593999997E+02  0.45594000000E+02  0.51100000000E-03 0.  1.
         23    2    1    2    0    0  0.00000000000E+00  0.00000000000E+00 -0.35527136788E-14  0.91188000000E+02  0.91188000000E+02 0.  0.
    9900012    2    3    3    0    0 -0.15896546897E+02 -0.19463452718E+02 -0.26911942779E+02  0.54367097524E+02  0.40000030426E+02 0.  0.
         12    1    3    3    0    0  0.15896546897E+02  0.19463452718E+02  0.26911942779E+02  0.36820902476E+02  0.00000000000E+00 0. -1.
         11    1    4    4    0    0 -0.17441238562E+02 -0.27162616317E+01 -0.60095060925E+01  0.18646421736E+02  0.51100000000E-03 0.  1.
        -11    1    4    4    0    0 -0.43592838717E+01 -0.10764696661E+02  0.15777493965E+01  0.11720552184E+02  0.51100000000E-03 0. -1.
         12    1    4    4    0    0  0.59039755366E+01 -0.59824944259E+01 -0.22480186083E+02  0.24000123604E+02  0.00000000000E+00 0. -1.
</event>
<event>
 8    1  0.1253703E-006  0.9118800E+02  0.7816164E-02  0.1184000E+00
        -11   -1    0    0    0    0  0.00000000000E+00  0.00000000000E+00  0.45593999997E+02  0.45594000000E+02  0.51100000000E-03 0.  1.
         11   -1    0    0    0    0 -0.00000000000E+00 -0.00000000000E+00 -0.45593999997E+02  0.45594000000E+02  0.51100000000E-03 0. -1.
         23    2    1    2    0    0 -0.35527136788E-14  0.00000000000E+00 -0.35527136788E-14  0.91188000000E+02  0.91188000000E+02 0.  0.
    9900012    2    3    3    0    0 -0.26183416167E+02 -0.70963772918E+01  0.24896791960E+02  0.54367080637E+02  0.39999991928E+02 0.  0.
         12    1    3    3    0    0  0.26183416167E+02  0.70963772918E+01 -0.24896791960E+02  0.36820919363E+02  0.00000000000E+00 0. -1.
         11    1    4    4    0    0 -0.19915287414E+02  0.33365807931E+01  0.18836399403E+01  0.20280521292E+02  0.51100000000E-03 0. -1.
        -11    1    4    4    0    0  0.74897311843E+01  0.59267393130E+00  0.67092908860E+01  0.10072830787E+02  0.51100000000E-03 0.  1.
        -12    1    4    4    0    0 -0.13757859937E+02 -0.11025632016E+02  0.16303861134E+02  0.24013728558E+02  0.00000000000E+00 0.  1.
</event>
<event>
 8    1  0.1253703E-006  0.9118800E+02  0.7816164E-02  0.1184000E+00
        -11   -1    0    0    0    0  0.00000000000E+00  0.00000000000E+00  0.45593999997E+02  0.45594000000E+02  0.51100000000E-03 0.  1.
         11   -1    0    0    0    0 -0.00000000000E+00 -0.00000000000E+00 -0.45593999997E+02  0.45594000000E+02  0.51100000000E-03 0. -1.
         23    2    1    2    0    0  0.53290705182E-14  0.88817841970E-15  0.00000000000E+00  0.91188000000E+02  0.91188000000E+02 0.  0.
    9900012    2    3    3    0    0 -0.14769315618E+02  0.43893700414E+01  0.33442203012E+02  0.54367079377E+02  0.39999989057E+02 0.  0.
         12    1    3    3    0    0  0.14769315618E+02 -0.43893700414E+01 -0.33442203012E+02  0.36820920623E+02  0.00000000000E+00 0. -1.
         11    1    4    4    0    0 -0.38811864163E+01  0.29937209980E+01 -0.64565732868E+01  0.81063747927E+01  0.51100000000E-03 0. -1.
        -11    1    4    4    0    0  0.20715731913E+01 -0.72978841018E+01  0.16157483611E+02  0.17849784446E+02  0.51100000000E-03 0.  1.
        -12    1    4    4    0    0 -0.12959702393E+02  0.86935331452E+01  0.23741292688E+02  0.28410920139E+02  0.00000000000E+00 0.  1.
</event>
<event>
 8    1  0.1253703E-006  0.9118800E+02  0.7816164E-02  0.1184000E+00
        -11   -1    0    0    0    0  0.00000000000E+00  0.00000000000E+00  0.45593999997E+02  0.45594000000E+02  0.51100000000E-03 0. -1.
         11   -1    0    0    0    0 -0.00000000000E+00 -0.00000000000E+00 -0.45593999997E+02  0.45594000000E+02  0.51100000000E-03 0.  1.
         23    2    1    2    0    0  0.00000000000E+00 -0.17763568394E-14  0.00000000000E+00  0.91188000000E+02  0.91188000000E+02 0.  0.
    9900012    2    3    3    0    0  0.71983571754E+01 -0.14490353103E+02 -0.33075742531E+02  0.54366926916E+02  0.39999641490E+02 0.  0.
         12    1    3    3    0    0 -0.71983571754E+01  0.14490353103E+02  0.33075742531E+02  0.36821073084E+02  0.00000000000E+00 0. -1.
         11    1    4    4    0    0 -0.41300703293E+00  0.14929721617E+01 -0.12965515532E+02  0.13057723154E+02  0.51100000000E-03 0. -1.
        -11    1    4    4    0    0  0.15730653685E+02 -0.15200688147E+02 -0.26465726553E+01  0.22034489615E+02  0.51100000000E-03 0.  1.
        -12    1    4    4    0    0 -0.81192894765E+01 -0.78263711713E+00 -0.17463654343E+02  0.19274714148E+02  0.00000000000E+00 0.  1.
</event>
<event>
 8    1  0.1253703E-006  0.9118800E+02  0.7816164E-02  0.1184000E+00
        -11   -1    0    0    0    0  0.00000000000E+00  0.00000000000E+00  0.45593999997E+02  0.45594000000E+02  0.51100000000E-03 0.  1.
         11   -1    0    0    0    0 -0.00000000000E+00 -0.00000000000E+00 -0.45593999997E+02  0.45594000000E+02  0.51100000000E-03 0. -1.
         23    2    1    2    0    0  0.88817841970E-15  0.71054273576E-14 -0.88817841970E-15  0.91188000000E+02  0.91188000000E+02 0.  0.
    9900012    2    3    3    0    0  0.68468282173E+00  0.36687539928E+02 -0.30545754899E+01  0.54367152536E+02  0.40000155835E+02 0.  0.
        -12    1    3    3    0    0 -0.68468282173E+00 -0.36687539928E+02  0.30545754899E+01  0.36820847464E+02  0.00000000000E+00 0.  1.
         11    1    4    4    0    0 -0.60920015963E+01  0.12244575986E+02 -0.66238733549E+00  0.13692365821E+02  0.51100000000E-03 0. -1.
        -11    1    4    4    0    0 -0.12761927940E+02  0.86130839983E+01  0.17655576622E+00  0.15397506061E+02  0.51100000000E-03 0.  1.
         12    1    4    4    0    0  0.19538612358E+02  0.15829879944E+02 -0.25687439206E+01  0.25277280653E+02  0.00000000000E+00 0. -1.
</event>
<event>
 8    1  0.1253703E-006  0.9118800E+02  0.7816164E-02  0.1184000E+00
        -11   -1    0    0    0    0  0.00000000000E+00  0.00000000000E+00  0.45593999997E+02  0.45594000000E+02  0.51100000000E-03 0. -1.
         11   -1    0    0    0    0 -0.00000000000E+00 -0.00000000000E+00 -0.45593999997E+02  0.45594000000E+02  0.51100000000E-03 0.  1.
         23    2    1    2    0    0 -0.35527136788E-14  0.00000000000E+00  0.00000000000E+00  0.91188000000E+02  0.91188000000E+02 0.  0.
    9900012    2    3    3    0    0  0.19544770530E+02  0.30044219458E+02 -0.84335669311E+01  0.54367106080E+02  0.40000049930E+02 0.  0.
         12    1    3    3    0    0 -0.19544770530E+02 -0.30044219458E+02  0.84335669311E+01  0.36820893920E+02  0.00000000000E+00 0. -1.
         11    1    4    4    0    0 -0.17137762930E+01 -0.42990855045E+01  0.15876764380E+01  0.48928398799E+01  0.51100000000E-03 0. -1.
        -11    1    4    4    0    0  0.78308502015E+01  0.29357723389E+02  0.24494678407E+01  0.30482749719E+02  0.51100000000E-03 0.  1.
        -12    1    4    4    0    0  0.13427696621E+02  0.49855815736E+01 -0.12470711210E+02  0.18991516481E+02  0.00000000000E+00 0.  1.
</event>
<event>
 8    1  0.1253703E-006  0.9118800E+02  0.7816164E-02  0.1184000E+00
        -11   -1    0    0    0    0  0.00000000000E+00  0.00000000000E+00  0.45593999997E+02  0.45594000000E+02  0.51100000000E-03 0.  1.
         11   -1    0    0    0    0 -0.00000000000E+00 -0.00000000000E+00 -0.45593999997E+02  0.45594000000E+02  0.51100000000E-03 0. -1.
         23    2    1    2    0    0  0.88817841970E-15  0.71054273576E-14 -0.44408920985E-15  0.91188000000E+02  0.91188000000E+02 0.  0.
    9900012    2    3    3    0    0  0.67798320781E+01 -0.36143107411E+02  0.18679207752E+01  0.54367089306E+02  0.40000011691E+02 0.  0.
         12    1    3    3    0    0 -0.67798320781E+01  0.36143107411E+02 -0.18679207752E+01  0.36820910694E+02  0.00000000000E+00 0. -1.
         11    1    4    4    0    0  0.12238858415E+02 -0.16184016475E+02 -0.17445182642E+01  0.20365544156E+02  0.51100000000E-03 0. -1.
        -11    1    4    4    0    0 -0.91227449736E+01  0.15317758952E+00  0.90462770483E+01  0.12848465586E+02  0.51100000000E-03 0.  1.
        -12    1    4    4    0    0  0.36637186366E+01 -0.20112268526E+02 -0.54338380089E+01  0.21153079563E+02  0.00000000000E+00 0.  1.
</event>
<event>
 8    1  0.1253703E-006  0.9118800E+02  0.7816164E-02  0.1184000E+00
        -11   -1    0    0    0    0  0.00000000000E+00  0.00000000000E+00  0.45593999997E+02  0.45594000000E+02  0.51100000000E-03 0.  1.
         11   -1    0    0    0    0 -0.00000000000E+00 -0.00000000000E+00 -0.45593999997E+02  0.45594000000E+02  0.51100000000E-03 0. -1.
         23    2    1    2    0    0  0.71054273576E-14 -0.35527136788E-14  0.88817841970E-15  0.91188000000E+02  0.91188000000E+02 0.  0.
    9900012    2    3    3    0    0  0.30091050939E+02 -0.20226476565E+02  0.64185462709E+01  0.54367089677E+02  0.40000012536E+02 0.  0.
        -12    1    3    3    0    0 -0.30091050939E+02  0.20226476565E+02 -0.64185462709E+01  0.36820910323E+02  0.00000000000E+00 0.  1.
         11    1    4    4    0    0  0.79511541684E+01  0.67021292235E+01  0.11406459742E+02  0.15435242559E+02  0.51100000000E-03 0.  1.
        -11    1    4    4    0    0  0.20995787235E+02 -0.13692609263E+02 -0.11040639835E+01  0.25090428206E+02  0.51100000000E-03 0. -1.
        -12    1    4    4    0    0  0.11441095354E+01 -0.13235996525E+02 -0.38838494876E+01  0.13841418912E+02  0.00000000000E+00 0.  1.
</event>
<event>
 8    1  0.1253703E-006  0.9118800E+02  0.7816164E-02  0.1184000E+00
        -11   -1    0    0    0    0  0.00000000000E+00  0.00000000000E+00  0.45593999997E+02  0.45594000000E+02  0.51100000000E-03 0.  1.
         11   -1    0    0    0    0 -0.00000000000E+00 -0.00000000000E+00 -0.45593999997E+02  0.45594000000E+02  0.51100000000E-03 0. -1.
         23    2    1    2    0    0  0.00000000000E+00  0.00000000000E+00 -0.71054273576E-14  0.91188000000E+02  0.91188000000E+02 0.  0.
    9900012    2    3    3    0    0  0.10051576972E+02  0.16579595331E+02  0.31302769604E+02  0.54367074349E+02  0.39999977592E+02 0.  0.
         12    1    3    3    0    0 -0.10051576972E+02 -0.16579595331E+02 -0.31302769604E+02  0.36820925651E+02  0.00000000000E+00 0. -1.
         11    1    4    4    0    0  0.91732002681E+01  0.25971338856E+01  0.25702930113E+01  0.98741639648E+01  0.51100000000E-03 0. -1.
        -11    1    4    4    0    0  0.29158313947E+01  0.15021562864E+02  0.34796213325E+02  0.38012180754E+02  0.51100000000E-03 0.  1.
         12    1    4    4    0    0 -0.20374546904E+01 -0.10391014188E+01 -0.60637367329E+01  0.64807296303E+01  0.00000000000E+00 0. -1.
</event>
<event>
 8    1  0.1253703E-006  0.9118800E+02  0.7816164E-02  0.1184000E+00
        -11   -1    0    0    0    0  0.00000000000E+00  0.00000000000E+00  0.45593999997E+02  0.45594000000E+02  0.51100000000E-03 0. -1.
         11   -1    0    0    0    0 -0.00000000000E+00 -0.00000000000E+00 -0.45593999997E+02  0.45594000000E+02  0.51100000000E-03 0.  1.
         23    2    1    2    0    0  0.00000000000E+00  0.35527136788E-14  0.00000000000E+00  0.91188000000E+02  0.91188000000E+02 0.  0.
    9900012    2    3    3    0    0 -0.13693346758E+02  0.29692113983E+02  0.16930403590E+02  0.54367245744E+02  0.40000368322E+02 0.  0.
         12    1    3    3    0    0  0.13693346758E+02 -0.29692113983E+02 -0.16930403590E+02  0.36820754256E+02  0.00000000000E+00 0. -1.
         11    1    4    4    0    0 -0.70432452226E+00  0.26811960405E+01 -0.57097951901E+01  0.63471762709E+01  0.51100000000E-03 0. -1.
        -11    1    4    4    0    0 -0.11388421287E+02  0.92403227810E+01 -0.46759258552E+01  0.15392985005E+02  0.51100000000E-03 0.  1.
         12    1    4    4    0    0 -0.16006009490E+01  0.17770595161E+02  0.27316124636E+02  0.32627084468E+02  0.00000000000E+00 0. -1.
</event>
<event>
 8    1  0.1253703E-006  0.9118800E+02  0.7816164E-02  0.1184000E+00
        -11   -1    0    0    0    0  0.00000000000E+00  0.00000000000E+00  0.45593999997E+02  0.45594000000E+02  0.51100000000E-03 0. -1.
         11   -1    0    0    0    0 -0.00000000000E+00 -0.00000000000E+00 -0.45593999997E+02  0.45594000000E+02  0.51100000000E-03 0.  1.
         23    2    1    2    0    0  0.00000000000E+00 -0.71054273576E-14 -0.88817841970E-15  0.91188000000E+02  0.91188000000E+02 0.  0.
    9900012    2    3    3    0    0  0.10401725482E+02  0.34776052425E+02  0.61814079823E+01  0.54367088551E+02  0.40000009970E+02 0.  0.
        -12    1    3    3    0    0 -0.10401725482E+02 -0.34776052425E+02 -0.61814079823E+01  0.36820911449E+02  0.00000000000E+00 0.  1.
         11    1    4    4    0    0 -0.14833198342E+01  0.68162791936E+01  0.84424723061E+01  0.10951586126E+02  0.51100000000E-03 0. -1.
        -11    1    4    4    0    0 -0.11378438240E+01  0.24313404674E+02 -0.11617705560E+02  0.26970491619E+02  0.51100000000E-03 0.  1.
         12    1    4    4    0    0  0.13022889140E+02  0.36463685571E+01  0.93566412357E+01  0.16445010806E+02  0.00000000000E+00 0. -1.
</event>
<event>
 8    1  0.1253703E-006  0.9118800E+02  0.7816164E-02  0.1184000E+00
        -11   -1    0    0    0    0  0.00000000000E+00  0.00000000000E+00  0.45593999997E+02  0.45594000000E+02  0.51100000000E-03 0. -1.
         11   -1    0    0    0    0 -0.00000000000E+00 -0.00000000000E+00 -0.45593999997E+02  0.45594000000E+02  0.51100000000E-03 0.  1.
         23    2    1    2    0    0 -0.94715901788E-15  0.00000000000E+00  0.17763568394E-14  0.91188000000E+02  0.91188000000E+02 0.  0.
    9900012    2    3    3    0    0  0.14526850864E-01  0.34509533810E+02  0.12840225545E+02  0.54367088457E+02  0.40000009755E+02 0.  0.
        -12    1    3    3    0    0 -0.14526850864E-01 -0.34509533810E+02 -0.12840225545E+02  0.36820911543E+02  0.00000000000E+00 0.  1.
         11    1    4    4    0    0  0.96927042481E+01  0.26053825871E+02  0.19965369926E+02  0.34225229798E+02  0.51100000000E-03 0. -1.
        -11    1    4    4    0    0 -0.24619792135E+01 -0.38306491660E+01 -0.11910577985E+01  0.47067859120E+01  0.51100000000E-03 0.  1.
         12    1    4    4    0    0 -0.72161981837E+01  0.12286357105E+02 -0.59340865821E+01  0.15435072747E+02  0.00000000000E+00 0. -1.
</event>
<event>
 8    1  0.1253703E-006  0.9118800E+02  0.7816164E-02  0.1184000E+00
        -11   -1    0    0    0    0  0.00000000000E+00  0.00000000000E+00  0.45593999997E+02  0.45594000000E+02  0.51100000000E-03 0.  1.
         11   -1    0    0    0    0 -0.00000000000E+00 -0.00000000000E+00 -0.45593999997E+02  0.45594000000E+02  0.51100000000E-03 0. -1.
         23    2    1    2    0    0  0.88817841970E-15  0.00000000000E+00  0.00000000000E+00  0.91188000000E+02  0.91188000000E+02 0.  0.
    9900012    2    3    3    0    0  0.18408052414E+01 -0.96225636707E+01 -0.35493622070E+02  0.54367088779E+02  0.40000010489E+02 0.  0.
        -12    1    3    3    0    0 -0.18408052414E+01  0.96225636707E+01  0.35493622070E+02  0.36820911221E+02  0.00000000000E+00 0.  1.
         11    1    4    4    0    0  0.11547997697E+02  0.76867763492E+00 -0.26795119957E+02  0.29187764044E+02  0.51100000000E-03 0. -1.
        -11    1    4    4    0    0 -0.42840465662E+01  0.39254308689E+01 -0.79560397399E+01  0.98519353983E+01  0.51100000000E-03 0.  1.
        -12    1    4    4    0    0 -0.54231458895E+01 -0.14316672175E+02 -0.74246237292E+00  0.15327389336E+02  0.00000000000E+00 0.  1.
</event>
<event>
 8    1  0.1253703E-006  0.9118800E+02  0.7816164E-02  0.1184000E+00
        -11   -1    0    0    0    0  0.00000000000E+00  0.00000000000E+00  0.45593999997E+02  0.45594000000E+02  0.51100000000E-03 0.  1.
         11   -1    0    0    0    0 -0.00000000000E+00 -0.00000000000E+00 -0.45593999997E+02  0.45594000000E+02  0.51100000000E-03 0. -1.
         23    2    1    2    0    0  0.00000000000E+00  0.00000000000E+00  0.00000000000E+00  0.91188000000E+02  0.91188000000E+02 0.  0.
    9900012    2    3    3    0    0 -0.16717773622E+02 -0.23272275196E+02 -0.23123537134E+02  0.54367072292E+02  0.39999972904E+02 0.  0.
         12    1    3    3    0    0  0.16717773622E+02  0.23272275196E+02  0.23123537134E+02  0.36820927708E+02  0.00000000000E+00 0. -1.
         11    1    4    4    0    0  0.32072233427E+00 -0.55509412265E+01 -0.12184238214E+02  0.13392963542E+02  0.51100000000E-03 0. -1.
        -11    1    4    4    0    0 -0.26131376810E+02 -0.12244733250E+02 -0.75107271241E+01  0.29819345542E+02  0.51100000000E-03 0.  1.
        -12    1    4    4    0    0  0.90928808543E+01 -0.54766007196E+01 -0.34285717963E+01  0.11154763208E+02  0.00000000000E+00 0.  1.
</event>
<event>
 8    1  0.1253703E-006  0.9118800E+02  0.7816164E-02  0.1184000E+00
        -11   -1    0    0    0    0  0.00000000000E+00  0.00000000000E+00  0.45593999997E+02  0.45594000000E+02  0.51100000000E-03 0.  1.
         11   -1    0    0    0    0 -0.00000000000E+00 -0.00000000000E+00 -0.45593999997E+02  0.45594000000E+02  0.51100000000E-03 0. -1.
         23    2    1    2    0    0  0.00000000000E+00  0.00000000000E+00  0.17763568394E-14  0.91188000000E+02  0.91188000000E+02 0.  0.
    9900012    2    3    3    0    0  0.19136693607E+02 -0.29091699158E+02  0.11968284721E+02  0.54367084187E+02  0.40000000022E+02 0.  0.
        -12    1    3    3    0    0 -0.19136693607E+02  0.29091699158E+02 -0.11968284721E+02  0.36820915813E+02  0.00000000000E+00 0.  1.
         11    1    4    4    0    0 -0.17823070639E+01 -0.26694593402E+02  0.14213537463E+02  0.30295256772E+02  0.51100000000E-03 0. -1.
        -11    1    4    4    0    0  0.14389481968E+02  0.33343443051E+01  0.98268392335E+00  0.14803402015E+02  0.51100000000E-03 0.  1.
        -12    1    4    4    0    0  0.65295187029E+01 -0.57314500609E+01 -0.32279366653E+01  0.92684254006E+01  0.00000000000E+00 0.  1.
</event>
<event>
 8    1  0.1253703E-006  0.9118800E+02  0.7816164E-02  0.1184000E+00
        -11   -1    0    0    0    0  0.00000000000E+00  0.00000000000E+00  0.45593999997E+02  0.45594000000E+02  0.51100000000E-03 0. -1.
         11   -1    0    0    0    0 -0.00000000000E+00 -0.00000000000E+00 -0.45593999997E+02  0.45594000000E+02  0.51100000000E-03 0.  1.
         23    2    1    2    0    0  0.35527136788E-14 -0.17763568394E-14 -0.71054273576E-14  0.91188000000E+02  0.91188000000E+02 0.  0.
    9900012    2    3    3    0    0  0.17494933863E+02 -0.40160596573E+01 -0.32149310166E+02  0.54367087597E+02  0.40000007794E+02 0.  0.
         12    1    3    3    0    0 -0.17494933863E+02  0.40160596573E+01  0.32149310166E+02  0.36820912403E+02  0.00000000000E+00 0. -1.
         11    1    4    4    0    0  0.16747181492E+02 -0.12187555665E+02 -0.30217837178E+01  0.20931693150E+02  0.51100000000E-03 0. -1.
        -11    1    4    4    0    0 -0.54069092119E+01 -0.56772755712E+00 -0.70166891530E+01  0.88764243215E+01  0.51100000000E-03 0.  1.
         12    1    4    4    0    0  0.61546615833E+01  0.87392235650E+01 -0.22110837295E+02  0.24558970126E+02  0.00000000000E+00 0. -1.
</event>
<event>
 8    1  0.1253703E-006  0.9118800E+02  0.7816164E-02  0.1184000E+00
        -11   -1    0    0    0    0  0.00000000000E+00  0.00000000000E+00  0.45593999997E+02  0.45594000000E+02  0.51100000000E-03 0.  1.
         11   -1    0    0    0    0 -0.00000000000E+00 -0.00000000000E+00 -0.45593999997E+02  0.45594000000E+02  0.51100000000E-03 0. -1.
         23    2    1    2    0    0 -0.35527136788E-14  0.00000000000E+00 -0.35527136788E-14  0.91188000000E+02  0.91188000000E+02 0.  0.
    9900012    2    3    3    0    0  0.31590645910E+02  0.16710915559E+02 -0.88630899825E+01  0.54367109573E+02  0.40000057893E+02 0.  0.
         12    1    3    3    0    0 -0.31590645910E+02 -0.16710915559E+02  0.88630899825E+01  0.36820890427E+02  0.00000000000E+00 0. -1.
         11    1    4    4    0    0  0.27821509717E+01 -0.31625095999E+01  0.12786719763E+01  0.44019124575E+01  0.51100000000E-03 0. -1.
        -11    1    4    4    0    0 -0.26044267341E+01  0.13118772870E+02  0.52118312286E+01  0.14354386969E+02  0.51100000000E-03 0.  1.
         12    1    4    4    0    0  0.31412921672E+02  0.67546522888E+01 -0.15353593187E+02  0.35610810146E+02  0.00000000000E+00 0. -1.
</event>
<event>
 8    1  0.1253703E-006  0.9118800E+02  0.7816164E-02  0.1184000E+00
        -11   -1    0    0    0    0  0.00000000000E+00  0.00000000000E+00  0.45593999997E+02  0.45594000000E+02  0.51100000000E-03 0.  1.
         11   -1    0    0    0    0 -0.00000000000E+00 -0.00000000000E+00 -0.45593999997E+02  0.45594000000E+02  0.51100000000E-03 0. -1.
         23    2    1    2    0    0 -0.17763568394E-14 -0.35527136788E-14  0.35527136788E-14  0.91188000000E+02  0.91188000000E+02 0.  0.
    9900012    2    3    3    0    0  0.83316832239E+01 -0.27384926485E+02 -0.23161059569E+02  0.54367002943E+02  0.39999814809E+02 0.  0.
        -12    1    3    3    0    0 -0.83316832239E+01  0.27384926485E+02  0.23161059569E+02  0.36820997057E+02  0.00000000000E+00 0.  1.
         11    1    4    4    0    0 -0.59083451759E+00 -0.59356876984E+01 -0.10111521389E+02  0.11739861113E+02  0.51100000000E-03 0. -1.
        -11    1    4    4    0    0 -0.98216040961E+00 -0.98810501834E+01  0.10583404712E+02  0.14512348099E+02  0.51100000000E-03 0.  1.
         12    1    4    4    0    0  0.99046781511E+01 -0.11568188603E+02 -0.23632942891E+02  0.28114793731E+02  0.00000000000E+00 0. -1.
</event>
<event>
 8    1  0.1253703E-006  0.9118800E+02  0.7816164E-02  0.1184000E+00
        -11   -1    0    0    0    0  0.00000000000E+00  0.00000000000E+00  0.45593999997E+02  0.45594000000E+02  0.51100000000E-03 0.  1.
         11   -1    0    0    0    0 -0.00000000000E+00 -0.00000000000E+00 -0.45593999997E+02  0.45594000000E+02  0.51100000000E-03 0. -1.
         23    2    1    2    0    0  0.17763568394E-14  0.88817841970E-15  0.00000000000E+00  0.91188000000E+02  0.91188000000E+02 0.  0.
    9900012    2    3    3    0    0  0.12182464312E+02  0.50221629384E+01 -0.34382340741E+02  0.54367083226E+02  0.39999997829E+02 0.  0.
        -12    1    3    3    0    0 -0.12182464312E+02 -0.50221629384E+01  0.34382340741E+02  0.36820916774E+02  0.00000000000E+00 0.  1.
         11    1    4    4    0    0  0.29874595355E+01  0.96985687505E+01 -0.14830068417E+02  0.17969921530E+02  0.51100000000E-03 0. -1.
        -11    1    4    4    0    0 -0.67757626530E+01 -0.73754690901E+01  0.11835451919E+01  0.10085102048E+02  0.51100000000E-03 0.  1.
        -12    1    4    4    0    0  0.15970767430E+02  0.26990632780E+01 -0.20735817515E+02  0.26312059648E+02  0.00000000000E+00 0.  1.
</event>
<event>
 8    1  0.1253703E-006  0.9118800E+02  0.7816164E-02  0.1184000E+00
        -11   -1    0    0    0    0  0.00000000000E+00  0.00000000000E+00  0.45593999997E+02  0.45594000000E+02  0.51100000000E-03 0. -1.
         11   -1    0    0    0    0 -0.00000000000E+00 -0.00000000000E+00 -0.45593999997E+02  0.45594000000E+02  0.51100000000E-03 0.  1.
         23    2    1    2    0    0 -0.10824674490E-14  0.00000000000E+00  0.71054273576E-14  0.91188000000E+02  0.91188000000E+02 0.  0.
    9900012    2    3    3    0    0 -0.23945513306E+00  0.11710716294E+02 -0.34908200798E+02  0.54367072556E+02  0.39999973507E+02 0.  0.
         12    1    3    3    0    0  0.23945513306E+00 -0.11710716294E+02  0.34908200798E+02  0.36820927444E+02  0.00000000000E+00 0. -1.
         11    1    4    4    0    0  0.13138923770E+01 -0.17514283191E+00  0.31942927358E+01  0.34583947914E+01  0.51100000000E-03 0. -1.
        -11    1    4    4    0    0  0.47907866097E+01  0.13634745286E+02 -0.24551349567E+01  0.14658976883E+02  0.51100000000E-03 0.  1.
        -12    1    4    4    0    0 -0.63441341197E+01 -0.17488861597E+01 -0.35647358577E+02  0.36249700882E+02  0.00000000000E+00 0.  1.
</event>
<event>
 8    1  0.1253703E-006  0.9118800E+02  0.7816164E-02  0.1184000E+00
        -11   -1    0    0    0    0  0.00000000000E+00  0.00000000000E+00  0.45593999997E+02  0.45594000000E+02  0.51100000000E-03 0.  1.
         11   -1    0    0    0    0 -0.00000000000E+00 -0.00000000000E+00 -0.45593999997E+02  0.45594000000E+02  0.51100000000E-03 0. -1.
         23    2    1    2    0    0  0.35527136788E-14  0.35527136788E-14 -0.17763568394E-14  0.91188000000E+02  0.91188000000E+02 0.  0.
    9900012    2    3    3    0    0  0.24876163223E+02  0.26531226972E+02 -0.57487186737E+01  0.54367119134E+02  0.40000079690E+02 0.  0.
         12    1    3    3    0    0 -0.24876163223E+02 -0.26531226972E+02  0.57487186737E+01  0.36820880866E+02  0.00000000000E+00 0. -1.
         11    1    4    4    0    0  0.11793537715E+02  0.26933014167E+00 -0.97636911315E+01  0.15313057674E+02  0.51100000000E-03 0. -1.
        -11    1    4    4    0    0  0.26592744049E+01  0.32739081605E+01  0.11887919492E+02  0.12613994019E+02  0.51100000000E-03 0.  1.
         12    1    4    4    0    0  0.10423351103E+02  0.22987988670E+02 -0.78729470337E+01  0.26440067442E+02  0.00000000000E+00 0. -1.
</event>
<event>
 8    1  0.1253703E-006  0.9118800E+02  0.7816164E-02  0.1184000E+00
        -11   -1    0    0    0    0  0.00000000000E+00  0.00000000000E+00  0.45593999997E+02  0.45594000000E+02  0.51100000000E-03 0.  1.
         11   -1    0    0    0    0 -0.00000000000E+00 -0.00000000000E+00 -0.45593999997E+02  0.45594000000E+02  0.51100000000E-03 0. -1.
         23    2    1    2    0    0  0.00000000000E+00  0.00000000000E+00  0.17763568394E-14  0.91188000000E+02  0.91188000000E+02 0.  0.
    9900012    2    3    3    0    0  0.32388074520E+02 -0.16297361100E+02 -0.64186873571E+01  0.54366934055E+02  0.39999657764E+02 0.  0.
        -12    1    3    3    0    0 -0.32388074520E+02  0.16297361100E+02  0.64186873571E+01  0.36821065945E+02  0.00000000000E+00 0.  1.
         11    1    4    4    0    0  0.24157947288E+02 -0.87707271841E+01 -0.17394851256E+02  0.31034060692E+02  0.51100000000E-03 0. -1.
        -11    1    4    4    0    0  0.80223650713E+01 -0.11822398984E+02  0.35029463531E+01  0.14710475603E+02  0.51100000000E-03 0.  1.
         12    1    4    4    0    0  0.20776216052E+00  0.42957650680E+01  0.74732175463E+01  0.86223977598E+01  0.00000000000E+00 0. -1.
</event>
<event>
 8    1  0.1253703E-006  0.9118800E+02  0.7816164E-02  0.1184000E+00
        -11   -1    0    0    0    0  0.00000000000E+00  0.00000000000E+00  0.45593999997E+02  0.45594000000E+02  0.51100000000E-03 0. -1.
         11   -1    0    0    0    0 -0.00000000000E+00 -0.00000000000E+00 -0.45593999997E+02  0.45594000000E+02  0.51100000000E-03 0.  1.
         23    2    1    2    0    0  0.00000000000E+00 -0.66613381478E-15 -0.35527136788E-14  0.91188000000E+02  0.91188000000E+02 0.  0.
    9900012    2    3    3    0    0 -0.23643893487E+02  0.91240801355E+00  0.28211909790E+02  0.54367108626E+02  0.40000055735E+02 0.  0.
        -12    1    3    3    0    0  0.23643893487E+02 -0.91240801355E+00 -0.28211909790E+02  0.36820891374E+02  0.00000000000E+00 0.  1.
         11    1    4    4    0    0 -0.50575782163E+01  0.16658968053E+01  0.57452804298E+01  0.78334256273E+01  0.51100000000E-03 0. -1.
        -11    1    4    4    0    0 -0.38137283038E+01 -0.10731093927E+02  0.25977988451E+02  0.28364710199E+02  0.51100000000E-03 0.  1.
        -12    1    4    4    0    0 -0.14772586967E+02  0.99776051354E+01 -0.35113590913E+01  0.18168972800E+02  0.00000000000E+00 0.  1.
</event>
<event>
 8    1  0.1253703E-006  0.9118800E+02  0.7816164E-02  0.1184000E+00
        -11   -1    0    0    0    0  0.00000000000E+00  0.00000000000E+00  0.45593999997E+02  0.45594000000E+02  0.51100000000E-03 0.  1.
         11   -1    0    0    0    0 -0.00000000000E+00 -0.00000000000E+00 -0.45593999997E+02  0.45594000000E+02  0.51100000000E-03 0. -1.
         23    2    1    2    0    0 -0.88817841970E-15 -0.71054273576E-14 -0.26645352591E-14  0.91188000000E+02  0.91188000000E+02 0.  0.
    9900012    2    3    3    0    0  0.65210776811E+01  0.35413825742E+02  0.76886931714E+01  0.54367088680E+02  0.40000010263E+02 0.  0.
         12    1    3    3    0    0 -0.65210776811E+01 -0.35413825742E+02 -0.76886931714E+01  0.36820911320E+02  0.00000000000E+00 0. -1.
         11    1    4    4    0    0  0.13693568495E+01  0.16707026967E+02 -0.85117690686E+01  0.18800268647E+02  0.51100000000E-03 0. -1.
        -11    1    4    4    0    0  0.31444790247E+00 -0.59818762596E+01  0.58181565074E+01  0.83506087488E+01  0.51100000000E-03 0.  1.
         12    1    4    4    0    0  0.48372729292E+01  0.24688675034E+02  0.10382305733E+02  0.27216211284E+02  0.00000000000E+00 0. -1.
</event>
<event>
 8    1  0.1253703E-006  0.9118800E+02  0.7816164E-02  0.1184000E+00
        -11   -1    0    0    0    0  0.00000000000E+00  0.00000000000E+00  0.45593999997E+02  0.45594000000E+02  0.51100000000E-03 0.  1.
         11   -1    0    0    0    0 -0.00000000000E+00 -0.00000000000E+00 -0.45593999997E+02  0.45594000000E+02  0.51100000000E-03 0. -1.
         23    2    1    2    0    0  0.00000000000E+00 -0.35527136788E-14  0.35527136788E-14  0.91188000000E+02  0.91188000000E+02 0.  0.
    9900012    2    3    3    0    0 -0.12592009003E+02  0.26408548044E+02  0.22356415491E+02  0.54367089987E+02  0.40000013244E+02 0.  0.
         12    1    3    3    0    0  0.12592009003E+02 -0.26408548044E+02 -0.22356415491E+02  0.36820910013E+02  0.00000000000E+00 0. -1.
         11    1    4    4    0    0  0.49355003709E+01  0.24610131663E+01  0.20569927324E+01  0.58861676053E+01  0.51100000000E-03 0. -1.
        -11    1    4    4    0    0  0.15036796133E+01  0.12377979779E+02  0.22882917029E+02  0.26059611044E+02  0.51100000000E-03 0.  1.
         12    1    4    4    0    0 -0.19031188987E+02  0.11569555099E+02 -0.25834942698E+01  0.22421311338E+02  0.00000000000E+00 0. -1.
</event>
<event>
 8    1  0.1253703E-006  0.9118800E+02  0.7816164E-02  0.1184000E+00
        -11   -1    0    0    0    0  0.00000000000E+00  0.00000000000E+00  0.45593999997E+02  0.45594000000E+02  0.51100000000E-03 0.  1.
         11   -1    0    0    0    0 -0.00000000000E+00 -0.00000000000E+00 -0.45593999997E+02  0.45594000000E+02  0.51100000000E-03 0. -1.
         23    2    1    2    0    0  0.00000000000E+00  0.00000000000E+00  0.35527136788E-14  0.91188000000E+02  0.91188000000E+02 0.  0.
    9900012    2    3    3    0    0 -0.17381369246E+02  0.25226019048E+02  0.20428310627E+02  0.54367083268E+02  0.39999997927E+02 0.  0.
        -12    1    3    3    0    0  0.17381369246E+02 -0.25226019048E+02 -0.20428310627E+02  0.36820916732E+02  0.00000000000E+00 0.  1.
         11    1    4    4    0    0 -0.16545751706E+02  0.30239368211E+02  0.95115156852E+01  0.35758218918E+02  0.51100000000E-03 0. -1.
        -11    1    4    4    0    0  0.45286003639E+01 -0.73784255236E+01  0.39851148301E+01  0.95305049674E+01  0.51100000000E-03 0.  1.
        -12    1    4    4    0    0 -0.53642179042E+01  0.23650763612E+01  0.69316801114E+01  0.90783593829E+01  0.00000000000E+00 0.  1.
</event>
<event>
 8    1  0.1253703E-006  0.9118800E+02  0.7816164E-02  0.1184000E+00
        -11   -1    0    0    0    0  0.00000000000E+00  0.00000000000E+00  0.45593999997E+02  0.45594000000E+02  0.51100000000E-03 0.  1.
         11   -1    0    0    0    0 -0.00000000000E+00 -0.00000000000E+00 -0.45593999997E+02  0.45594000000E+02  0.51100000000E-03 0. -1.
         23    2    1    2    0    0  0.35527136788E-14  0.00000000000E+00  0.17763568394E-14  0.91188000000E+02  0.91188000000E+02 0.  0.
    9900012    2    3    3    0    0 -0.24574148168E+02  0.26141409866E+02 -0.82775611872E+01  0.54367080849E+02  0.39999992411E+02 0.  0.
         12    1    3    3    0    0  0.24574148168E+02 -0.26141409866E+02  0.82775611872E+01  0.36820919151E+02  0.00000000000E+00 0. -1.
         11    1    4    4    0    0 -0.40511323553E+01  0.46155470669E+01  0.85862009426E+01  0.10556410137E+02  0.51100000000E-03 0. -1.
        -11    1    4    4    0    0 -0.18736444093E+02  0.53847637648E+01  0.11856348244E+01  0.19530892152E+02  0.51100000000E-03 0.  1.
         12    1    4    4    0    0 -0.17865717196E+01  0.16141099034E+02 -0.18049396954E+02  0.24279778561E+02  0.00000000000E+00 0. -1.
</event>
<event>
 8    1  0.1253703E-006  0.9118800E+02  0.7816164E-02  0.1184000E+00
        -11   -1    0    0    0    0  0.00000000000E+00  0.00000000000E+00  0.45593999997E+02  0.45594000000E+02  0.51100000000E-03 0.  1.
         11   -1    0    0    0    0 -0.00000000000E+00 -0.00000000000E+00 -0.45593999997E+02  0.45594000000E+02  0.51100000000E-03 0. -1.
         23    2    1    2    0    0  0.35527136788E-14 -0.17763568394E-14  0.00000000000E+00  0.91188000000E+02  0.91188000000E+02 0.  0.
    9900012    2    3    3    0    0  0.21655210318E+02 -0.82673090734E+01 -0.28609111322E+02  0.54367112126E+02  0.40000063713E+02 0.  0.
        -12    1    3    3    0    0 -0.21655210318E+02  0.82673090734E+01  0.28609111322E+02  0.36820887874E+02  0.00000000000E+00 0.  1.
         11    1    4    4    0    0  0.83025178765E+01 -0.89980198480E+01 -0.24662010955E+01  0.12489127767E+02  0.51100000000E-03 0. -1.
        -11    1    4    4    0    0  0.33622822346E+01  0.13517560354E+02 -0.41265815503E+01  0.14527837255E+02  0.51100000000E-03 0.  1.
         12    1    4    4    0    0  0.99904102067E+01 -0.12786849579E+02 -0.22016328676E+02  0.27350147104E+02  0.00000000000E+00 0. -1.
</event>
<event>
 8    1  0.1253703E-006  0.9118800E+02  0.7816164E-02  0.1184000E+00
        -11   -1    0    0    0    0  0.00000000000E+00  0.00000000000E+00  0.45593999997E+02  0.45594000000E+02  0.51100000000E-03 0. -1.
         11   -1    0    0    0    0 -0.00000000000E+00 -0.00000000000E+00 -0.45593999997E+02  0.45594000000E+02  0.51100000000E-03 0.  1.
         23    2    1    2    0    0  0.00000000000E+00  0.17763568394E-14  0.22204460493E-15  0.91188000000E+02  0.91188000000E+02 0.  0.
    9900012    2    3    3    0    0  0.34269207392E+02  0.13335360242E+02 -0.18887055199E+01  0.54367114397E+02  0.40000068890E+02 0.  0.
        -12    1    3    3    0    0 -0.34269207392E+02 -0.13335360242E+02  0.18887055199E+01  0.36820885603E+02  0.00000000000E+00 0.  1.
         11    1    4    4    0    0  0.20446774673E+02 -0.55617270407E+01  0.74927649171E+00  0.21202943610E+02  0.51100000000E-03 0.  1.
        -11    1    4    4    0    0  0.14400787981E+02  0.40244381588E+00 -0.27166713276E+01  0.14660319193E+02  0.51100000000E-03 0. -1.
         12    1    4    4    0    0 -0.57835526146E+00  0.18494643467E+02  0.78689315987E-01  0.18503851593E+02  0.00000000000E+00 0. -1.
</event>
<event>
 8    1  0.1253703E-006  0.9118800E+02  0.7816164E-02  0.1184000E+00
        -11   -1    0    0    0    0  0.00000000000E+00  0.00000000000E+00  0.45593999997E+02  0.45594000000E+02  0.51100000000E-03 0.  1.
         11   -1    0    0    0    0 -0.00000000000E+00 -0.00000000000E+00 -0.45593999997E+02  0.45594000000E+02  0.51100000000E-03 0. -1.
         23    2    1    2    0    0 -0.71054273576E-14  0.00000000000E+00 -0.17763568394E-14  0.91188000000E+02  0.91188000000E+02 0.  0.
    9900012    2    3    3    0    0  0.28026296300E+02 -0.22411251903E+02  0.82487887680E+01  0.54367081865E+02  0.39999994727E+02 0.  0.
         12    1    3    3    0    0 -0.28026296300E+02  0.22411251903E+02 -0.82487887680E+01  0.36820918135E+02  0.00000000000E+00 0. -1.
         11    1    4    4    0    0  0.17987177910E+01 -0.20429795161E+01  0.37026659920E+01  0.45955289907E+01  0.51100000000E-03 0. -1.
        -11    1    4    4    0    0  0.35813213018E+01 -0.10147897570E+02  0.18406348209E+02  0.21321335371E+02  0.51100000000E-03 0.  1.
         12    1    4    4    0    0  0.22646257207E+02 -0.10220374818E+02 -0.13860225433E+02  0.28450217503E+02  0.00000000000E+00 0. -1.
</event>
<event>
 8    1  0.1253703E-006  0.9118800E+02  0.7816164E-02  0.1184000E+00
        -11   -1    0    0    0    0  0.00000000000E+00  0.00000000000E+00  0.45593999997E+02  0.45594000000E+02  0.51100000000E-03 0.  1.
         11   -1    0    0    0    0 -0.00000000000E+00 -0.00000000000E+00 -0.45593999997E+02  0.45594000000E+02  0.51100000000E-03 0. -1.
         23    2    1    2    0    0 -0.35527136788E-14  0.00000000000E+00  0.00000000000E+00  0.91188000000E+02  0.91188000000E+02 0.  0.
    9900012    2    3    3    0    0 -0.11718236651E+02  0.25638102238E+02  0.23688602947E+02  0.54367091997E+02  0.40000017826E+02 0.  0.
         12    1    3    3    0    0  0.11718236651E+02 -0.25638102238E+02 -0.23688602947E+02  0.36820908003E+02  0.00000000000E+00 0. -1.
         11    1    4    4    0    0  0.22876112130E+01 -0.21952647264E+01 -0.15575305475E+01  0.35324572112E+01  0.51100000000E-03 0. -1.
        -11    1    4    4    0    0  0.81487256137E+01  0.96604273581E+01  0.16679827895E+02  0.20927069664E+02  0.51100000000E-03 0.  1.
        -12    1    4    4    0    0 -0.22154573477E+02  0.18172939606E+02  0.85663055995E+01  0.29907565122E+02  0.00000000000E+00 0.  1.
</event>
<event>
 8    1  0.1253703E-006  0.9118800E+02  0.7816164E-02  0.1184000E+00
        -11   -1    0    0    0    0  0.00000000000E+00  0.00000000000E+00  0.45593999997E+02  0.45594000000E+02  0.51100000000E-03 0. -1.
         11   -1    0    0    0    0 -0.00000000000E+00 -0.00000000000E+00 -0.45593999997E+02  0.45594000000E+02  0.51100000000E-03 0.  1.
         23    2    1    2    0    0  0.00000000000E+00  0.35527136788E-14 -0.12507356262E-14  0.91188000000E+02  0.91188000000E+02 0.  0.
    9900012    2    3    3    0    0  0.20107993062E+02  0.30845526188E+02  0.92221943521E-02  0.54367109790E+02  0.40000058389E+02 0.  0.
         12    1    3    3    0    0 -0.20107993062E+02 -0.30845526188E+02 -0.92221943521E-02  0.36820890210E+02  0.00000000000E+00 0. -1.
         11    1    4    4    0    0  0.16936045135E+02  0.16608925144E+02 -0.54958148732E+01  0.24349332653E+02  0.51100000000E-03 0. -1.
        -11    1    4    4    0    0  0.13467841530E+02  0.74315226577E+01 -0.20944807078E+01  0.15524082394E+02  0.51100000000E-03 0.  1.
         12    1    4    4    0    0 -0.10295893602E+02  0.68050783859E+01  0.75995177753E+01  0.14493694744E+02  0.00000000000E+00 0. -1.
</event>
<event>
 8    1  0.1253703E-006  0.9118800E+02  0.7816164E-02  0.1184000E+00
        -11   -1    0    0    0    0  0.00000000000E+00  0.00000000000E+00  0.45593999997E+02  0.45594000000E+02  0.51100000000E-03 0. -1.
         11   -1    0    0    0    0 -0.00000000000E+00 -0.00000000000E+00 -0.45593999997E+02  0.45594000000E+02  0.51100000000E-03 0.  1.
         23    2    1    2    0    0 -0.17763568394E-14  0.00000000000E+00  0.00000000000E+00  0.91188000000E+02  0.91188000000E+02 0.  0.
    9900012    2    3    3    0    0  0.11039397592E+02  0.29135516491E+02  0.19622331635E+02  0.54367047823E+02  0.39999917123E+02 0.  0.
        -12    1    3    3    0    0 -0.11039397592E+02 -0.29135516491E+02 -0.19622331635E+02  0.36820952177E+02  0.00000000000E+00 0.  1.
         11    1    4    4    0    0  0.12153476639E+02  0.70980100821E+01 -0.40915034760E+01  0.14657050948E+02  0.51100000000E-03 0. -1.
        -11    1    4    4    0    0  0.26048292863E+01  0.10448143461E+02 -0.22808878107E+01  0.11006874528E+02  0.51100000000E-03 0.  1.
         12    1    4    4    0    0 -0.37189083336E+01  0.11589362948E+02  0.25994722921E+02  0.28703122347E+02  0.00000000000E+00 0. -1.
</event>
<event>
 8    1  0.1253703E-006  0.9118800E+02  0.7816164E-02  0.1184000E+00
        -11   -1    0    0    0    0  0.00000000000E+00  0.00000000000E+00  0.45593999997E+02  0.45594000000E+02  0.51100000000E-03 0. -1.
         11   -1    0    0    0    0 -0.00000000000E+00 -0.00000000000E+00 -0.45593999997E+02  0.45594000000E+02  0.51100000000E-03 0.  1.
         23    2    1    2    0    0  0.00000000000E+00 -0.17763568394E-14  0.00000000000E+00  0.91188000000E+02  0.91188000000E+02 0.  0.
    9900012    2    3    3    0    0 -0.29084845766E+02 -0.15539049247E+02 -0.16382562773E+02  0.54367100123E+02  0.40000036350E+02 0.  0.
         12    1    3    3    0    0  0.29084845766E+02  0.15539049247E+02  0.16382562773E+02  0.36820899877E+02  0.00000000000E+00 0. -1.
         11    1    4    4    0    0 -0.56488570219E+01  0.94083245879E+01 -0.24185389355E+01  0.11237236673E+02  0.51100000000E-03 0. -1.
        -11    1    4    4    0    0 -0.22306771364E+02 -0.29002016938E+02 -0.12802974890E+02  0.38763709851E+02  0.51100000000E-03 0.  1.
        -12    1    4    4    0    0 -0.11292173803E+01  0.40546431032E+01 -0.11610489474E+01  0.43661535984E+01  0.00000000000E+00 0.  1.
</event>
<event>
 8    1  0.1253703E-006  0.9118800E+02  0.7816164E-02  0.1184000E+00
        -11   -1    0    0    0    0  0.00000000000E+00  0.00000000000E+00  0.45593999997E+02  0.45594000000E+02  0.51100000000E-03 0.  1.
         11   -1    0    0    0    0 -0.00000000000E+00 -0.00000000000E+00 -0.45593999997E+02  0.45594000000E+02  0.51100000000E-03 0. -1.
         23    2    1    2    0    0  0.00000000000E+00  0.17763568394E-14  0.00000000000E+00  0.91188000000E+02  0.91188000000E+02 0.  0.
    9900012    2    3    3    0    0 -0.30220640402E+02  0.13357733778E+02 -0.16250035879E+02  0.54367084422E+02  0.40000000556E+02 0.  0.
        -12    1    3    3    0    0  0.30220640402E+02 -0.13357733778E+02  0.16250035879E+02  0.36820915578E+02  0.00000000000E+00 0.  1.
         11    1    4    4    0    0  0.35306841331E+01 -0.85587774473E+01 -0.37058183004E+01  0.99725368576E+01  0.51100000000E-03 0. -1.
        -11    1    4    4    0    0 -0.25957907643E+01  0.79518255476E+01 -0.35554784278E+01  0.90890641071E+01  0.51100000000E-03 0.  1.
         12    1    4    4    0    0 -0.31155533770E+02  0.13964685678E+02 -0.89887391505E+01  0.35305483457E+02  0.00000000000E+00 0. -1.
</event>
<event>
 8    1  0.1253703E-006  0.9118800E+02  0.7816164E-02  0.1184000E+00
        -11   -1    0    0    0    0  0.00000000000E+00  0.00000000000E+00  0.45593999997E+02  0.45594000000E+02  0.51100000000E-03 0. -1.
         11   -1    0    0    0    0 -0.00000000000E+00 -0.00000000000E+00 -0.45593999997E+02  0.45594000000E+02  0.51100000000E-03 0.  1.
         23    2    1    2    0    0  0.00000000000E+00  0.17763568394E-14  0.00000000000E+00  0.91188000000E+02  0.91188000000E+02 0.  0.
    9900012    2    3    3    0    0 -0.10882908882E+02 -0.11663789554E+02  0.33185804621E+02  0.54367091254E+02  0.40000016133E+02 0.  0.
        -12    1    3    3    0    0  0.10882908882E+02  0.11663789554E+02 -0.33185804621E+02  0.36820908746E+02  0.00000000000E+00 0.  1.
         11    1    4    4    0    0 -0.54512861042E+01  0.64442668382E+00 -0.31296522151E+01  0.63187442732E+01  0.51100000000E-03 0. -1.
        -11    1    4    4    0    0  0.99577206628E+01 -0.49332113328E+01  0.45879579259E+01  0.12022567656E+02  0.51100000000E-03 0.  1.
         12    1    4    4    0    0 -0.15389343441E+02 -0.73750049050E+01  0.31727498910E+02  0.36025779325E+02  0.00000000000E+00 0. -1.
</event>
<event>
 8    1  0.1253703E-006  0.9118800E+02  0.7816164E-02  0.1184000E+00
        -11   -1    0    0    0    0  0.00000000000E+00  0.00000000000E+00  0.45593999997E+02  0.45594000000E+02  0.51100000000E-03 0.  1.
         11   -1    0    0    0    0 -0.00000000000E+00 -0.00000000000E+00 -0.45593999997E+02  0.45594000000E+02  0.51100000000E-03 0. -1.
         23    2    1    2    0    0 -0.17763568394E-14  0.35527136788E-14 -0.35527136788E-14  0.91188000000E+02  0.91188000000E+02 0.  0.
    9900012    2    3    3    0    0  0.10677990993E+02 -0.29465593212E+02  0.19327132655E+02  0.54367099255E+02  0.40000034372E+02 0.  0.
         12    1    3    3    0    0 -0.10677990993E+02  0.29465593212E+02 -0.19327132655E+02  0.36820900745E+02  0.00000000000E+00 0. -1.
         11    1    4    4    0    0 -0.61122893100E+01  0.57032148477E+01  0.95755794892E+01  0.12711351739E+02  0.51100000000E-03 0. -1.
        -11    1    4    4    0    0  0.77429346341E+01 -0.26918792135E+02  0.88649768579E+01  0.29379622559E+02  0.51100000000E-03 0.  1.
         12    1    4    4    0    0  0.90473456692E+01 -0.82500159247E+01  0.88657630812E+00  0.12276124957E+02  0.00000000000E+00 0. -1.
</event>
<event>
 8    1  0.1253703E-006  0.9118800E+02  0.7816164E-02  0.1184000E+00
        -11   -1    0    0    0    0  0.00000000000E+00  0.00000000000E+00  0.45593999997E+02  0.45594000000E+02  0.51100000000E-03 0. -1.
         11   -1    0    0    0    0 -0.00000000000E+00 -0.00000000000E+00 -0.45593999997E+02  0.45594000000E+02  0.51100000000E-03 0.  1.
         23    2    1    2    0    0  0.00000000000E+00  0.35527136788E-14 -0.35527136788E-14  0.91188000000E+02  0.91188000000E+02 0.  0.
    9900012    2    3    3    0    0  0.10221314567E+02 -0.26512517947E+02 -0.23417712812E+02  0.54367107117E+02  0.40000052296E+02 0.  0.
         12    1    3    3    0    0 -0.10221314567E+02  0.26512517947E+02  0.23417712812E+02  0.36820892883E+02  0.00000000000E+00 0. -1.
         11    1    4    4    0    0  0.13207466002E+02 -0.22534667246E+02 -0.11293583796E+01  0.26144288797E+02  0.51100000000E-03 0. -1.
        -11    1    4    4    0    0 -0.73914824552E+01  0.19475091208E+01 -0.42819569881E+01  0.87613903331E+01  0.51100000000E-03 0.  1.
         12    1    4    4    0    0  0.44053310204E+01 -0.59253598215E+01 -0.18006397444E+02  0.19461427988E+02  0.00000000000E+00 0. -1.
</event>
<event>
 8    1  0.1253703E-006  0.9118800E+02  0.7816164E-02  0.1184000E+00
        -11   -1    0    0    0    0  0.00000000000E+00  0.00000000000E+00  0.45593999997E+02  0.45594000000E+02  0.51100000000E-03 0. -1.
         11   -1    0    0    0    0 -0.00000000000E+00 -0.00000000000E+00 -0.45593999997E+02  0.45594000000E+02  0.51100000000E-03 0.  1.
         23    2    1    2    0    0 -0.17763568394E-14  0.00000000000E+00  0.00000000000E+00  0.91188000000E+02  0.91188000000E+02 0.  0.
    9900012    2    3    3    0    0  0.89946771119E+01 -0.25146330067E+02 -0.25348327234E+02  0.54367084398E+02  0.40000000502E+02 0.  0.
         12    1    3    3    0    0 -0.89946771119E+01  0.25146330067E+02  0.25348327234E+02  0.36820915602E+02  0.00000000000E+00 0. -1.
         11    1    4    4    0    0  0.37023165915E+01  0.59667316705E+01 -0.13924099483E+01  0.71587597178E+01  0.51100000000E-03 0. -1.
        -11    1    4    4    0    0  0.13689957011E+00 -0.27733518687E+02 -0.62077765199E+01  0.28420121214E+02  0.51100000000E-03 0.  1.
         12    1    4    4    0    0  0.51554609502E+01 -0.33795430512E+01 -0.17748140766E+02  0.18788203466E+02  0.00000000000E+00 0. -1.
</event>
<event>
 8    1  0.1253703E-006  0.9118800E+02  0.7816164E-02  0.1184000E+00
        -11   -1    0    0    0    0  0.00000000000E+00  0.00000000000E+00  0.45593999997E+02  0.45594000000E+02  0.51100000000E-03 0.  1.
         11   -1    0    0    0    0 -0.00000000000E+00 -0.00000000000E+00 -0.45593999997E+02  0.45594000000E+02  0.51100000000E-03 0. -1.
         23    2    1    2    0    0  0.00000000000E+00  0.00000000000E+00  0.00000000000E+00  0.91188000000E+02  0.91188000000E+02 0.  0.
    9900012    2    3    3    0    0 -0.29017453217E+02 -0.12422864021E+02  0.18958862727E+02  0.54367100804E+02  0.40000037904E+02 0.  0.
         12    1    3    3    0    0  0.29017453217E+02  0.12422864021E+02 -0.18958862727E+02  0.36820899196E+02  0.00000000000E+00 0. -1.
         11    1    4    4    0    0  0.43465811293E+01 -0.45273018304E+00 -0.47284064598E+01  0.64385992298E+01  0.51100000000E-03 0. -1.
        -11    1    4    4    0    0 -0.13987491680E+02 -0.15408716465E+02  0.17807769889E+02  0.27389690310E+02  0.51100000000E-03 0.  1.
        -12    1    4    4    0    0 -0.19376542666E+02  0.34385826270E+01  0.58794992971E+01  0.20538811264E+02  0.00000000000E+00 0.  1.
</event>
<event>
 8    1  0.1253703E-006  0.9118800E+02  0.7816164E-02  0.1184000E+00
        -11   -1    0    0    0    0  0.00000000000E+00  0.00000000000E+00  0.45593999997E+02  0.45594000000E+02  0.51100000000E-03 0.  1.
         11   -1    0    0    0    0 -0.00000000000E+00 -0.00000000000E+00 -0.45593999997E+02  0.45594000000E+02  0.51100000000E-03 0. -1.
         23    2    1    2    0    0  0.35527136788E-14  0.44408920985E-15  0.00000000000E+00  0.91188000000E+02  0.91188000000E+02 0.  0.
    9900012    2    3    3    0    0  0.64109858848E+01 -0.19198345007E+01 -0.36207643679E+02  0.54367082503E+02  0.39999996183E+02 0.  0.
        -12    1    3    3    0    0 -0.64109858848E+01  0.19198345007E+01  0.36207643679E+02  0.36820917497E+02  0.00000000000E+00 0.  1.
         11    1    4    4    0    0  0.62478722564E+01 -0.83185869123E+01 -0.22849594698E+02  0.25106548430E+02  0.51100000000E-03 0. -1.
        -11    1    4    4    0    0 -0.12327897435E+02  0.12646603757E+01 -0.49035504789E+01  0.13327461446E+02  0.51100000000E-03 0.  1.
        -12    1    4    4    0    0  0.12491011064E+02  0.51340920358E+01 -0.84544985024E+01  0.15933072627E+02  0.00000000000E+00 0.  1.
</event>
<event>
 8    1  0.1253703E-006  0.9118800E+02  0.7816164E-02  0.1184000E+00
        -11   -1    0    0    0    0  0.00000000000E+00  0.00000000000E+00  0.45593999997E+02  0.45594000000E+02  0.51100000000E-03 0.  1.
         11   -1    0    0    0    0 -0.00000000000E+00 -0.00000000000E+00 -0.45593999997E+02  0.45594000000E+02  0.51100000000E-03 0. -1.
         23    2    1    2    0    0  0.00000000000E+00  0.00000000000E+00  0.00000000000E+00  0.91188000000E+02  0.91188000000E+02 0.  0.
    9900012    2    3    3    0    0 -0.32576868336E+02 -0.11106044267E+02  0.13083784282E+02  0.54367055132E+02  0.39999933785E+02 0.  0.
         12    1    3    3    0    0  0.32576868336E+02  0.11106044267E+02 -0.13083784282E+02  0.36820944868E+02  0.00000000000E+00 0. -1.
         11    1    4    4    0    0 -0.76577434643E+01 -0.75253367375E+01  0.10838713961E+02  0.15256128230E+02  0.51100000000E-03 0. -1.
        -11    1    4    4    0    0 -0.31286586511E+02 -0.57144714329E+01 -0.61903236747E+00  0.31810200889E+02  0.51100000000E-03 0.  1.
         12    1    4    4    0    0  0.63674616390E+01  0.21337639031E+01  0.28641026883E+01  0.73007260137E+01  0.00000000000E+00 0. -1.
</event>
<event>
 8    1  0.1253703E-006  0.9118800E+02  0.7816164E-02  0.1184000E+00
        -11   -1    0    0    0    0  0.00000000000E+00  0.00000000000E+00  0.45593999997E+02  0.45594000000E+02  0.51100000000E-03 0.  1.
         11   -1    0    0    0    0 -0.00000000000E+00 -0.00000000000E+00 -0.45593999997E+02  0.45594000000E+02  0.51100000000E-03 0. -1.
         23    2    1    2    0    0 -0.11102230246E-14  0.00000000000E+00 -0.35527136788E-14  0.91188000000E+02  0.91188000000E+02 0.  0.
    9900012    2    3    3    0    0  0.17126542038E+01 -0.27899669821E+02  0.23967795500E+02  0.54367082281E+02  0.39999995676E+02 0.  0.
         12    1    3    3    0    0 -0.17126542038E+01  0.27899669821E+02 -0.23967795500E+02  0.36820917719E+02  0.00000000000E+00 0. -1.
         11    1    4    4    0    0 -0.11790066228E+02 -0.47381106667E+00 -0.22357382862E+01  0.12009524742E+02  0.51100000000E-03 0. -1.
        -11    1    4    4    0    0  0.13895285416E+02 -0.27324092295E+02  0.21044798043E+02  0.37182906039E+02  0.51100000000E-03 0.  1.
         12    1    4    4    0    0 -0.39256498376E+00 -0.10176645904E+00  0.51587357430E+01  0.51746514998E+01  0.00000000000E+00 0. -1.
</event>
<event>
 8    1  0.1253703E-006  0.9118800E+02  0.7816164E-02  0.1184000E+00
        -11   -1    0    0    0    0  0.00000000000E+00  0.00000000000E+00  0.45593999997E+02  0.45594000000E+02  0.51100000000E-03 0.  1.
         11   -1    0    0    0    0 -0.00000000000E+00 -0.00000000000E+00 -0.45593999997E+02  0.45594000000E+02  0.51100000000E-03 0. -1.
         23    2    1    2    0    0 -0.44408920985E-14  0.00000000000E+00  0.00000000000E+00  0.91188000000E+02  0.91188000000E+02 0.  0.
    9900012    2    3    3    0    0  0.51108545292E+01 -0.99264802883E+01  0.35087400461E+02  0.54367061445E+02  0.39999948177E+02 0.  0.
         12    1    3    3    0    0 -0.51108545292E+01  0.99264802883E+01 -0.35087400461E+02  0.36820938555E+02  0.00000000000E+00 0. -1.
         11    1    4    4    0    0 -0.14164826212E+01  0.22404030315E+01 -0.85035547514E+00  0.27836906176E+01  0.51100000000E-03 0. -1.
        -11    1    4    4    0    0 -0.13392131936E+02 -0.10397093290E+02  0.15129490093E+02  0.22723340806E+02  0.51100000000E-03 0.  1.
        -12    1    4    4    0    0  0.19919469086E+02 -0.17697900302E+01  0.20808265843E+02  0.28860030021E+02  0.00000000000E+00 0.  1.
</event>
<event>
 8    1  0.1253703E-006  0.9118800E+02  0.7816164E-02  0.1184000E+00
        -11   -1    0    0    0    0  0.00000000000E+00  0.00000000000E+00  0.45593999997E+02  0.45594000000E+02  0.51100000000E-03 0. -1.
         11   -1    0    0    0    0 -0.00000000000E+00 -0.00000000000E+00 -0.45593999997E+02  0.45594000000E+02  0.51100000000E-03 0.  1.
         23    2    1    2    0    0  0.17763568394E-14  0.00000000000E+00 -0.71054273576E-14  0.91188000000E+02  0.91188000000E+02 0.  0.
    9900012    2    3    3    0    0 -0.90825323135E+01 -0.11895140074E+02  0.33642125978E+02  0.54367090303E+02  0.40000013963E+02 0.  0.
        -12    1    3    3    0    0  0.90825323135E+01  0.11895140074E+02 -0.33642125978E+02  0.36820909697E+02  0.00000000000E+00 0.  1.
         11    1    4    4    0    0 -0.18156462913E+01 -0.11783449583E+01  0.13310754110E+02  0.13485593926E+02  0.51100000000E-03 0. -1.
        -11    1    4    4    0    0 -0.18784127442E+02 -0.12852503316E+02  0.86780648322E+01  0.24358552804E+02  0.51100000000E-03 0.  1.
        -12    1    4    4    0    0  0.11517241420E+02  0.21357081997E+01  0.11653307036E+02  0.16522943573E+02  0.00000000000E+00 0.  1.
</event>
<event>
 8    1  0.1253703E-006  0.9118800E+02  0.7816164E-02  0.1184000E+00
        -11   -1    0    0    0    0  0.00000000000E+00  0.00000000000E+00  0.45593999997E+02  0.45594000000E+02  0.51100000000E-03 0.  1.
         11   -1    0    0    0    0 -0.00000000000E+00 -0.00000000000E+00 -0.45593999997E+02  0.45594000000E+02  0.51100000000E-03 0. -1.
         23    2    1    2    0    0 -0.88817841970E-15  0.71054273576E-14 -0.44408920985E-15  0.91188000000E+02  0.91188000000E+02 0.  0.
    9900012    2    3    3    0    0  0.75751342531E+01  0.36018346812E+02 -0.10357283043E+01  0.54367126855E+02  0.40000097291E+02 0.  0.
         12    1    3    3    0    0 -0.75751342531E+01 -0.36018346812E+02  0.10357283043E+01  0.36820873145E+02  0.00000000000E+00 0. -1.
         11    1    4    4    0    0  0.51496465799E+01  0.46247285726E+00  0.60038064056E+01  0.79232842091E+01  0.51100000000E-03 0. -1.
        -11    1    4    4    0    0 -0.86396216099E+01  0.33175462274E+02 -0.29470613562E+01  0.34408422364E+02  0.51100000000E-03 0.  1.
        -12    1    4    4    0    0  0.11065109283E+02  0.23804116811E+01 -0.40924733537E+01  0.12035420282E+02  0.00000000000E+00 0.  1.
</event>
<event>
 8    1  0.1253703E-006  0.9118800E+02  0.7816164E-02  0.1184000E+00
        -11   -1    0    0    0    0  0.00000000000E+00  0.00000000000E+00  0.45593999997E+02  0.45594000000E+02  0.51100000000E-03 0. -1.
         11   -1    0    0    0    0 -0.00000000000E+00 -0.00000000000E+00 -0.45593999997E+02  0.45594000000E+02  0.51100000000E-03 0.  1.
         23    2    1    2    0    0 -0.44408920985E-15 -0.35527136788E-14 -0.71054273576E-14  0.91188000000E+02  0.91188000000E+02 0.  0.
    9900012    2    3    3    0    0 -0.38811230205E+01 -0.13738077579E+02 -0.33940871755E+02  0.54367072975E+02  0.39999974461E+02 0.  0.
         12    1    3    3    0    0  0.38811230205E+01  0.13738077579E+02  0.33940871755E+02  0.36820927025E+02  0.00000000000E+00 0. -1.
         11    1    4    4    0    0 -0.53136654715E+01  0.11335226946E+02 -0.20248889308E+02  0.23806300198E+02  0.51100000000E-03 0. -1.
        -11    1    4    4    0    0  0.28692458961E+01 -0.23156908229E+02 -0.15089330740E+02  0.27787818791E+02  0.51100000000E-03 0.  1.
         12    1    4    4    0    0 -0.14367034450E+01 -0.19163962959E+01  0.13973482925E+01  0.27729539849E+01  0.00000000000E+00 0. -1.
</event>
<event>
 8    1  0.1253703E-006  0.9118800E+02  0.7816164E-02  0.1184000E+00
        -11   -1    0    0    0    0  0.00000000000E+00  0.00000000000E+00  0.45593999997E+02  0.45594000000E+02  0.51100000000E-03 0. -1.
         11   -1    0    0    0    0 -0.00000000000E+00 -0.00000000000E+00 -0.45593999997E+02  0.45594000000E+02  0.51100000000E-03 0.  1.
         23    2    1    2    0    0  0.00000000000E+00 -0.88817841970E-15  0.88817841970E-15  0.91188000000E+02  0.91188000000E+02 0.  0.
    9900012    2    3    3    0    0  0.35907769167E+02  0.68730631070E+01  0.43786861988E+01  0.54367085076E+02  0.40000002047E+02 0.  0.
         12    1    3    3    0    0 -0.35907769167E+02 -0.68730631070E+01 -0.43786861988E+01  0.36820914924E+02  0.00000000000E+00 0. -1.
         11    1    4    4    0    0  0.20392992711E+02  0.16214487601E+02  0.36451237061E+01  0.26307236399E+02  0.51100000000E-03 0. -1.
        -11    1    4    4    0    0  0.10871016220E+02  0.53564594066E+01 -0.23387253562E+01  0.12342620775E+02  0.51100000000E-03 0.  1.
        -12    1    4    4    0    0  0.46437602359E+01 -0.14697883900E+02  0.30722878489E+01  0.15717227901E+02  0.00000000000E+00 0.  1.
</event>
<event>
 8    1  0.1253703E-006  0.9118800E+02  0.7816164E-02  0.1184000E+00
        -11   -1    0    0    0    0  0.00000000000E+00  0.00000000000E+00  0.45593999997E+02  0.45594000000E+02  0.51100000000E-03 0.  1.
         11   -1    0    0    0    0 -0.00000000000E+00 -0.00000000000E+00 -0.45593999997E+02  0.45594000000E+02  0.51100000000E-03 0. -1.
         23    2    1    2    0    0  0.35527136788E-14  0.14432899320E-14 -0.35527136788E-14  0.91188000000E+02  0.91188000000E+02 0.  0.
    9900012    2    3    3    0    0 -0.29483739087E+02  0.98902315101E+00  0.22034115109E+02  0.54367200633E+02  0.40000265483E+02 0.  0.
         12    1    3    3    0    0  0.29483739087E+02 -0.98902315101E+00 -0.22034115109E+02  0.36820799367E+02  0.00000000000E+00 0. -1.
         11    1    4    4    0    0 -0.92675803661E+01  0.77298481420E+01 -0.33511113835E+01  0.12524717398E+02  0.51100000000E-03 0. -1.
        -11    1    4    4    0    0  0.53617059335E+01 -0.35926529734E+01  0.13309527414E+01  0.65898771890E+01  0.51100000000E-03 0.  1.
         12    1    4    4    0    0 -0.25577864655E+02 -0.31481720176E+01  0.24054273751E+02  0.35252606046E+02  0.00000000000E+00 0. -1.
</event>
<event>
 8    1  0.1253703E-006  0.9118800E+02  0.7816164E-02  0.1184000E+00
        -11   -1    0    0    0    0  0.00000000000E+00  0.00000000000E+00  0.45593999997E+02  0.45594000000E+02  0.51100000000E-03 0.  1.
         11   -1    0    0    0    0 -0.00000000000E+00 -0.00000000000E+00 -0.45593999997E+02  0.45594000000E+02  0.51100000000E-03 0. -1.
         23    2    1    2    0    0  0.00000000000E+00  0.26645352591E-14  0.00000000000E+00  0.91188000000E+02  0.91188000000E+02 0.  0.
    9900012    2    3    3    0    0  0.73281372861E+01 -0.30712241441E+01  0.35953391690E+02  0.54367076765E+02  0.39999983102E+02 0.  0.
         12    1    3    3    0    0 -0.73281372861E+01  0.30712241441E+01 -0.35953391690E+02  0.36820923235E+02  0.00000000000E+00 0. -1.
         11    1    4    4    0    0  0.13131550109E+02 -0.96232984970E+01  0.24874082411E+02  0.29728192987E+02  0.51100000000E-03 0.  1.
        -11    1    4    4    0    0 -0.23943038780E+01  0.13794793588E+02  0.69162311856E+01  0.15616122287E+02  0.51100000000E-03 0. -1.
        -12    1    4    4    0    0 -0.34091089451E+01 -0.72427192351E+01  0.41630780938E+01  0.90227614916E+01  0.00000000000E+00 0.  1.
</event>
<event>
 8    1  0.1253703E-006  0.9118800E+02  0.7816164E-02  0.1184000E+00
        -11   -1    0    0    0    0  0.00000000000E+00  0.00000000000E+00  0.45593999997E+02  0.45594000000E+02  0.51100000000E-03 0. -1.
         11   -1    0    0    0    0 -0.00000000000E+00 -0.00000000000E+00 -0.45593999997E+02  0.45594000000E+02  0.51100000000E-03 0.  1.
         23    2    1    2    0    0  0.88817841970E-15  0.00000000000E+00  0.00000000000E+00  0.91188000000E+02  0.91188000000E+02 0.  0.
    9900012    2    3    3    0    0  0.23764514496E+01 -0.11115245764E+02  0.35022611922E+02  0.54367088065E+02  0.40000008862E+02 0.  0.
        -12    1    3    3    0    0 -0.23764514496E+01  0.11115245764E+02 -0.35022611922E+02  0.36820911935E+02  0.00000000000E+00 0.  1.
         11    1    4    4    0    0  0.27922605796E+01 -0.72803951916E+00  0.14095038506E+02  0.14387385844E+02  0.51100000000E-03 0. -1.
        -11    1    4    4    0    0  0.12128106062E+02  0.41299965100E+01  0.18886670679E+01  0.12950478423E+02  0.51100000000E-03 0.  1.
        -12    1    4    4    0    0 -0.12543915192E+02 -0.14517202755E+02  0.19038906348E+02  0.27029223798E+02  0.00000000000E+00 0.  1.
</event>
<event>
 8    1  0.1253703E-006  0.9118800E+02  0.7816164E-02  0.1184000E+00
        -11   -1    0    0    0    0  0.00000000000E+00  0.00000000000E+00  0.45593999997E+02  0.45594000000E+02  0.51100000000E-03 0. -1.
         11   -1    0    0    0    0 -0.00000000000E+00 -0.00000000000E+00 -0.45593999997E+02  0.45594000000E+02  0.51100000000E-03 0.  1.
         23    2    1    2    0    0  0.17763568394E-14  0.17763568394E-14  0.00000000000E+00  0.91188000000E+02  0.91188000000E+02 0.  0.
    9900012    2    3    3    0    0  0.20451675964E+01 -0.82488038568E+01  0.35826787193E+02  0.54367025595E+02  0.39999866448E+02 0.  0.
        -12    1    3    3    0    0 -0.20451675964E+01  0.82488038568E+01 -0.35826787193E+02  0.36820974405E+02  0.00000000000E+00 0.  1.
         11    1    4    4    0    0  0.17572015799E+02  0.22060709100E+01  0.24583610508E+02  0.30298455306E+02  0.51100000000E-03 0. -1.
        -11    1    4    4    0    0 -0.88725087038E+01 -0.18957427506E+01  0.95571357019E+00  0.91229731977E+01  0.51100000000E-03 0.  1.
         12    1    4    4    0    0 -0.66543394989E+01 -0.85591320161E+01  0.10287463116E+02  0.14945597091E+02  0.00000000000E+00 0. -1.
</event>
<event>
 8    1  0.1253703E-006  0.9118800E+02  0.7816164E-02  0.1184000E+00
        -11   -1    0    0    0    0  0.00000000000E+00  0.00000000000E+00  0.45593999997E+02  0.45594000000E+02  0.51100000000E-03 0.  1.
         11   -1    0    0    0    0 -0.00000000000E+00 -0.00000000000E+00 -0.45593999997E+02  0.45594000000E+02  0.51100000000E-03 0. -1.
         23    2    1    2    0    0  0.00000000000E+00  0.00000000000E+00  0.00000000000E+00  0.91188000000E+02  0.91188000000E+02 0.  0.
    9900012    2    3    3    0    0 -0.82903775901E+01  0.35012620186E+02 -0.78209095379E+01  0.54367074443E+02  0.39999977808E+02 0.  0.
        -12    1    3    3    0    0  0.82903775901E+01 -0.35012620186E+02  0.78209095379E+01  0.36820925557E+02  0.00000000000E+00 0.  1.
         11    1    4    4    0    0  0.36715623167E+01  0.34172623323E+02 -0.11947835120E+01  0.34390057612E+02  0.51100000000E-03 0. -1.
        -11    1    4    4    0    0 -0.10981001115E+02  0.31761742446E+01  0.14407708590E+01  0.11521557587E+02  0.51100000000E-03 0.  1.
        -12    1    4    4    0    0 -0.98093879229E+00 -0.23361773820E+01 -0.80668968849E+01  0.84554592440E+01  0.00000000000E+00 0.  1.
</event>
<event>
 8    1  0.1253703E-006  0.9118800E+02  0.7816164E-02  0.1184000E+00
        -11   -1    0    0    0    0  0.00000000000E+00  0.00000000000E+00  0.45593999997E+02  0.45594000000E+02  0.51100000000E-03 0.  1.
         11   -1    0    0    0    0 -0.00000000000E+00 -0.00000000000E+00 -0.45593999997E+02  0.45594000000E+02  0.51100000000E-03 0. -1.
         23    2    1    2    0    0 -0.17763568394E-14  0.00000000000E+00  0.00000000000E+00  0.91188000000E+02  0.91188000000E+02 0.  0.
    9900012    2    3    3    0    0  0.74330436011E+01  0.23258511712E+02  0.27560324911E+02  0.54367081850E+02  0.39999994693E+02 0.  0.
         12    1    3    3    0    0 -0.74330436011E+01 -0.23258511712E+02 -0.27560324911E+02  0.36820918150E+02  0.00000000000E+00 0. -1.
         11    1    4    4    0    0 -0.72577828140E+01  0.14514089965E+02 -0.33868288259E+01  0.16577238270E+02  0.51100000000E-03 0. -1.
        -11    1    4    4    0    0  0.82601506942E+01 -0.15161759040E+01  0.19027028388E+02  0.20797997221E+02  0.51100000000E-03 0.  1.
         12    1    4    4    0    0  0.64306757209E+01  0.10260597650E+02  0.11920125349E+02  0.16991846359E+02  0.00000000000E+00 0. -1.
</event>
<event>
 8    1  0.1253703E-006  0.9118800E+02  0.7816164E-02  0.1184000E+00
        -11   -1    0    0    0    0  0.00000000000E+00  0.00000000000E+00  0.45593999997E+02  0.45594000000E+02  0.51100000000E-03 0. -1.
         11   -1    0    0    0    0 -0.00000000000E+00 -0.00000000000E+00 -0.45593999997E+02  0.45594000000E+02  0.51100000000E-03 0.  1.
         23    2    1    2    0    0 -0.88817841970E-15  0.00000000000E+00  0.00000000000E+00  0.91188000000E+02  0.91188000000E+02 0.  0.
    9900012    2    3    3    0    0 -0.75293453703E+01 -0.25678625370E+02  0.25292246108E+02  0.54367074485E+02  0.39999977903E+02 0.  0.
        -12    1    3    3    0    0  0.75293453703E+01  0.25678625370E+02 -0.25292246108E+02  0.36820925515E+02  0.00000000000E+00 0.  1.
         11    1    4    4    0    0  0.38625883899E+01 -0.21801739096E+02  0.85399412714E+01  0.23731119102E+02  0.51100000000E-03 0. -1.
        -11    1    4    4    0    0 -0.10891662654E+02 -0.35568776267E+01 -0.22061548618E+01  0.11668196662E+02  0.51100000000E-03 0.  1.
        -12    1    4    4    0    0 -0.50027110654E+00 -0.32000864774E+00  0.18958459699E+02  0.18967758720E+02  0.00000000000E+00 0.  1.
</event>
<event>
 8    1  0.1253703E-006  0.9118800E+02  0.7816164E-02  0.1184000E+00
        -11   -1    0    0    0    0  0.00000000000E+00  0.00000000000E+00  0.45593999997E+02  0.45594000000E+02  0.51100000000E-03 0.  1.
         11   -1    0    0    0    0 -0.00000000000E+00 -0.00000000000E+00 -0.45593999997E+02  0.45594000000E+02  0.51100000000E-03 0. -1.
         23    2    1    2    0    0 -0.14210854715E-13  0.00000000000E+00 -0.44408920985E-15  0.91188000000E+02  0.91188000000E+02 0.  0.
    9900012    2    3    3    0    0 -0.32863178403E+02 -0.16487539641E+02 -0.19873892082E+01  0.54367120407E+02  0.40000082591E+02 0.  0.
        -12    1    3    3    0    0  0.32863178403E+02  0.16487539641E+02  0.19873892082E+01  0.36820879593E+02  0.00000000000E+00 0.  1.
         11    1    4    4    0    0  0.20001886792E+01 -0.11248149055E-01 -0.29455355075E+01  0.35604860567E+01  0.51100000000E-03 0. -1.
        -11    1    4    4    0    0 -0.16491740159E+01 -0.39966707677E+01  0.12713590325E+02  0.13428645925E+02  0.51100000000E-03 0.  1.
         12    1    4    4    0    0 -0.33214193067E+02 -0.12479620724E+02 -0.11755444026E+02  0.37377988425E+02  0.00000000000E+00 0. -1.
</event>
<event>
 8    1  0.1253703E-006  0.9118800E+02  0.7816164E-02  0.1184000E+00
        -11   -1    0    0    0    0  0.00000000000E+00  0.00000000000E+00  0.45593999997E+02  0.45594000000E+02  0.51100000000E-03 0.  1.
         11   -1    0    0    0    0 -0.00000000000E+00 -0.00000000000E+00 -0.45593999997E+02  0.45594000000E+02  0.51100000000E-03 0. -1.
         23    2    1    2    0    0  0.00000000000E+00  0.00000000000E+00 -0.35527136788E-14  0.91188000000E+02  0.91188000000E+02 0.  0.
    9900012    2    3    3    0    0 -0.88623031754E+01 -0.26830588485E+02  0.23608430481E+02  0.54367097162E+02  0.40000029600E+02 0.  0.
         12    1    3    3    0    0  0.88623031754E+01  0.26830588485E+02 -0.23608430481E+02  0.36820902838E+02  0.00000000000E+00 0. -1.
         11    1    4    4    0    0  0.10587273539E+01 -0.97264364605E+01 -0.61950004846E+01  0.11580263429E+02  0.51100000000E-03 0.  1.
        -11    1    4    4    0    0  0.75105035608E+01 -0.55425989517E+01  0.59881685406E+01  0.11089915672E+02  0.51100000000E-03 0. -1.
        -12    1    4    4    0    0 -0.17431534090E+02 -0.11561553073E+02  0.23815262425E+02  0.31696918061E+02  0.00000000000E+00 0.  1.
</event>
<event>
 8    1  0.1253703E-006  0.9118800E+02  0.7816164E-02  0.1184000E+00
        -11   -1    0    0    0    0  0.00000000000E+00  0.00000000000E+00  0.45593999997E+02  0.45594000000E+02  0.51100000000E-03 0. -1.
         11   -1    0    0    0    0 -0.00000000000E+00 -0.00000000000E+00 -0.45593999997E+02  0.45594000000E+02  0.51100000000E-03 0.  1.
         23    2    1    2    0    0  0.00000000000E+00  0.71054273576E-14  0.88817841970E-15  0.91188000000E+02  0.91188000000E+02 0.  0.
    9900012    2    3    3    0    0  0.12669863287E+02 -0.33978101552E+02 -0.63829029185E+01  0.54367105518E+02  0.40000048650E+02 0.  0.
        -12    1    3    3    0    0 -0.12669863287E+02  0.33978101552E+02  0.63829029185E+01  0.36820894482E+02  0.00000000000E+00 0.  1.
         11    1    4    4    0    0 -0.21375404886E+01 -0.16663689872E+02 -0.11961265810E+02  0.20623276159E+02  0.51100000000E-03 0. -1.
        -11    1    4    4    0    0  0.41039944477E+01  0.22500924583E+01 -0.67868385899E+01  0.82442018901E+01  0.51100000000E-03 0.  1.
         12    1    4    4    0    0  0.10703409328E+02 -0.19564504138E+02  0.12365201481E+02  0.25499627469E+02  0.00000000000E+00 0. -1.
</event>
<event>
 8    1  0.1253703E-006  0.9118800E+02  0.7816164E-02  0.1184000E+00
        -11   -1    0    0    0    0  0.00000000000E+00  0.00000000000E+00  0.45593999997E+02  0.45594000000E+02  0.51100000000E-03 0.  1.
         11   -1    0    0    0    0 -0.00000000000E+00 -0.00000000000E+00 -0.45593999997E+02  0.45594000000E+02  0.51100000000E-03 0. -1.
         23    2    1    2    0    0  0.00000000000E+00  0.35527136788E-14 -0.35527136788E-14  0.91188000000E+02  0.91188000000E+02 0.  0.
    9900012    2    3    3    0    0  0.87531548286E+01  0.17192603717E+02 -0.31362031549E+02  0.54367077077E+02  0.39999983812E+02 0.  0.
        -12    1    3    3    0    0 -0.87531548286E+01 -0.17192603717E+02  0.31362031549E+02  0.36820922923E+02  0.00000000000E+00 0.  1.
         11    1    4    4    0    0  0.17624116706E+01  0.26210215508E+01 -0.53532524710E+00  0.32035015605E+01  0.51100000000E-03 0. -1.
        -11    1    4    4    0    0 -0.14641444694E+02  0.10566529461E+02 -0.90058943491E+01  0.20177452288E+02  0.51100000000E-03 0.  1.
         12    1    4    4    0    0  0.21632187852E+02  0.40050527051E+01 -0.21820811953E+02  0.30986123228E+02  0.00000000000E+00 0. -1.
</event>
<event>
 8    1  0.1253703E-006  0.9118800E+02  0.7816164E-02  0.1184000E+00
        -11   -1    0    0    0    0  0.00000000000E+00  0.00000000000E+00  0.45593999997E+02  0.45594000000E+02  0.51100000000E-03 0.  1.
         11   -1    0    0    0    0 -0.00000000000E+00 -0.00000000000E+00 -0.45593999997E+02  0.45594000000E+02  0.51100000000E-03 0. -1.
         23    2    1    2    0    0  0.00000000000E+00  0.88817841970E-15  0.00000000000E+00  0.91188000000E+02  0.91188000000E+02 0.  0.
    9900012    2    3    3    0    0  0.35895162846E+02  0.65945044761E+01 -0.48813152366E+01  0.54367116748E+02  0.40000074251E+02 0.  0.
        -12    1    3    3    0    0 -0.35895162846E+02 -0.65945044761E+01  0.48813152366E+01  0.36820883252E+02  0.00000000000E+00 0.  1.
         11    1    4    4    0    0  0.16062605413E+02 -0.10488180482E+02 -0.55479154263E+01  0.19969691743E+02  0.51100000000E-03 0. -1.
        -11    1    4    4    0    0  0.64490976175E+01 -0.52736799220E+01 -0.62524345598E-01  0.83310545284E+01  0.51100000000E-03 0.  1.
        -12    1    4    4    0    0  0.13383459815E+02  0.22356364880E+02  0.72912453527E+00  0.26066370477E+02  0.00000000000E+00 0.  1.
</event>
<event>
 8    1  0.1253703E-006  0.9118800E+02  0.7816164E-02  0.1184000E+00
        -11   -1    0    0    0    0  0.00000000000E+00  0.00000000000E+00  0.45593999997E+02  0.45594000000E+02  0.51100000000E-03 0. -1.
         11   -1    0    0    0    0 -0.00000000000E+00 -0.00000000000E+00 -0.45593999997E+02  0.45594000000E+02  0.51100000000E-03 0.  1.
         23    2    1    2    0    0 -0.71054273576E-14  0.00000000000E+00  0.00000000000E+00  0.91188000000E+02  0.91188000000E+02 0.  0.
    9900012    2    3    3    0    0  0.32114713991E+02 -0.17265709269E+02 -0.51303757466E+01  0.54367077598E+02  0.39999985000E+02 0.  0.
         12    1    3    3    0    0 -0.32114713991E+02  0.17265709269E+02  0.51303757466E+01  0.36820922402E+02  0.00000000000E+00 0. -1.
         11    1    4    4    0    0 -0.77495705503E+01 -0.44635146970E-01  0.93367116884E+00  0.78057400753E+01  0.51100000000E-03 0. -1.
        -11    1    4    4    0    0 -0.47302721332E-01 -0.23930262185E+01  0.21287734828E+01  0.32031997802E+01  0.51100000000E-03 0.  1.
        -12    1    4    4    0    0  0.39911587262E+02 -0.14828047903E+02 -0.81928203982E+01  0.43358137742E+02  0.00000000000E+00 0.  1.
</event>
<event>
 8    1  0.1253703E-006  0.9118800E+02  0.7816164E-02  0.1184000E+00
        -11   -1    0    0    0    0  0.00000000000E+00  0.00000000000E+00  0.45593999997E+02  0.45594000000E+02  0.51100000000E-03 0. -1.
         11   -1    0    0    0    0 -0.00000000000E+00 -0.00000000000E+00 -0.45593999997E+02  0.45594000000E+02  0.51100000000E-03 0.  1.
         23    2    1    2    0    0  0.35527136788E-14 -0.17763568394E-14 -0.35527136788E-14  0.91188000000E+02  0.91188000000E+02 0.  0.
    9900012    2    3    3    0    0  0.25495434827E+02 -0.15557084690E+02 -0.21534670201E+02  0.54367053492E+02  0.39999930046E+02 0.  0.
         12    1    3    3    0    0 -0.25495434827E+02  0.15557084690E+02  0.21534670201E+02  0.36820946508E+02  0.00000000000E+00 0. -1.
         11    1    4    4    0    0 -0.16626975706E+01 -0.99099136239E+01  0.12402165428E+01  0.10124677209E+02  0.51100000000E-03 0. -1.
        -11    1    4    4    0    0 -0.32720225538E+00 -0.54575273101E+01 -0.14563642124E+02  0.15556070771E+02  0.51100000000E-03 0.  1.
        -12    1    4    4    0    0  0.27485334653E+02 -0.18964375623E+00 -0.82112446199E+01  0.28686305512E+02  0.00000000000E+00 0.  1.
</event>
<event>
 8    1  0.1253703E-006  0.9118800E+02  0.7816164E-02  0.1184000E+00
        -11   -1    0    0    0    0  0.00000000000E+00  0.00000000000E+00  0.45593999997E+02  0.45594000000E+02  0.51100000000E-03 0. -1.
         11   -1    0    0    0    0 -0.00000000000E+00 -0.00000000000E+00 -0.45593999997E+02  0.45594000000E+02  0.51100000000E-03 0.  1.
         23    2    1    2    0    0  0.00000000000E+00  0.17763568394E-14  0.00000000000E+00  0.91188000000E+02  0.91188000000E+02 0.  0.
    9900012    2    3    3    0    0 -0.56061885396E+01 -0.15094042136E+02 -0.33113604711E+02  0.54367214092E+02  0.40000296164E+02 0.  0.
         12    1    3    3    0    0  0.56061885396E+01  0.15094042136E+02  0.33113604711E+02  0.36820785908E+02  0.00000000000E+00 0. -1.
         11    1    4    4    0    0 -0.15851226107E+02  0.94345540674E+00 -0.11047464815E+02  0.19344196967E+02  0.51100000000E-03 0. -1.
        -11    1    4    4    0    0 -0.25285672807E+01 -0.11822164764E+02 -0.16525114585E+02  0.20475269095E+02  0.51100000000E-03 0.  1.
        -12    1    4    4    0    0  0.12773604848E+02 -0.42153327784E+01 -0.55410253106E+01  0.14547748030E+02  0.00000000000E+00 0.  1.
</event>
<event>
 8    1  0.1253703E-006  0.9118800E+02  0.7816164E-02  0.1184000E+00
        -11   -1    0    0    0    0  0.00000000000E+00  0.00000000000E+00  0.45593999997E+02  0.45594000000E+02  0.51100000000E-03 0. -1.
         11   -1    0    0    0    0 -0.00000000000E+00 -0.00000000000E+00 -0.45593999997E+02  0.45594000000E+02  0.51100000000E-03 0.  1.
         23    2    1    2    0    0  0.00000000000E+00  0.00000000000E+00  0.00000000000E+00  0.91188000000E+02  0.91188000000E+02 0.  0.
    9900012    2    3    3    0    0  0.26680638046E+02 -0.24600075125E+02  0.62266145977E+01  0.54366934398E+02  0.39999658546E+02 0.  0.
        -12    1    3    3    0    0 -0.26680638046E+02  0.24600075125E+02 -0.62266145977E+01  0.36821065602E+02  0.00000000000E+00 0.  1.
         11    1    4    4    0    0  0.15950600249E+02 -0.32324902511E+01  0.14621496645E+02  0.21878272462E+02  0.51100000000E-03 0. -1.
        -11    1    4    4    0    0  0.29058801889E+01  0.17067389371E+01  0.39357276329E+01  0.51814138740E+01  0.51100000000E-03 0.  1.
         12    1    4    4    0    0  0.78241576077E+01 -0.23074323811E+02 -0.12330609681E+02  0.27307248062E+02  0.00000000000E+00 0. -1.
</event>
<event>
 8    1  0.1253703E-006  0.9118800E+02  0.7816164E-02  0.1184000E+00
        -11   -1    0    0    0    0  0.00000000000E+00  0.00000000000E+00  0.45593999997E+02  0.45594000000E+02  0.51100000000E-03 0. -1.
         11   -1    0    0    0    0 -0.00000000000E+00 -0.00000000000E+00 -0.45593999997E+02  0.45594000000E+02  0.51100000000E-03 0.  1.
         23    2    1    2    0    0  0.00000000000E+00  0.00000000000E+00  0.00000000000E+00  0.91188000000E+02  0.91188000000E+02 0.  0.
    9900012    2    3    3    0    0  0.20818060991E+02 -0.96471359538E+01  0.28797864308E+02  0.54367137922E+02  0.40000122520E+02 0.  0.
        -12    1    3    3    0    0 -0.20818060991E+02  0.96471359538E+01 -0.28797864308E+02  0.36820862078E+02  0.00000000000E+00 0.  1.
         11    1    4    4    0    0  0.13432489672E+02 -0.67114758012E+01  0.58645413859E+01  0.16120438336E+02  0.51100000000E-03 0. -1.
        -11    1    4    4    0    0  0.18085851675E+02  0.86420512172E+00  0.18959313996E+02  0.26216416017E+02  0.51100000000E-03 0.  1.
        -12    1    4    4    0    0 -0.10700280356E+02 -0.37998652743E+01  0.39740089260E+01  0.12030283569E+02  0.00000000000E+00 0.  1.
</event>
<event>
 8    1  0.1253703E-006  0.9118800E+02  0.7816164E-02  0.1184000E+00
        -11   -1    0    0    0    0  0.00000000000E+00  0.00000000000E+00  0.45593999997E+02  0.45594000000E+02  0.51100000000E-03 0.  1.
         11   -1    0    0    0    0 -0.00000000000E+00 -0.00000000000E+00 -0.45593999997E+02  0.45594000000E+02  0.51100000000E-03 0. -1.
         23    2    1    2    0    0  0.00000000000E+00  0.00000000000E+00  0.35527136788E-14  0.91188000000E+02  0.91188000000E+02 0.  0.
    9900012    2    3    3    0    0  0.19626792335E+02 -0.17237993319E+02 -0.25950342061E+02  0.54367086864E+02  0.40000006125E+02 0.  0.
        -12    1    3    3    0    0 -0.19626792335E+02  0.17237993319E+02  0.25950342061E+02  0.36820913136E+02  0.00000000000E+00 0.  1.
         11    1    4    4    0    0  0.18911722667E+02 -0.19013545172E+02 -0.27209621421E+02  0.38203817249E+02  0.51100000000E-03 0. -1.
        -11    1    4    4    0    0 -0.49558136366E+01 -0.36881176952E+01 -0.33615586671E+01  0.70329494430E+01  0.51100000000E-03 0.  1.
         12    1    4    4    0    0  0.56708833050E+01  0.54636695481E+01  0.46208380264E+01  0.91303201728E+01  0.00000000000E+00 0. -1.
</event>
<event>
 8    1  0.1253703E-006  0.9118800E+02  0.7816164E-02  0.1184000E+00
        -11   -1    0    0    0    0  0.00000000000E+00  0.00000000000E+00  0.45593999997E+02  0.45594000000E+02  0.51100000000E-03 0. -1.
         11   -1    0    0    0    0 -0.00000000000E+00 -0.00000000000E+00 -0.45593999997E+02  0.45594000000E+02  0.51100000000E-03 0.  1.
         23    2    1    2    0    0  0.00000000000E+00  0.00000000000E+00  0.00000000000E+00  0.91188000000E+02  0.91188000000E+02 0.  0.
    9900012    2    3    3    0    0  0.24147367157E+02  0.14502267622E+02 -0.23714312088E+02  0.54367086044E+02  0.40000004253E+02 0.  0.
         12    1    3    3    0    0 -0.24147367157E+02 -0.14502267622E+02  0.23714312088E+02  0.36820913956E+02  0.00000000000E+00 0. -1.
         11    1    4    4    0    0  0.37294321133E+01 -0.74495283256E+01  0.27269549049E+01  0.87658667270E+01  0.51100000000E-03 0. -1.
        -11    1    4    4    0    0  0.13900671712E+02  0.25991331126E+02 -0.21409611351E+02  0.36430062122E+02  0.51100000000E-03 0.  1.
        -12    1    4    4    0    0  0.65172633311E+01 -0.40395351787E+01 -0.50316556417E+01  0.91711571944E+01  0.00000000000E+00 0.  1.
</event>
<event>
 8    1  0.1253703E-006  0.9118800E+02  0.7816164E-02  0.1184000E+00
        -11   -1    0    0    0    0  0.00000000000E+00  0.00000000000E+00  0.45593999997E+02  0.45594000000E+02  0.51100000000E-03 0. -1.
         11   -1    0    0    0    0 -0.00000000000E+00 -0.00000000000E+00 -0.45593999997E+02  0.45594000000E+02  0.51100000000E-03 0.  1.
         23    2    1    2    0    0  0.88817841970E-15  0.00000000000E+00  0.35527136788E-14  0.91188000000E+02  0.91188000000E+02 0.  0.
    9900012    2    3    3    0    0 -0.59708388845E+01 -0.28755693771E+02 -0.22208984101E+02  0.54367084530E+02  0.40000000803E+02 0.  0.
         12    1    3    3    0    0  0.59708388845E+01  0.28755693771E+02  0.22208984101E+02  0.36820915470E+02  0.00000000000E+00 0. -1.
         11    1    4    4    0    0 -0.29999691293E+01  0.43069335117E+01 -0.77496645918E+01  0.93598500308E+01  0.51100000000E-03 0. -1.
        -11    1    4    4    0    0 -0.62545683023E+01 -0.40676416999E+01 -0.13953008633E+02  0.15822508771E+02  0.51100000000E-03 0.  1.
         12    1    4    4    0    0  0.32836985472E+01 -0.28994985583E+02 -0.50631087651E+00  0.29184725728E+02  0.00000000000E+00 0. -1.
</event>
<event>
 8    1  0.1253703E-006  0.9118800E+02  0.7816164E-02  0.1184000E+00
        -11   -1    0    0    0    0  0.00000000000E+00  0.00000000000E+00  0.45593999997E+02  0.45594000000E+02  0.51100000000E-03 0. -1.
         11   -1    0    0    0    0 -0.00000000000E+00 -0.00000000000E+00 -0.45593999997E+02  0.45594000000E+02  0.51100000000E-03 0.  1.
         23    2    1    2    0    0  0.17763568394E-14  0.35527136788E-14  0.00000000000E+00  0.91188000000E+02  0.91188000000E+02 0.  0.
    9900012    2    3    3    0    0 -0.15878581361E+02 -0.26184783515E+02 -0.20445219795E+02  0.54367092268E+02  0.40000018442E+02 0.  0.
         12    1    3    3    0    0  0.15878581361E+02  0.26184783515E+02  0.20445219795E+02  0.36820907732E+02  0.00000000000E+00 0. -1.
         11    1    4    4    0    0 -0.34105927257E+01  0.29458779877E-01  0.85441439717E+01  0.91997503787E+01  0.51100000000E-03 0. -1.
        -11    1    4    4    0    0 -0.12516981640E+02 -0.58104332225E+01 -0.15260262781E+02  0.20574537273E+02  0.51100000000E-03 0.  1.
         12    1    4    4    0    0  0.48993004413E-01 -0.20403809073E+02 -0.13729100986E+02  0.24592804616E+02  0.00000000000E+00 0. -1.
</event>
<event>
 8    1  0.1253703E-006  0.9118800E+02  0.7816164E-02  0.1184000E+00
        -11   -1    0    0    0    0  0.00000000000E+00  0.00000000000E+00  0.45593999997E+02  0.45594000000E+02  0.51100000000E-03 0.  1.
         11   -1    0    0    0    0 -0.00000000000E+00 -0.00000000000E+00 -0.45593999997E+02  0.45594000000E+02  0.51100000000E-03 0. -1.
         23    2    1    2    0    0  0.13322676296E-14  0.00000000000E+00  0.17763568394E-14  0.91188000000E+02  0.91188000000E+02 0.  0.
    9900012    2    3    3    0    0  0.28854730839E+01  0.34894517427E+02  0.11394132475E+02  0.54367088058E+02  0.40000008845E+02 0.  0.
         12    1    3    3    0    0 -0.28854730839E+01 -0.34894517427E+02 -0.11394132475E+02  0.36820911942E+02  0.00000000000E+00 0. -1.
         11    1    4    4    0    0  0.10454687272E+02  0.31426341606E+02 -0.58355212767E+01  0.33629878702E+02  0.51100000000E-03 0. -1.
        -11    1    4    4    0    0  0.70332235167E+00 -0.15272691953E+01  0.41261046148E+01  0.44555530609E+01  0.51100000000E-03 0.  1.
         12    1    4    4    0    0 -0.82725365399E+01  0.49954450169E+01  0.13103549137E+02  0.16281656295E+02  0.00000000000E+00 0. -1.
</event>
<event>
 8    1  0.1253703E-006  0.9118800E+02  0.7816164E-02  0.1184000E+00
        -11   -1    0    0    0    0  0.00000000000E+00  0.00000000000E+00  0.45593999997E+02  0.45594000000E+02  0.51100000000E-03 0. -1.
         11   -1    0    0    0    0 -0.00000000000E+00 -0.00000000000E+00 -0.45593999997E+02  0.45594000000E+02  0.51100000000E-03 0.  1.
         23    2    1    2    0    0 -0.88817841970E-15  0.00000000000E+00  0.00000000000E+00  0.91188000000E+02  0.91188000000E+02 0.  0.
    9900012    2    3    3    0    0 -0.58435014112E+01 -0.17498835034E+02  0.31865723794E+02  0.54367080821E+02  0.39999992347E+02 0.  0.
        -12    1    3    3    0    0  0.58435014112E+01  0.17498835034E+02 -0.31865723794E+02  0.36820919179E+02  0.00000000000E+00 0.  1.
         11    1    4    4    0    0  0.12850377615E+01  0.71534583775E+00  0.22793262916E+02  0.22840662782E+02  0.51100000000E-03 0. -1.
        -11    1    4    4    0    0 -0.12359319426E+02 -0.83431894672E+01  0.12900340950E+02  0.19717514652E+02  0.51100000000E-03 0.  1.
        -12    1    4    4    0    0  0.52307802531E+01 -0.98709914046E+01 -0.38278800714E+01  0.11808903387E+02  0.00000000000E+00 0.  1.
</event>
<event>
 8    1  0.1253703E-006  0.9118800E+02  0.7816164E-02  0.1184000E+00
        -11   -1    0    0    0    0  0.00000000000E+00  0.00000000000E+00  0.45593999997E+02  0.45594000000E+02  0.51100000000E-03 0.  1.
         11   -1    0    0    0    0 -0.00000000000E+00 -0.00000000000E+00 -0.45593999997E+02  0.45594000000E+02  0.51100000000E-03 0. -1.
         23    2    1    2    0    0  0.00000000000E+00 -0.88817841970E-15  0.00000000000E+00  0.91188000000E+02  0.91188000000E+02 0.  0.
    9900012    2    3    3    0    0  0.30002137748E+02 -0.43722456512E+01  0.20893441315E+02  0.54367072643E+02  0.39999973704E+02 0.  0.
         12    1    3    3    0    0 -0.30002137748E+02  0.43722456512E+01 -0.20893441315E+02  0.36820927357E+02  0.00000000000E+00 0. -1.
         11    1    4    4    0    0  0.22116803785E+02  0.11299504246E+01  0.12932711808E+02  0.25645366689E+02  0.51100000000E-03 0. -1.
        -11    1    4    4    0    0  0.11785537992E+02 -0.13554681944E+02  0.82585135503E+01  0.19769455093E+02  0.51100000000E-03 0.  1.
         12    1    4    4    0    0 -0.39002040294E+01  0.80524858685E+01 -0.29778404308E+00  0.89522508605E+01  0.00000000000E+00 0. -1.
</event>
<event>
 8    1  0.1253703E-006  0.9118800E+02  0.7816164E-02  0.1184000E+00
        -11   -1    0    0    0    0  0.00000000000E+00  0.00000000000E+00  0.45593999997E+02  0.45594000000E+02  0.51100000000E-03 0. -1.
         11   -1    0    0    0    0 -0.00000000000E+00 -0.00000000000E+00 -0.45593999997E+02  0.45594000000E+02  0.51100000000E-03 0.  1.
         23    2    1    2    0    0  0.00000000000E+00  0.00000000000E+00  0.00000000000E+00  0.91188000000E+02  0.91188000000E+02 0.  0.
    9900012    2    3    3    0    0  0.54411141627E+01  0.25994631943E+02 -0.25504004448E+02  0.54367070407E+02  0.39999968607E+02 0.  0.
         12    1    3    3    0    0 -0.54411141627E+01 -0.25994631943E+02  0.25504004448E+02  0.36820929593E+02  0.00000000000E+00 0. -1.
         11    1    4    4    0    0 -0.21082753001E+01  0.10697172123E+02 -0.83465223035E+01  0.13730941374E+02  0.51100000000E-03 0.  1.
        -11    1    4    4    0    0 -0.29300034688E+01  0.38191086703E+01  0.90017416284E+01  0.10207931425E+02  0.51100000000E-03 0. -1.
        -12    1    4    4    0    0  0.10479392932E+02  0.11478351149E+02 -0.26159223773E+02  0.30428197609E+02  0.00000000000E+00 0.  1.
</event>
<event>
 8    1  0.1253703E-006  0.9118800E+02  0.7816164E-02  0.1184000E+00
        -11   -1    0    0    0    0  0.00000000000E+00  0.00000000000E+00  0.45593999997E+02  0.45594000000E+02  0.51100000000E-03 0.  1.
         11   -1    0    0    0    0 -0.00000000000E+00 -0.00000000000E+00 -0.45593999997E+02  0.45594000000E+02  0.51100000000E-03 0. -1.
         23    2    1    2    0    0  0.00000000000E+00 -0.35527136788E-14  0.00000000000E+00  0.91188000000E+02  0.91188000000E+02 0.  0.
    9900012    2    3    3    0    0 -0.53547867423E+01 -0.24423929602E+02 -0.27029205646E+02  0.54367081542E+02  0.39999993991E+02 0.  0.
        -12    1    3    3    0    0  0.53547867423E+01  0.24423929602E+02  0.27029205646E+02  0.36820918458E+02  0.00000000000E+00 0.  1.
         11    1    4    4    0    0 -0.10784513972E+02 -0.13579471322E+02 -0.31321428647E+00  0.17343756411E+02  0.51100000000E-03 0.  1.
        -11    1    4    4    0    0  0.14203631032E+02 -0.55492218637E+01 -0.14092947640E+02  0.20764107764E+02  0.51100000000E-03 0. -1.
         12    1    4    4    0    0 -0.87739038021E+01 -0.52952364168E+01 -0.12623043720E+02  0.16259217367E+02  0.00000000000E+00 0. -1.
</event>
<event>
 8    1  0.1253703E-006  0.9118800E+02  0.7816164E-02  0.1184000E+00
        -11   -1    0    0    0    0  0.00000000000E+00  0.00000000000E+00  0.45593999997E+02  0.45594000000E+02  0.51100000000E-03 0.  1.
         11   -1    0    0    0    0 -0.00000000000E+00 -0.00000000000E+00 -0.45593999997E+02  0.45594000000E+02  0.51100000000E-03 0. -1.
         23    2    1    2    0    0  0.00000000000E+00  0.00000000000E+00  0.00000000000E+00  0.91188000000E+02  0.91188000000E+02 0.  0.
    9900012    2    3    3    0    0 -0.12655983233E+02 -0.20702223522E+02  0.27695207604E+02  0.54367075316E+02  0.39999979798E+02 0.  0.
         12    1    3    3    0    0  0.12655983233E+02  0.20702223522E+02 -0.27695207604E+02  0.36820924684E+02  0.00000000000E+00 0. -1.
         11    1    4    4    0    0 -0.31305460183E+01 -0.29730639345E+01 -0.68473995534E+01  0.80948322056E+01  0.51100000000E-03 0. -1.
        -11    1    4    4    0    0  0.86438823446E+00 -0.19651890272E+02  0.18123447444E+02  0.26747024242E+02  0.51100000000E-03 0.  1.
        -12    1    4    4    0    0 -0.10389825449E+02  0.19227306848E+01  0.16419159714E+02  0.19525218868E+02  0.00000000000E+00 0.  1.
</event>
<event>
 8    1  0.1253703E-006  0.9118800E+02  0.7816164E-02  0.1184000E+00
        -11   -1    0    0    0    0  0.00000000000E+00  0.00000000000E+00  0.45593999997E+02  0.45594000000E+02  0.51100000000E-03 0. -1.
         11   -1    0    0    0    0 -0.00000000000E+00 -0.00000000000E+00 -0.45593999997E+02  0.45594000000E+02  0.51100000000E-03 0.  1.
         23    2    1    2    0    0 -0.17763568394E-14  0.00000000000E+00  0.00000000000E+00  0.91188000000E+02  0.91188000000E+02 0.  0.
    9900012    2    3    3    0    0  0.98985339745E+01  0.27716329642E+02  0.22127012892E+02  0.54367073841E+02  0.39999976435E+02 0.  0.
        -12    1    3    3    0    0 -0.98985339745E+01 -0.27716329642E+02 -0.22127012892E+02  0.36820926159E+02  0.00000000000E+00 0.  1.
         11    1    4    4    0    0  0.38748361380E+01  0.11440529084E+02 -0.63054625202E+01  0.13625671310E+02  0.51100000000E-03 0.  1.
        -11    1    4    4    0    0 -0.82408911923E+01  0.85561881101E+01  0.17611915072E+02  0.21243827230E+02  0.51100000000E-03 0. -1.
        -12    1    4    4    0    0  0.14264589029E+02  0.77196124485E+01  0.10820560340E+02  0.19497575300E+02  0.00000000000E+00 0.  1.
</event>
<event>
 8    1  0.1253703E-006  0.9118800E+02  0.7816164E-02  0.1184000E+00
        -11   -1    0    0    0    0  0.00000000000E+00  0.00000000000E+00  0.45593999997E+02  0.45594000000E+02  0.51100000000E-03 0.  1.
         11   -1    0    0    0    0 -0.00000000000E+00 -0.00000000000E+00 -0.45593999997E+02  0.45594000000E+02  0.51100000000E-03 0. -1.
         23    2    1    2    0    0  0.00000000000E+00  0.00000000000E+00  0.00000000000E+00  0.91188000000E+02  0.91188000000E+02 0.  0.
    9900012    2    3    3    0    0  0.35875819312E+02  0.81409644044E+01 -0.15609368393E+01  0.54366997345E+02  0.39999802046E+02 0.  0.
         12    1    3    3    0    0 -0.35875819312E+02 -0.81409644044E+01  0.15609368393E+01  0.36821002655E+02  0.00000000000E+00 0. -1.
         11    1    4    4    0    0  0.77624006682E+01 -0.78542828704E+01 -0.33938730728E+01  0.11552618674E+02  0.51100000000E-03 0. -1.
        -11    1    4    4    0    0 -0.48064492192E+01  0.68847613957E+01 -0.13688240094E+01  0.85073834404E+01  0.51100000000E-03 0.  1.
        -12    1    4    4    0    0  0.32919867863E+02  0.91104858790E+01  0.32017602430E+01  0.34306995230E+02  0.00000000000E+00 0.  1.
</event>
<event>
 8    1  0.1253703E-006  0.9118800E+02  0.7816164E-02  0.1184000E+00
        -11   -1    0    0    0    0  0.00000000000E+00  0.00000000000E+00  0.45593999997E+02  0.45594000000E+02  0.51100000000E-03 0. -1.
         11   -1    0    0    0    0 -0.00000000000E+00 -0.00000000000E+00 -0.45593999997E+02  0.45594000000E+02  0.51100000000E-03 0.  1.
         23    2    1    2    0    0 -0.17763568394E-14  0.11657341759E-14  0.00000000000E+00  0.91188000000E+02  0.91188000000E+02 0.  0.
    9900012    2    3    3    0    0  0.71707194814E+01  0.41379443676E+00  0.36113572247E+02  0.54367074643E+02  0.39999978263E+02 0.  0.
        -12    1    3    3    0    0 -0.71707194814E+01 -0.41379443676E+00 -0.36113572247E+02  0.36820925357E+02  0.00000000000E+00 0.  1.
         11    1    4    4    0    0 -0.99676326020E+00  0.15760613443E+02  0.12032370402E+02  0.19853674996E+02  0.51100000000E-03 0. -1.
        -11    1    4    4    0    0  0.11011350809E+02 -0.27798980181E+01  0.79253902748E+01  0.13848808284E+02  0.51100000000E-03 0.  1.
         12    1    4    4    0    0 -0.28438680670E+01 -0.12566920988E+02  0.16155811570E+02  0.20664591363E+02  0.00000000000E+00 0. -1.
</event>
<event>
 8    1  0.1253703E-006  0.9118800E+02  0.7816164E-02  0.1184000E+00
        -11   -1    0    0    0    0  0.00000000000E+00  0.00000000000E+00  0.45593999997E+02  0.45594000000E+02  0.51100000000E-03 0. -1.
         11   -1    0    0    0    0 -0.00000000000E+00 -0.00000000000E+00 -0.45593999997E+02  0.45594000000E+02  0.51100000000E-03 0.  1.
         23    2    1    2    0    0 -0.35527136788E-14  0.00000000000E+00 -0.35527136788E-14  0.91188000000E+02  0.91188000000E+02 0.  0.
    9900012    2    3    3    0    0  0.29128747751E+02  0.13083283504E+02  0.18333632810E+02  0.54367104509E+02  0.40000046348E+02 0.  0.
        -12    1    3    3    0    0 -0.29128747751E+02 -0.13083283504E+02 -0.18333632810E+02  0.36820895491E+02  0.00000000000E+00 0.  1.
         11    1    4    4    0    0  0.22245868668E+02  0.10228997328E+02  0.72376456856E+01  0.25532226194E+02  0.51100000000E-03 0. -1.
        -11    1    4    4    0    0  0.35239732868E+01 -0.58698473002E+01  0.16621000126E+02  0.17975848812E+02  0.51100000000E-03 0.  1.
        -12    1    4    4    0    0  0.33589057965E+01  0.87241334763E+01 -0.55250130016E+01  0.10859029502E+02  0.00000000000E+00 0.  1.
</event>
<event>
 8    1  0.1253703E-006  0.9118800E+02  0.7816164E-02  0.1184000E+00
        -11   -1    0    0    0    0  0.00000000000E+00  0.00000000000E+00  0.45593999997E+02  0.45594000000E+02  0.51100000000E-03 0.  1.
         11   -1    0    0    0    0 -0.00000000000E+00 -0.00000000000E+00 -0.45593999997E+02  0.45594000000E+02  0.51100000000E-03 0. -1.
         23    2    1    2    0    0 -0.17763568394E-14  0.00000000000E+00  0.00000000000E+00  0.91188000000E+02  0.91188000000E+02 0.  0.
    9900012    2    3    3    0    0 -0.12534097690E+02 -0.90957113185E+01  0.33405749183E+02  0.54367086815E+02  0.40000006013E+02 0.  0.
         12    1    3    3    0    0  0.12534097690E+02  0.90957113185E+01 -0.33405749183E+02  0.36820913185E+02  0.00000000000E+00 0. -1.
         11    1    4    4    0    0 -0.22504881112E+01 -0.10700461162E+02  0.15503798255E+02  0.18971882521E+02  0.51100000000E-03 0. -1.
        -11    1    4    4    0    0 -0.16953123425E+02 -0.38293443578E+01  0.22373035269E+01  0.17523635450E+02  0.51100000000E-03 0.  1.
        -12    1    4    4    0    0  0.66695138464E+01  0.54340942011E+01  0.15664647401E+02  0.17871568844E+02  0.00000000000E+00 0.  1.
</event>
<event>
 8    1  0.1253703E-006  0.9118800E+02  0.7816164E-02  0.1184000E+00
        -11   -1    0    0    0    0  0.00000000000E+00  0.00000000000E+00  0.45593999997E+02  0.45594000000E+02  0.51100000000E-03 0.  1.
         11   -1    0    0    0    0 -0.00000000000E+00 -0.00000000000E+00 -0.45593999997E+02  0.45594000000E+02  0.51100000000E-03 0. -1.
         23    2    1    2    0    0 -0.88817841970E-15  0.00000000000E+00  0.00000000000E+00  0.91188000000E+02  0.91188000000E+02 0.  0.
    9900012    2    3    3    0    0  0.39820664782E+01  0.21439708646E+02  0.29669197410E+02  0.54367092417E+02  0.40000018784E+02 0.  0.
         12    1    3    3    0    0 -0.39820664782E+01 -0.21439708646E+02 -0.29669197410E+02  0.36820907583E+02  0.00000000000E+00 0. -1.
         11    1    4    4    0    0  0.64363420518E+01 -0.57226648677E+01  0.97035806766E+01  0.12974392872E+02  0.51100000000E-03 0. -1.
        -11    1    4    4    0    0 -0.42258288865E+01  0.25690748412E+02  0.24850620107E+02  0.35992020001E+02  0.51100000000E-03 0.  1.
        -12    1    4    4    0    0  0.17715533129E+01  0.14716251012E+01 -0.48850033737E+01  0.54006795442E+01  0.00000000000E+00 0.  1.
</event>
<event>
 8    1  0.1253703E-006  0.9118800E+02  0.7816164E-02  0.1184000E+00
        -11   -1    0    0    0    0  0.00000000000E+00  0.00000000000E+00  0.45593999997E+02  0.45594000000E+02  0.51100000000E-03 0. -1.
         11   -1    0    0    0    0 -0.00000000000E+00 -0.00000000000E+00 -0.45593999997E+02  0.45594000000E+02  0.51100000000E-03 0.  1.
         23    2    1    2    0    0  0.35527136788E-14  0.13877787808E-15  0.00000000000E+00  0.91188000000E+02  0.91188000000E+02 0.  0.
    9900012    2    3    3    0    0 -0.19360337048E+02 -0.92640933449E-01  0.31320094456E+02  0.54367088147E+02  0.40000009049E+02 0.  0.
        -12    1    3    3    0    0  0.19360337048E+02  0.92640933449E-01 -0.31320094456E+02  0.36820911853E+02  0.00000000000E+00 0.  1.
         11    1    4    4    0    0 -0.45602472531E+01  0.20242447891E+01 -0.74520293063E+01  0.89680635044E+01  0.51100000000E-03 0. -1.
        -11    1    4    4    0    0 -0.18317765001E+01 -0.38759058458E+01 -0.19658075123E+00  0.42914677588E+01  0.51100000000E-03 0.  1.
         12    1    4    4    0    0 -0.12968313295E+02  0.17590201232E+01  0.38968704513E+02  0.41107556884E+02  0.00000000000E+00 0. -1.
</event>
<event>
 8    1  0.1253703E-006  0.9118800E+02  0.7816164E-02  0.1184000E+00
        -11   -1    0    0    0    0  0.00000000000E+00  0.00000000000E+00  0.45593999997E+02  0.45594000000E+02  0.51100000000E-03 0. -1.
         11   -1    0    0    0    0 -0.00000000000E+00 -0.00000000000E+00 -0.45593999997E+02  0.45594000000E+02  0.51100000000E-03 0.  1.
         23    2    1    2    0    0  0.71054273576E-14  0.88817841970E-15  0.35527136788E-14  0.91188000000E+02  0.91188000000E+02 0.  0.
    9900012    2    3    3    0    0 -0.34440402533E+02  0.61406289262E+01 -0.11486081709E+02  0.54367099369E+02  0.40000034631E+02 0.  0.
         12    1    3    3    0    0  0.34440402533E+02 -0.61406289262E+01  0.11486081709E+02  0.36820900631E+02  0.00000000000E+00 0. -1.
         11    1    4    4    0    0 -0.22010783029E+01  0.68786052138E+01  0.32526124512E+01  0.79208234043E+01  0.51100000000E-03 0. -1.
        -11    1    4    4    0    0 -0.91548331771E+01  0.13949157802E+02 -0.56208996511E+01  0.17606376317E+02  0.51100000000E-03 0.  1.
        -12    1    4    4    0    0 -0.23084491053E+02 -0.14687134089E+02 -0.91177945088E+01  0.28839899647E+02  0.00000000000E+00 0.  1.
</event>
<event>
 8    1  0.1253703E-006  0.9118800E+02  0.7816164E-02  0.1184000E+00
        -11   -1    0    0    0    0  0.00000000000E+00  0.00000000000E+00  0.45593999997E+02  0.45594000000E+02  0.51100000000E-03 0. -1.
         11   -1    0    0    0    0 -0.00000000000E+00 -0.00000000000E+00 -0.45593999997E+02  0.45594000000E+02  0.51100000000E-03 0.  1.
         23    2    1    2    0    0 -0.22204460493E-14  0.00000000000E+00  0.35527136788E-14  0.91188000000E+02  0.91188000000E+02 0.  0.
    9900012    2    3    3    0    0  0.35667358545E+00 -0.18818998702E+02 -0.31646459139E+02  0.54367077901E+02  0.39999985690E+02 0.  0.
         12    1    3    3    0    0 -0.35667358545E+00  0.18818998702E+02  0.31646459139E+02  0.36820922099E+02  0.00000000000E+00 0. -1.
         11    1    4    4    0    0 -0.10279242157E+02 -0.46006224612E+01 -0.23474831357E+01  0.11503878636E+02  0.51100000000E-03 0. -1.
        -11    1    4    4    0    0  0.28067890291E+01 -0.18577235507E+02 -0.93327140775E+01  0.20978353035E+02  0.51100000000E-03 0.  1.
         12    1    4    4    0    0  0.78291267129E+01  0.43588592666E+01 -0.19966261926E+02  0.21884846229E+02  0.00000000000E+00 0. -1.
</event>
<event>
 8    1  0.1253703E-006  0.9118800E+02  0.7816164E-02  0.1184000E+00
        -11   -1    0    0    0    0  0.00000000000E+00  0.00000000000E+00  0.45593999997E+02  0.45594000000E+02  0.51100000000E-03 0. -1.
         11   -1    0    0    0    0 -0.00000000000E+00 -0.00000000000E+00 -0.45593999997E+02  0.45594000000E+02  0.51100000000E-03 0.  1.
         23    2    1    2    0    0 -0.88817841970E-15  0.00000000000E+00  0.00000000000E+00  0.91188000000E+02  0.91188000000E+02 0.  0.
    9900012    2    3    3    0    0  0.42706085505E+01 -0.26551443462E+02 -0.25150791637E+02  0.54367087908E+02  0.40000008504E+02 0.  0.
         12    1    3    3    0    0 -0.42706085505E+01  0.26551443462E+02  0.25150791637E+02  0.36820912092E+02  0.00000000000E+00 0. -1.
         11    1    4    4    0    0  0.71215893859E+01 -0.13088534274E+02  0.60216120692E+00  0.14912724875E+02  0.51100000000E-03 0. -1.
        -11    1    4    4    0    0 -0.97857824359E+01 -0.13629845200E+02 -0.49028788777E+01  0.17480630412E+02  0.51100000000E-03 0.  1.
         12    1    4    4    0    0  0.69348016004E+01  0.16693601228E+00 -0.20850073967E+02  0.21973732621E+02  0.00000000000E+00 0. -1.
</event>
<event>
 8    1  0.1253703E-006  0.9118800E+02  0.7816164E-02  0.1184000E+00
        -11   -1    0    0    0    0  0.00000000000E+00  0.00000000000E+00  0.45593999997E+02  0.45594000000E+02  0.51100000000E-03 0. -1.
         11   -1    0    0    0    0 -0.00000000000E+00 -0.00000000000E+00 -0.45593999997E+02  0.45594000000E+02  0.51100000000E-03 0.  1.
         23    2    1    2    0    0 -0.17763568394E-14  0.00000000000E+00 -0.71054273576E-14  0.91188000000E+02  0.91188000000E+02 0.  0.
    9900012    2    3    3    0    0 -0.89187428612E+01 -0.15009600011E+02 -0.32418184903E+02  0.54367207245E+02  0.40000280555E+02 0.  0.
         12    1    3    3    0    0  0.89187428612E+01  0.15009600011E+02  0.32418184903E+02  0.36820792755E+02  0.00000000000E+00 0. -1.
         11    1    4    4    0    0 -0.14940009803E+01 -0.77368089017E+00 -0.29103434894E+02  0.29152024697E+02  0.51100000000E-03 0. -1.
        -11    1    4    4    0    0  0.24426138999E+00 -0.36863053934E+01  0.74423639420E+01  0.83088682976E+01  0.51100000000E-03 0.  1.
        -12    1    4    4    0    0 -0.76690032709E+01 -0.10549613728E+02 -0.10757113951E+02  0.16906314250E+02  0.00000000000E+00 0.  1.
</event>
<event>
 8    1  0.1253703E-006  0.9118800E+02  0.7816164E-02  0.1184000E+00
        -11   -1    0    0    0    0  0.00000000000E+00  0.00000000000E+00  0.45593999997E+02  0.45594000000E+02  0.51100000000E-03 0.  1.
         11   -1    0    0    0    0 -0.00000000000E+00 -0.00000000000E+00 -0.45593999997E+02  0.45594000000E+02  0.51100000000E-03 0. -1.
         23    2    1    2    0    0 -0.35527136788E-14  0.35527136788E-14  0.00000000000E+00  0.91188000000E+02  0.91188000000E+02 0.  0.
    9900012    2    3    3    0    0  0.30481128718E+02 -0.17316265509E+02 -0.11261791203E+02  0.54367079314E+02  0.39999988911E+02 0.  0.
        -12    1    3    3    0    0 -0.30481128718E+02  0.17316265509E+02  0.11261791203E+02  0.36820920686E+02  0.00000000000E+00 0.  1.
         11    1    4    4    0    0  0.23474487160E+02  0.22314372494E+01  0.31670943199E+01  0.23792043760E+02  0.51100000000E-03 0.  1.
        -11    1    4    4    0    0  0.98327982537E+01 -0.20881506788E+02 -0.14814724424E+02  0.27426215693E+02  0.51100000000E-03 0. -1.
        -12    1    4    4    0    0 -0.28261566951E+01  0.13338040295E+01  0.38583890119E+00  0.31488198602E+01  0.00000000000E+00 0.  1.
</event>
<event>
 8    1  0.1253703E-006  0.9118800E+02  0.7816164E-02  0.1184000E+00
        -11   -1    0    0    0    0  0.00000000000E+00  0.00000000000E+00  0.45593999997E+02  0.45594000000E+02  0.51100000000E-03 0. -1.
         11   -1    0    0    0    0 -0.00000000000E+00 -0.00000000000E+00 -0.45593999997E+02  0.45594000000E+02  0.51100000000E-03 0.  1.
         23    2    1    2    0    0 -0.35527136788E-14  0.00000000000E+00  0.00000000000E+00  0.91188000000E+02  0.91188000000E+02 0.  0.
    9900012    2    3    3    0    0 -0.31989496134E+02  0.77457758418E+01 -0.16506206759E+02  0.54367085185E+02  0.40000002295E+02 0.  0.
        -12    1    3    3    0    0  0.31989496134E+02 -0.77457758418E+01  0.16506206759E+02  0.36820914815E+02  0.00000000000E+00 0.  1.
         11    1    4    4    0    0  0.40457578550E+01  0.66342099720E+01  0.28083059701E+01  0.82624137669E+01  0.51100000000E-03 0. -1.
        -11    1    4    4    0    0 -0.17433681790E+02 -0.16216464901E+01 -0.20866766967E+02  0.27239400911E+02  0.51100000000E-03 0.  1.
         12    1    4    4    0    0 -0.18601572199E+02  0.27332123599E+01  0.15522542378E+01  0.18865270507E+02  0.00000000000E+00 0. -1.
</event>
<event>
 8    1  0.1253703E-006  0.9118800E+02  0.7816164E-02  0.1184000E+00
        -11   -1    0    0    0    0  0.00000000000E+00  0.00000000000E+00  0.45593999997E+02  0.45594000000E+02  0.51100000000E-03 0. -1.
         11   -1    0    0    0    0 -0.00000000000E+00 -0.00000000000E+00 -0.45593999997E+02  0.45594000000E+02  0.51100000000E-03 0.  1.
         23    2    1    2    0    0  0.88817841970E-15  0.00000000000E+00  0.00000000000E+00  0.91188000000E+02  0.91188000000E+02 0.  0.
    9900012    2    3    3    0    0  0.78272718871E+01 -0.92996928786E+01 -0.34756746370E+02  0.54367056353E+02  0.39999936569E+02 0.  0.
         12    1    3    3    0    0 -0.78272718871E+01  0.92996928786E+01  0.34756746370E+02  0.36820943647E+02  0.00000000000E+00 0. -1.
         11    1    4    4    0    0  0.51916259443E+01 -0.14308322343E+01 -0.22609119477E+02  0.23241612350E+02  0.51100000000E-03 0. -1.
        -11    1    4    4    0    0  0.82131698108E+01  0.36854169250E+01 -0.15446321786E+02  0.17878123873E+02  0.51100000000E-03 0.  1.
         12    1    4    4    0    0 -0.55775238680E+01 -0.11554277569E+02  0.32986948931E+01  0.13247320131E+02  0.00000000000E+00 0. -1.
</event>
<event>
 8    1  0.1253703E-006  0.9118800E+02  0.7816164E-02  0.1184000E+00
        -11   -1    0    0    0    0  0.00000000000E+00  0.00000000000E+00  0.45593999997E+02  0.45594000000E+02  0.51100000000E-03 0.  1.
         11   -1    0    0    0    0 -0.00000000000E+00 -0.00000000000E+00 -0.45593999997E+02  0.45594000000E+02  0.51100000000E-03 0. -1.
         23    2    1    2    0    0  0.26645352591E-14  0.35527136788E-14  0.00000000000E+00  0.91188000000E+02  0.91188000000E+02 0.  0.
    9900012    2    3    3    0    0 -0.53614481349E+01 -0.19365606585E+02 -0.30854629618E+02  0.54367081851E+02  0.39999994695E+02 0.  0.
        -12    1    3    3    0    0  0.53614481349E+01  0.19365606585E+02  0.30854629618E+02  0.36820918149E+02  0.00000000000E+00 0.  1.
         11    1    4    4    0    0  0.50422743032E+01  0.16996365205E+01 -0.49197264762E+00  0.53437189108E+01  0.51100000000E-03 0. -1.
        -11    1    4    4    0    0  0.10292669391E+02 -0.32610969800E+01 -0.11887488659E+02  0.16058835063E+02  0.51100000000E-03 0.  1.
         12    1    4    4    0    0 -0.20696391829E+02 -0.17804146126E+02 -0.18475168311E+02  0.32964527877E+02  0.00000000000E+00 0. -1.
</event>
<event>
 8    1  0.1253703E-006  0.9118800E+02  0.7816164E-02  0.1184000E+00
        -11   -1    0    0    0    0  0.00000000000E+00  0.00000000000E+00  0.45593999997E+02  0.45594000000E+02  0.51100000000E-03 0.  1.
         11   -1    0    0    0    0 -0.00000000000E+00 -0.00000000000E+00 -0.45593999997E+02  0.45594000000E+02  0.51100000000E-03 0. -1.
         23    2    1    2    0    0  0.00000000000E+00  0.00000000000E+00  0.00000000000E+00  0.91188000000E+02  0.91188000000E+02 0.  0.
    9900012    2    3    3    0    0 -0.20042705394E+02  0.19224094161E+02  0.24176523579E+02  0.54367080291E+02  0.39999991140E+02 0.  0.
         12    1    3    3    0    0  0.20042705394E+02 -0.19224094161E+02 -0.24176523579E+02  0.36820919709E+02  0.00000000000E+00 0. -1.
         11    1    4    4    0    0 -0.19874146192E+01 -0.85365131509E+01  0.14883719160E+01  0.88902826089E+01  0.51100000000E-03 0. -1.
        -11    1    4    4    0    0 -0.13177351306E+02  0.68241131199E+01  0.89702528402E+00  0.14866598870E+02  0.51100000000E-03 0.  1.
        -12    1    4    4    0    0 -0.48779394688E+01  0.20936494192E+02  0.21791126379E+02  0.30610198813E+02  0.00000000000E+00 0.  1.
</event>
<event>
 8    1  0.1253703E-006  0.9118800E+02  0.7816164E-02  0.1184000E+00
        -11   -1    0    0    0    0  0.00000000000E+00  0.00000000000E+00  0.45593999997E+02  0.45594000000E+02  0.51100000000E-03 0.  1.
         11   -1    0    0    0    0 -0.00000000000E+00 -0.00000000000E+00 -0.45593999997E+02  0.45594000000E+02  0.51100000000E-03 0. -1.
         23    2    1    2    0    0 -0.35527136788E-14  0.00000000000E+00  0.00000000000E+00  0.91188000000E+02  0.91188000000E+02 0.  0.
    9900012    2    3    3    0    0 -0.22881400361E+02  0.43883966378E+01  0.28512456447E+02  0.54367127113E+02  0.40000097880E+02 0.  0.
         12    1    3    3    0    0  0.22881400361E+02 -0.43883966378E+01 -0.28512456447E+02  0.36820872887E+02  0.00000000000E+00 0. -1.
         11    1    4    4    0    0  0.15494850654E+01  0.63070375403E+01  0.52560756999E+01  0.83549960220E+01  0.51100000000E-03 0. -1.
        -11    1    4    4    0    0  0.38451534496E+01 -0.52264654206E+01  0.15042137580E+02  0.16381912254E+02  0.51100000000E-03 0.  1.
        -12    1    4    4    0    0 -0.28276038876E+02  0.33078245181E+01  0.82142431664E+01  0.29630218837E+02  0.00000000000E+00 0.  1.
</event>
<event>
 8    1  0.1253703E-006  0.9118800E+02  0.7816164E-02  0.1184000E+00
        -11   -1    0    0    0    0  0.00000000000E+00  0.00000000000E+00  0.45593999997E+02  0.45594000000E+02  0.51100000000E-03 0.  1.
         11   -1    0    0    0    0 -0.00000000000E+00 -0.00000000000E+00 -0.45593999997E+02  0.45594000000E+02  0.51100000000E-03 0. -1.
         23    2    1    2    0    0  0.00000000000E+00  0.44408920985E-15  0.00000000000E+00  0.91188000000E+02  0.91188000000E+02 0.  0.
    9900012    2    3    3    0    0 -0.11073585920E+02 -0.37447992926E+01 -0.34916061711E+02  0.54367093000E+02  0.40000020112E+02 0.  0.
        -12    1    3    3    0    0  0.11073585920E+02  0.37447992926E+01  0.34916061711E+02  0.36820907000E+02  0.00000000000E+00 0.  1.
         11    1    4    4    0    0 -0.12559907728E+02 -0.81602295851E+01 -0.13083976315E+02  0.19887962829E+02  0.51100000000E-03 0. -1.
        -11    1    4    4    0    0 -0.19042457198E+00 -0.98417758435E+01 -0.16405765480E+02  0.19132327472E+02  0.51100000000E-03 0.  1.
        -12    1    4    4    0    0  0.16767463801E+01  0.14257206136E+02 -0.54263199166E+01  0.15346802698E+02  0.00000000000E+00 0.  1.
</event>
<event>
 8    1  0.1253703E-006  0.9118800E+02  0.7816164E-02  0.1184000E+00
        -11   -1    0    0    0    0  0.00000000000E+00  0.00000000000E+00  0.45593999997E+02  0.45594000000E+02  0.51100000000E-03 0.  1.
         11   -1    0    0    0    0 -0.00000000000E+00 -0.00000000000E+00 -0.45593999997E+02  0.45594000000E+02  0.51100000000E-03 0. -1.
         23    2    1    2    0    0  0.00000000000E+00 -0.17763568394E-14  0.00000000000E+00  0.91188000000E+02  0.91188000000E+02 0.  0.
    9900012    2    3    3    0    0  0.19602796616E+02  0.91106443180E+01  0.29807862941E+02  0.54367052591E+02  0.39999927991E+02 0.  0.
         12    1    3    3    0    0 -0.19602796616E+02 -0.91106443180E+01 -0.29807862941E+02  0.36820947409E+02  0.00000000000E+00 0. -1.
         11    1    4    4    0    0 -0.31902051092E+01 -0.21949183267E+01 -0.72650686590E+01  0.82326361502E+01  0.51100000000E-03 0. -1.
        -11    1    4    4    0    0  0.96204866293E+01  0.10356169247E+02  0.17036062867E+02  0.22136653829E+02  0.51100000000E-03 0.  1.
         12    1    4    4    0    0  0.13172515096E+02  0.94939339748E+00  0.20036868732E+02  0.23997762612E+02  0.00000000000E+00 0. -1.
</event>
<event>
 8    1  0.1253703E-006  0.9118800E+02  0.7816164E-02  0.1184000E+00
        -11   -1    0    0    0    0  0.00000000000E+00  0.00000000000E+00  0.45593999997E+02  0.45594000000E+02  0.51100000000E-03 0. -1.
         11   -1    0    0    0    0 -0.00000000000E+00 -0.00000000000E+00 -0.45593999997E+02  0.45594000000E+02  0.51100000000E-03 0.  1.
         23    2    1    2    0    0  0.17763568394E-14  0.35527136788E-14 -0.35527136788E-14  0.91188000000E+02  0.91188000000E+02 0.  0.
    9900012    2    3    3    0    0  0.12723254196E+02  0.28065311352E+02 -0.20155274123E+02  0.54367109549E+02  0.40000057838E+02 0.  0.
         12    1    3    3    0    0 -0.12723254196E+02 -0.28065311352E+02  0.20155274123E+02  0.36820890451E+02  0.00000000000E+00 0. -1.
         11    1    4    4    0    0  0.59784453488E+01  0.81510729932E+01  0.10125969197E+02  0.14307936685E+02  0.51100000000E-03 0. -1.
        -11    1    4    4    0    0  0.62025511065E+01  0.20927454128E+02 -0.19659984905E+02  0.29375925232E+02  0.51100000000E-03 0.  1.
         12    1    4    4    0    0  0.54225774113E+00 -0.10132157687E+01 -0.10621258415E+02  0.10683247633E+02  0.00000000000E+00 0. -1.
</event>
<event>
 8    1  0.1253703E-006  0.9118800E+02  0.7816164E-02  0.1184000E+00
        -11   -1    0    0    0    0  0.00000000000E+00  0.00000000000E+00  0.45593999997E+02  0.45594000000E+02  0.51100000000E-03 0.  1.
         11   -1    0    0    0    0 -0.00000000000E+00 -0.00000000000E+00 -0.45593999997E+02  0.45594000000E+02  0.51100000000E-03 0. -1.
         23    2    1    2    0    0  0.44408920985E-15  0.00000000000E+00 -0.88817841970E-15  0.91188000000E+02  0.91188000000E+02 0.  0.
    9900012    2    3    3    0    0  0.25884883693E+01 -0.36034648610E+02 -0.71125267669E+01  0.54367024870E+02  0.39999864796E+02 0.  0.
         12    1    3    3    0    0 -0.25884883693E+01  0.36034648610E+02  0.71125267669E+01  0.36820975130E+02  0.00000000000E+00 0. -1.
         11    1    4    4    0    0 -0.34510374421E+01 -0.22455312572E+02 -0.12023862069E+02  0.25704551766E+02  0.51100000000E-03 0. -1.
        -11    1    4    4    0    0 -0.23567588807E+01 -0.32792383627E+01 -0.87297934824E+01  0.96185763587E+01  0.51100000000E-03 0.  1.
         12    1    4    4    0    0  0.83962846921E+01 -0.10300097675E+02  0.13641128785E+02  0.19043896746E+02  0.00000000000E+00 0. -1.
</event>
<event>
 8    1  0.1253703E-006  0.9118800E+02  0.7816164E-02  0.1184000E+00
        -11   -1    0    0    0    0  0.00000000000E+00  0.00000000000E+00  0.45593999997E+02  0.45594000000E+02  0.51100000000E-03 0. -1.
         11   -1    0    0    0    0 -0.00000000000E+00 -0.00000000000E+00 -0.45593999997E+02  0.45594000000E+02  0.51100000000E-03 0.  1.
         23    2    1    2    0    0  0.00000000000E+00  0.00000000000E+00 -0.44408920985E-15  0.91188000000E+02  0.91188000000E+02 0.  0.
    9900012    2    3    3    0    0  0.25368266877E+02 -0.26502377577E+02  0.31391551955E+01  0.54367091851E+02  0.40000017492E+02 0.  0.
        -12    1    3    3    0    0 -0.25368266877E+02  0.26502377577E+02 -0.31391551955E+01  0.36820908149E+02  0.00000000000E+00 0.  1.
         11    1    4    4    0    0  0.22875073873E+02 -0.16420512339E+02  0.13636179113E+02  0.31286540417E+02  0.51100000000E-03 0. -1.
        -11    1    4    4    0    0  0.36257471286E+01 -0.14893303770E+02 -0.62133430009E+01  0.16539714960E+02  0.51100000000E-03 0.  1.
         12    1    4    4    0    0 -0.11325541251E+01  0.48114385318E+01 -0.42836809165E+01  0.65408364745E+01  0.00000000000E+00 0. -1.
</event>
<event>
 8    1  0.1253703E-006  0.9118800E+02  0.7816164E-02  0.1184000E+00
        -11   -1    0    0    0    0  0.00000000000E+00  0.00000000000E+00  0.45593999997E+02  0.45594000000E+02  0.51100000000E-03 0. -1.
         11   -1    0    0    0    0 -0.00000000000E+00 -0.00000000000E+00 -0.45593999997E+02  0.45594000000E+02  0.51100000000E-03 0.  1.
         23    2    1    2    0    0 -0.35527136788E-14  0.00000000000E+00 -0.35527136788E-14  0.91188000000E+02  0.91188000000E+02 0.  0.
    9900012    2    3    3    0    0  0.14275947949E+02  0.22390922206E+02 -0.25507318207E+02  0.54367090598E+02  0.40000014636E+02 0.  0.
         12    1    3    3    0    0 -0.14275947949E+02 -0.22390922206E+02  0.25507318207E+02  0.36820909402E+02  0.00000000000E+00 0. -1.
         11    1    4    4    0    0 -0.61067107773E+01 -0.23967353593E+01 -0.13363909888E+02  0.14887254436E+02  0.51100000000E-03 0. -1.
        -11    1    4    4    0    0 -0.57677767268E+00  0.28884160229E+01  0.41317030966E+01  0.50741098081E+01  0.51100000000E-03 0.  1.
        -12    1    4    4    0    0  0.20959436399E+02  0.21899241543E+02 -0.16275111416E+02  0.34405726353E+02  0.00000000000E+00 0.  1.
</event>
<event>
 8    1  0.1253703E-006  0.9118800E+02  0.7816164E-02  0.1184000E+00
        -11   -1    0    0    0    0  0.00000000000E+00  0.00000000000E+00  0.45593999997E+02  0.45594000000E+02  0.51100000000E-03 0.  1.
         11   -1    0    0    0    0 -0.00000000000E+00 -0.00000000000E+00 -0.45593999997E+02  0.45594000000E+02  0.51100000000E-03 0. -1.
         23    2    1    2    0    0  0.00000000000E+00  0.00000000000E+00  0.00000000000E+00  0.91188000000E+02  0.91188000000E+02 0.  0.
    9900012    2    3    3    0    0 -0.28332413234E+02  0.19504442100E+02 -0.13138894104E+02  0.54367089642E+02  0.40000012458E+02 0.  0.
        -12    1    3    3    0    0  0.28332413234E+02 -0.19504442100E+02  0.13138894104E+02  0.36820910358E+02  0.00000000000E+00 0.  1.
         11    1    4    4    0    0 -0.23389395509E+02  0.10262205614E+02 -0.14988029054E+02  0.29614484657E+02  0.51100000000E-03 0. -1.
        -11    1    4    4    0    0 -0.58172577274E+01  0.74141673258E+01 -0.94070288612E+01  0.13315500624E+02  0.51100000000E-03 0.  1.
         12    1    4    4    0    0  0.87424000266E+00  0.18280691600E+01  0.11256163811E+02  0.11437104361E+02  0.00000000000E+00 0. -1.
</event>
<event>
 8    1  0.1253703E-006  0.9118800E+02  0.7816164E-02  0.1184000E+00
        -11   -1    0    0    0    0  0.00000000000E+00  0.00000000000E+00  0.45593999997E+02  0.45594000000E+02  0.51100000000E-03 0. -1.
         11   -1    0    0    0    0 -0.00000000000E+00 -0.00000000000E+00 -0.45593999997E+02  0.45594000000E+02  0.51100000000E-03 0.  1.
         23    2    1    2    0    0  0.00000000000E+00  0.00000000000E+00  0.00000000000E+00  0.91188000000E+02  0.91188000000E+02 0.  0.
    9900012    2    3    3    0    0 -0.20841057129E+02  0.82130713140E+01  0.29222861370E+02  0.54367084349E+02  0.40000000391E+02 0.  0.
        -12    1    3    3    0    0  0.20841057129E+02 -0.82130713140E+01 -0.29222861370E+02  0.36820915651E+02  0.00000000000E+00 0.  1.
         11    1    4    4    0    0 -0.15957691413E+02  0.16689634284E+02  0.15371108294E+02  0.27739192097E+02  0.51100000000E-03 0. -1.
        -11    1    4    4    0    0 -0.10600859482E+02 -0.90416041783E+01  0.28575946268E+01  0.14223033263E+02  0.51100000000E-03 0.  1.
        -12    1    4    4    0    0  0.57174937661E+01  0.56504120881E+00  0.10994158450E+02  0.12404858990E+02  0.00000000000E+00 0.  1.
</event>
<event>
 8    1  0.1253703E-006  0.9118800E+02  0.7816164E-02  0.1184000E+00
        -11   -1    0    0    0    0  0.00000000000E+00  0.00000000000E+00  0.45593999997E+02  0.45594000000E+02  0.51100000000E-03 0. -1.
         11   -1    0    0    0    0 -0.00000000000E+00 -0.00000000000E+00 -0.45593999997E+02  0.45594000000E+02  0.51100000000E-03 0.  1.
         23    2    1    2    0    0 -0.35527136788E-14  0.17763568394E-14  0.71054273576E-14  0.91188000000E+02  0.91188000000E+02 0.  0.
    9900012    2    3    3    0    0 -0.10246758818E+02  0.25738727960E+01  0.35272633249E+02  0.54367088227E+02  0.40000009231E+02 0.  0.
        -12    1    3    3    0    0  0.10246758818E+02 -0.25738727960E+01 -0.35272633249E+02  0.36820911773E+02  0.00000000000E+00 0.  1.
         11    1    4    4    0    0 -0.13025753688E+02  0.10605441439E+02  0.29326568129E+02  0.33796349592E+02  0.51100000000E-03 0. -1.
        -11    1    4    4    0    0  0.90436236411E+01 -0.80146317020E+01  0.22375396360E+00  0.12086004964E+02  0.51100000000E-03 0.  1.
        -12    1    4    4    0    0 -0.62646287712E+01 -0.16936941326E-01  0.57223111565E+01  0.84847336713E+01  0.00000000000E+00 0.  1.
</event>
<event>
 8    1  0.1253703E-006  0.9118800E+02  0.7816164E-02  0.1184000E+00
        -11   -1    0    0    0    0  0.00000000000E+00  0.00000000000E+00  0.45593999997E+02  0.45594000000E+02  0.51100000000E-03 0. -1.
         11   -1    0    0    0    0 -0.00000000000E+00 -0.00000000000E+00 -0.45593999997E+02  0.45594000000E+02  0.51100000000E-03 0.  1.
         23    2    1    2    0    0  0.00000000000E+00  0.35527136788E-14  0.00000000000E+00  0.91188000000E+02  0.91188000000E+02 0.  0.
    9900012    2    3    3    0    0 -0.17372472494E+02 -0.16169487068E+02 -0.28151820918E+02  0.54367080218E+02  0.39999990974E+02 0.  0.
         12    1    3    3    0    0  0.17372472494E+02  0.16169487068E+02  0.28151820918E+02  0.36820919782E+02  0.00000000000E+00 0. -1.
         11    1    4    4    0    0 -0.19626222564E+02  0.25726425663E+01 -0.16926801145E+02  0.26044648187E+02  0.51100000000E-03 0. -1.
        -11    1    4    4    0    0  0.38491829388E+01  0.91691135527E+00 -0.71653415035E+01  0.81852950376E+01  0.51100000000E-03 0.  1.
        -12    1    4    4    0    0 -0.15954328681E+01 -0.19659040990E+02 -0.40596782694E+01  0.20137136994E+02  0.00000000000E+00 0.  1.
</event>
<event>
 8    1  0.1253703E-006  0.9118800E+02  0.7816164E-02  0.1184000E+00
        -11   -1    0    0    0    0  0.00000000000E+00  0.00000000000E+00  0.45593999997E+02  0.45594000000E+02  0.51100000000E-03 0. -1.
         11   -1    0    0    0    0 -0.00000000000E+00 -0.00000000000E+00 -0.45593999997E+02  0.45594000000E+02  0.51100000000E-03 0.  1.
         23    2    1    2    0    0  0.00000000000E+00  0.00000000000E+00  0.00000000000E+00  0.91188000000E+02  0.91188000000E+02 0.  0.
    9900012    2    3    3    0    0  0.16938075700E+02 -0.19735014040E+02  0.26065475647E+02  0.54367106363E+02  0.40000050575E+02 0.  0.
        -12    1    3    3    0    0 -0.16938075700E+02  0.19735014040E+02 -0.26065475647E+02  0.36820893637E+02  0.00000000000E+00 0.  1.
         11    1    4    4    0    0  0.11671331161E+02 -0.27018246628E+01  0.47793743207E+01  0.12898148966E+02  0.51100000000E-03 0. -1.
        -11    1    4    4    0    0 -0.95015673457E+01 -0.16835346264E+02  0.60667306475E+01  0.20261142289E+02  0.51100000000E-03 0.  1.
        -12    1    4    4    0    0  0.14768311884E+02 -0.19784311330E+00  0.15219370679E+02  0.21207815108E+02  0.00000000000E+00 0.  1.
</event>
<event>
 8    1  0.1253703E-006  0.9118800E+02  0.7816164E-02  0.1184000E+00
        -11   -1    0    0    0    0  0.00000000000E+00  0.00000000000E+00  0.45593999997E+02  0.45594000000E+02  0.51100000000E-03 0. -1.
         11   -1    0    0    0    0 -0.00000000000E+00 -0.00000000000E+00 -0.45593999997E+02  0.45594000000E+02  0.51100000000E-03 0.  1.
         23    2    1    2    0    0  0.00000000000E+00 -0.88817841970E-15  0.00000000000E+00  0.91188000000E+02  0.91188000000E+02 0.  0.
    9900012    2    3    3    0    0  0.19610291130E+02 -0.74681453727E+01 -0.30256295159E+02  0.54367080535E+02  0.39999991695E+02 0.  0.
         12    1    3    3    0    0 -0.19610291130E+02  0.74681453727E+01  0.30256295159E+02  0.36820919465E+02  0.00000000000E+00 0. -1.
         11    1    4    4    0    0 -0.16889377764E+01 -0.10222026959E+02 -0.35308485153E+01  0.10945740608E+02  0.51100000000E-03 0. -1.
        -11    1    4    4    0    0  0.10845081882E+02 -0.26516931622E+01  0.29074259211E+01  0.11536914813E+02  0.51100000000E-03 0.  1.
        -12    1    4    4    0    0  0.10454147024E+02  0.54055747485E+01 -0.29632872565E+02  0.31884425113E+02  0.00000000000E+00 0.  1.
</event>
<event>
 8    1  0.1253703E-006  0.9118800E+02  0.7816164E-02  0.1184000E+00
        -11   -1    0    0    0    0  0.00000000000E+00  0.00000000000E+00  0.45593999997E+02  0.45594000000E+02  0.51100000000E-03 0. -1.
         11   -1    0    0    0    0 -0.00000000000E+00 -0.00000000000E+00 -0.45593999997E+02  0.45594000000E+02  0.51100000000E-03 0.  1.
         23    2    1    2    0    0  0.00000000000E+00  0.35527136788E-14  0.17763568394E-14  0.91188000000E+02  0.91188000000E+02 0.  0.
    9900012    2    3    3    0    0  0.30533429835E+02 -0.19219684222E+02  0.73547509461E+01  0.54367096147E+02  0.40000027285E+02 0.  0.
        -12    1    3    3    0    0 -0.30533429835E+02  0.19219684222E+02 -0.73547509461E+01  0.36820903853E+02  0.00000000000E+00 0.  1.
         11    1    4    4    0    0  0.11545419308E+02 -0.16126641329E+02  0.18140388545E+02  0.26878224726E+02  0.51100000000E-03 0. -1.
        -11    1    4    4    0    0  0.17158721930E+02 -0.78837151430E+01 -0.45651990409E+01  0.19427190875E+02  0.51100000000E-03 0.  1.
         12    1    4    4    0    0  0.18292885968E+01  0.47906722497E+01 -0.62204385585E+01  0.80616805465E+01  0.00000000000E+00 0. -1.
</event>
<event>
 8    1  0.1253703E-006  0.9118800E+02  0.7816164E-02  0.1184000E+00
        -11   -1    0    0    0    0  0.00000000000E+00  0.00000000000E+00  0.45593999997E+02  0.45594000000E+02  0.51100000000E-03 0. -1.
         11   -1    0    0    0    0 -0.00000000000E+00 -0.00000000000E+00 -0.45593999997E+02  0.45594000000E+02  0.51100000000E-03 0.  1.
         23    2    1    2    0    0 -0.35527136788E-14 -0.35527136788E-14  0.00000000000E+00  0.91188000000E+02  0.91188000000E+02 0.  0.
    9900012    2    3    3    0    0  0.13448787808E+02 -0.29557076611E+02 -0.17357687985E+02  0.54367081985E+02  0.39999995001E+02 0.  0.
        -12    1    3    3    0    0 -0.13448787808E+02  0.29557076611E+02  0.17357687985E+02  0.36820918015E+02  0.00000000000E+00 0.  1.
         11    1    4    4    0    0 -0.76856314630E+01 -0.19542793357E+02 -0.48874712863E+01  0.21561008302E+02  0.51100000000E-03 0. -1.
        -11    1    4    4    0    0 -0.25190086835E+01 -0.16447001918E+01 -0.62797307021E+01  0.69631502512E+01  0.51100000000E-03 0.  1.
         12    1    4    4    0    0  0.23653427954E+02 -0.83695830625E+01 -0.61904859969E+01  0.25842923432E+02  0.00000000000E+00 0. -1.
</event>
<event>
 8    1  0.1253703E-006  0.9118800E+02  0.7816164E-02  0.1184000E+00
        -11   -1    0    0    0    0  0.00000000000E+00  0.00000000000E+00  0.45593999997E+02  0.45594000000E+02  0.51100000000E-03 0.  1.
         11   -1    0    0    0    0 -0.00000000000E+00 -0.00000000000E+00 -0.45593999997E+02  0.45594000000E+02  0.51100000000E-03 0. -1.
         23    2    1    2    0    0  0.33306690739E-15  0.71054273576E-14 -0.44408920985E-15  0.91188000000E+02  0.91188000000E+02 0.  0.
    9900012    2    3    3    0    0 -0.64228339036E+00 -0.36631486070E+02  0.36746224621E+01  0.54367066418E+02  0.39999959512E+02 0.  0.
         12    1    3    3    0    0  0.64228339036E+00  0.36631486070E+02 -0.36746224621E+01  0.36820933582E+02  0.00000000000E+00 0. -1.
         11    1    4    4    0    0  0.30006223860E+01 -0.15000436494E+02  0.19990973059E+02  0.25172521404E+02  0.51100000000E-03 0.  1.
        -11    1    4    4    0    0 -0.21588214777E+01  0.31699837760E+00 -0.19011725869E+01  0.28940379421E+01  0.51100000000E-03 0. -1.
         12    1    4    4    0    0 -0.14840842987E+01 -0.21948047953E+02 -0.14415178010E+02  0.26300507072E+02  0.00000000000E+00 0. -1.
</event>
<event>
 8    1  0.1253703E-006  0.9118800E+02  0.7816164E-02  0.1184000E+00
        -11   -1    0    0    0    0  0.00000000000E+00  0.00000000000E+00  0.45593999997E+02  0.45594000000E+02  0.51100000000E-03 0.  1.
         11   -1    0    0    0    0 -0.00000000000E+00 -0.00000000000E+00 -0.45593999997E+02  0.45594000000E+02  0.51100000000E-03 0. -1.
         23    2    1    2    0    0  0.00000000000E+00  0.00000000000E+00  0.00000000000E+00  0.91188000000E+02  0.91188000000E+02 0.  0.
    9900012    2    3    3    0    0 -0.17574725381E+02  0.23561399439E+02  0.22175927088E+02  0.54367051371E+02  0.39999925210E+02 0.  0.
         12    1    3    3    0    0  0.17574725381E+02 -0.23561399439E+02 -0.22175927088E+02  0.36820948629E+02  0.00000000000E+00 0. -1.
         11    1    4    4    0    0 -0.13032799566E+02  0.22963828558E+02  0.10998459144E+02  0.28603450673E+02  0.51100000000E-03 0. -1.
        -11    1    4    4    0    0 -0.13347678552E+02 -0.83577917953E+00  0.30995596458E+01  0.13728303604E+02  0.51100000000E-03 0.  1.
         12    1    4    4    0    0  0.88057527373E+01  0.14333500596E+01  0.80779082988E+01  0.12035297094E+02  0.00000000000E+00 0. -1.
</event>
<event>
 8    1  0.1253703E-006  0.9118800E+02  0.7816164E-02  0.1184000E+00
        -11   -1    0    0    0    0  0.00000000000E+00  0.00000000000E+00  0.45593999997E+02  0.45594000000E+02  0.51100000000E-03 0. -1.
         11   -1    0    0    0    0 -0.00000000000E+00 -0.00000000000E+00 -0.45593999997E+02  0.45594000000E+02  0.51100000000E-03 0.  1.
         23    2    1    2    0    0  0.00000000000E+00 -0.35527136788E-14  0.35527136788E-14  0.91188000000E+02  0.91188000000E+02 0.  0.
    9900012    2    3    3    0    0 -0.11401987258E+02 -0.31655488762E+02  0.14956783004E+02  0.54367073341E+02  0.39999975296E+02 0.  0.
        -12    1    3    3    0    0  0.11401987258E+02  0.31655488762E+02 -0.14956783004E+02  0.36820926659E+02  0.00000000000E+00 0.  1.
         11    1    4    4    0    0  0.69642417703E+01 -0.85367864324E+01  0.25704488162E+01  0.11313027597E+02  0.51100000000E-03 0. -1.
        -11    1    4    4    0    0 -0.39465298142E+01 -0.15360515395E+02 -0.72908891159E+01  0.17455016332E+02  0.51100000000E-03 0.  1.
        -12    1    4    4    0    0 -0.14419699215E+02 -0.77581869340E+01  0.19677223304E+02  0.25599029413E+02  0.00000000000E+00 0.  1.
</event>
<event>
 8    1  0.1253703E-006  0.9118800E+02  0.7816164E-02  0.1184000E+00
        -11   -1    0    0    0    0  0.00000000000E+00  0.00000000000E+00  0.45593999997E+02  0.45594000000E+02  0.51100000000E-03 0.  1.
         11   -1    0    0    0    0 -0.00000000000E+00 -0.00000000000E+00 -0.45593999997E+02  0.45594000000E+02  0.51100000000E-03 0. -1.
         23    2    1    2    0    0  0.00000000000E+00  0.17763568394E-14  0.00000000000E+00  0.91188000000E+02  0.91188000000E+02 0.  0.
    9900012    2    3    3    0    0  0.23569408369E+02 -0.11950085553E+02 -0.25640944336E+02  0.54367087707E+02  0.40000008047E+02 0.  0.
        -12    1    3    3    0    0 -0.23569408369E+02  0.11950085553E+02  0.25640944336E+02  0.36820912293E+02  0.00000000000E+00 0.  1.
         11    1    4    4    0    0  0.97361399009E+01  0.53668200785E+01 -0.73585823608E+01  0.13332063327E+02  0.51100000000E-03 0. -1.
        -11    1    4    4    0    0  0.21800130978E+02 -0.16895856268E+02 -0.18221890557E+02  0.33056814205E+02  0.51100000000E-03 0.  1.
        -12    1    4    4    0    0 -0.79668625094E+01 -0.42104936406E+00 -0.60471418206E-01  0.79782101754E+01  0.00000000000E+00 0.  1.
</event>
<event>
 8    1  0.1253703E-006  0.9118800E+02  0.7816164E-02  0.1184000E+00
        -11   -1    0    0    0    0  0.00000000000E+00  0.00000000000E+00  0.45593999997E+02  0.45594000000E+02  0.51100000000E-03 0. -1.
         11   -1    0    0    0    0 -0.00000000000E+00 -0.00000000000E+00 -0.45593999997E+02  0.45594000000E+02  0.51100000000E-03 0.  1.
         23    2    1    2    0    0  0.71054273576E-14  0.17763568394E-14  0.35527136788E-14  0.91188000000E+02  0.91188000000E+02 0.  0.
    9900012    2    3    3    0    0  0.22816294510E+02  0.15324877220E+02  0.24501936904E+02  0.54367081095E+02  0.39999992972E+02 0.  0.
        -12    1    3    3    0    0 -0.22816294510E+02 -0.15324877220E+02 -0.24501936904E+02  0.36820918905E+02  0.00000000000E+00 0.  1.
         11    1    4    4    0    0 -0.55071351951E+01  0.31275236907E+01  0.83836202121E+01  0.10506903950E+02  0.51100000000E-03 0. -1.
        -11    1    4    4    0    0 -0.39042441984E+01  0.96646031661E+00 -0.27412155399E+01  0.48673844313E+01  0.51100000000E-03 0.  1.
         12    1    4    4    0    0  0.32227673904E+02  0.11230893212E+02  0.18859532232E+02  0.38992792713E+02  0.00000000000E+00 0. -1.
</event>
<event>
 8    1  0.1253703E-006  0.9118800E+02  0.7816164E-02  0.1184000E+00
        -11   -1    0    0    0    0  0.00000000000E+00  0.00000000000E+00  0.45593999997E+02  0.45594000000E+02  0.51100000000E-03 0. -1.
         11   -1    0    0    0    0 -0.00000000000E+00 -0.00000000000E+00 -0.45593999997E+02  0.45594000000E+02  0.51100000000E-03 0.  1.
         23    2    1    2    0    0 -0.35527136788E-14  0.17763568394E-14  0.00000000000E+00  0.91188000000E+02  0.91188000000E+02 0.  0.
    9900012    2    3    3    0    0 -0.28356816517E+02  0.15782799416E+02 -0.17394632013E+02  0.54367095295E+02  0.40000025345E+02 0.  0.
         12    1    3    3    0    0  0.28356816517E+02 -0.15782799416E+02  0.17394632013E+02  0.36820904705E+02  0.00000000000E+00 0. -1.
         11    1    4    4    0    0  0.50371945779E+01  0.27347250199E+01  0.62604872139E+01  0.84879768241E+01  0.51100000000E-03 0. -1.
        -11    1    4    4    0    0 -0.14466708114E+01  0.59780257842E+01 -0.14010183078E+01  0.63081297761E+01  0.51100000000E-03 0.  1.
        -12    1    4    4    0    0 -0.31947340284E+02  0.70700486120E+01 -0.22254100919E+02  0.39570988695E+02  0.00000000000E+00 0.  1.
</event>
<event>
 8    1  0.1253703E-006  0.9118800E+02  0.7816164E-02  0.1184000E+00
        -11   -1    0    0    0    0  0.00000000000E+00  0.00000000000E+00  0.45593999997E+02  0.45594000000E+02  0.51100000000E-03 0.  1.
         11   -1    0    0    0    0 -0.00000000000E+00 -0.00000000000E+00 -0.45593999997E+02  0.45594000000E+02  0.51100000000E-03 0. -1.
         23    2    1    2    0    0  0.00000000000E+00  0.00000000000E+00  0.00000000000E+00  0.91188000000E+02  0.91188000000E+02 0.  0.
    9900012    2    3    3    0    0 -0.34519169813E+02  0.87622762262E+01  0.93504120926E+01  0.54367071501E+02  0.39999971101E+02 0.  0.
         12    1    3    3    0    0  0.34519169813E+02 -0.87622762262E+01 -0.93504120926E+01  0.36820928499E+02  0.00000000000E+00 0. -1.
         11    1    4    4    0    0 -0.18764512234E+02 -0.92106736720E+01  0.31629626371E+01  0.21141139084E+02  0.51100000000E-03 0. -1.
        -11    1    4    4    0    0 -0.18511194865E+02  0.10684896237E+02 -0.25425926276E+01  0.21524314634E+02  0.51100000000E-03 0.  1.
         12    1    4    4    0    0  0.27565372859E+01  0.72880536615E+01  0.87300420832E+01  0.11701617784E+02  0.00000000000E+00 0. -1.
</event>
<event>
 8    1  0.1253703E-006  0.9118800E+02  0.7816164E-02  0.1184000E+00
        -11   -1    0    0    0    0  0.00000000000E+00  0.00000000000E+00  0.45593999997E+02  0.45594000000E+02  0.51100000000E-03 0.  1.
         11   -1    0    0    0    0 -0.00000000000E+00 -0.00000000000E+00 -0.45593999997E+02  0.45594000000E+02  0.51100000000E-03 0. -1.
         23    2    1    2    0    0  0.00000000000E+00 -0.71054273576E-14  0.17763568394E-14  0.91188000000E+02  0.91188000000E+02 0.  0.
    9900012    2    3    3    0    0  0.13309265954E+02  0.33141795432E+02 -0.89590479105E+01  0.54367086049E+02  0.40000004266E+02 0.  0.
         12    1    3    3    0    0 -0.13309265954E+02 -0.33141795432E+02  0.89590479105E+01  0.36820913951E+02  0.00000000000E+00 0. -1.
         11    1    4    4    0    0  0.79433136079E+01  0.34765806559E+02 -0.31708538546E+01  0.35802400076E+02  0.51100000000E-03 0. -1.
        -11    1    4    4    0    0  0.31526156384E+01  0.15893642141E+01  0.55478077531E+01  0.65759588727E+01  0.51100000000E-03 0.  1.
         12    1    4    4    0    0  0.22133367079E+01 -0.32133753413E+01 -0.11336001809E+02  0.11988727100E+02  0.00000000000E+00 0. -1.
</event>
<event>
 8    1  0.1253703E-006  0.9118800E+02  0.7816164E-02  0.1184000E+00
        -11   -1    0    0    0    0  0.00000000000E+00  0.00000000000E+00  0.45593999997E+02  0.45594000000E+02  0.51100000000E-03 0.  1.
         11   -1    0    0    0    0 -0.00000000000E+00 -0.00000000000E+00 -0.45593999997E+02  0.45594000000E+02  0.51100000000E-03 0. -1.
         23    2    1    2    0    0  0.00000000000E+00  0.00000000000E+00  0.00000000000E+00  0.91188000000E+02  0.91188000000E+02 0.  0.
    9900012    2    3    3    0    0 -0.15073719068E+02  0.11799592271E+02  0.31453655667E+02  0.54367084217E+02  0.40000000089E+02 0.  0.
         12    1    3    3    0    0  0.15073719068E+02 -0.11799592271E+02 -0.31453655667E+02  0.36820915783E+02  0.00000000000E+00 0. -1.
         11    1    4    4    0    0  0.47317509689E+01  0.17453810139E+02  0.77635395287E+01  0.19679875556E+02  0.51100000000E-03 0. -1.
        -11    1    4    4    0    0 -0.19118962828E+02 -0.77844018971E+01  0.14495233525E+02  0.25223866629E+02  0.51100000000E-03 0.  1.
         12    1    4    4    0    0 -0.68650720805E+00  0.21301840284E+01  0.91948826131E+01  0.94633420318E+01  0.00000000000E+00 0. -1.
</event>
<event>
 8    1  0.1253703E-006  0.9118800E+02  0.7816164E-02  0.1184000E+00
        -11   -1    0    0    0    0  0.00000000000E+00  0.00000000000E+00  0.45593999997E+02  0.45594000000E+02  0.51100000000E-03 0. -1.
         11   -1    0    0    0    0 -0.00000000000E+00 -0.00000000000E+00 -0.45593999997E+02  0.45594000000E+02  0.51100000000E-03 0.  1.
         23    2    1    2    0    0  0.17763568394E-14  0.00000000000E+00  0.00000000000E+00  0.91188000000E+02  0.91188000000E+02 0.  0.
    9900012    2    3    3    0    0  0.12635088395E+02  0.57213066381E+01 -0.34108657509E+02  0.54367091192E+02  0.40000015990E+02 0.  0.
         12    1    3    3    0    0 -0.12635088395E+02 -0.57213066381E+01  0.34108657509E+02  0.36820908808E+02  0.00000000000E+00 0. -1.
         11    1    4    4    0    0 -0.38618638514E+01  0.13486543497E+02 -0.15288701616E+02  0.20749584219E+02  0.51100000000E-03 0. -1.
        -11    1    4    4    0    0 -0.40851527971E+01  0.11523637940E+01 -0.71936815913E+01  0.83525727047E+01  0.51100000000E-03 0.  1.
        -12    1    4    4    0    0  0.20582105044E+02 -0.89176006531E+01 -0.11626274302E+02  0.25264934268E+02  0.00000000000E+00 0.  1.
</event>
<event>
 8    1  0.1253703E-006  0.9118800E+02  0.7816164E-02  0.1184000E+00
        -11   -1    0    0    0    0  0.00000000000E+00  0.00000000000E+00  0.45593999997E+02  0.45594000000E+02  0.51100000000E-03 0.  1.
         11   -1    0    0    0    0 -0.00000000000E+00 -0.00000000000E+00 -0.45593999997E+02  0.45594000000E+02  0.51100000000E-03 0. -1.
         23    2    1    2    0    0  0.00000000000E+00  0.00000000000E+00  0.00000000000E+00  0.91188000000E+02  0.91188000000E+02 0.  0.
    9900012    2    3    3    0    0 -0.19089534225E+02 -0.21940890689E+02  0.22582428837E+02  0.54367094344E+02  0.40000023175E+02 0.  0.
         12    1    3    3    0    0  0.19089534225E+02  0.21940890689E+02 -0.22582428837E+02  0.36820905656E+02  0.00000000000E+00 0. -1.
         11    1    4    4    0    0 -0.99836366369E+01 -0.67231776266E+01 -0.37202250438E+01  0.12598182112E+02  0.51100000000E-03 0. -1.
        -11    1    4    4    0    0  0.13126451051E+01  0.54274200475E+01  0.15047846189E+02  0.16050470421E+02  0.51100000000E-03 0.  1.
        -12    1    4    4    0    0 -0.10418542693E+02 -0.20645133110E+02  0.11254807692E+02  0.25718441811E+02  0.00000000000E+00 0.  1.
</event>
<event>
 8    1  0.1253703E-006  0.9118800E+02  0.7816164E-02  0.1184000E+00
        -11   -1    0    0    0    0  0.00000000000E+00  0.00000000000E+00  0.45593999997E+02  0.45594000000E+02  0.51100000000E-03 0. -1.
         11   -1    0    0    0    0 -0.00000000000E+00 -0.00000000000E+00 -0.45593999997E+02  0.45594000000E+02  0.51100000000E-03 0.  1.
         23    2    1    2    0    0 -0.35527136788E-14 -0.35527136788E-14  0.35527136788E-14  0.91188000000E+02  0.91188000000E+02 0.  0.
    9900012    2    3    3    0    0  0.18796167322E+02 -0.24931144971E+02  0.19517224936E+02  0.54367082510E+02  0.39999996198E+02 0.  0.
         12    1    3    3    0    0 -0.18796167322E+02  0.24931144971E+02 -0.19517224936E+02  0.36820917490E+02  0.00000000000E+00 0. -1.
         11    1    4    4    0    0 -0.75262017632E+01 -0.84978390772E+01  0.16412536372E+02  0.19955659157E+02  0.51100000000E-03 0. -1.
        -11    1    4    4    0    0  0.18300805516E+02 -0.31234044891E+01  0.33705659549E+01  0.18868912349E+02  0.51100000000E-03 0.  1.
         12    1    4    4    0    0  0.80215635697E+01 -0.13309901405E+02 -0.26587739091E+00  0.15542511004E+02  0.00000000000E+00 0. -1.
</event>
<event>
 8    1  0.1253703E-006  0.9118800E+02  0.7816164E-02  0.1184000E+00
        -11   -1    0    0    0    0  0.00000000000E+00  0.00000000000E+00  0.45593999997E+02  0.45594000000E+02  0.51100000000E-03 0.  1.
         11   -1    0    0    0    0 -0.00000000000E+00 -0.00000000000E+00 -0.45593999997E+02  0.45594000000E+02  0.51100000000E-03 0. -1.
         23    2    1    2    0    0  0.00000000000E+00  0.11102230246E-14 -0.26645352591E-14  0.91188000000E+02  0.91188000000E+02 0.  0.
    9900012    2    3    3    0    0 -0.36622765058E+02  0.11890496233E+01  0.36248615944E+01  0.54367076858E+02  0.39999983313E+02 0.  0.
        -12    1    3    3    0    0  0.36622765058E+02 -0.11890496233E+01 -0.36248615944E+01  0.36820923142E+02  0.00000000000E+00 0.  1.
         11    1    4    4    0    0 -0.22622853147E+02 -0.45896892998E+01 -0.77808403003E+01  0.24359807233E+02  0.51100000000E-03 0. -1.
        -11    1    4    4    0    0  0.47109965836E+01 -0.43193402037E+01  0.15747079798E+01  0.65825446515E+01  0.51100000000E-03 0.  1.
         12    1    4    4    0    0 -0.18710908494E+02  0.10098079127E+02  0.98309939149E+01  0.23424724973E+02  0.00000000000E+00 0. -1.
</event>
<event>
 8    1  0.1253703E-006  0.9118800E+02  0.7816164E-02  0.1184000E+00
        -11   -1    0    0    0    0  0.00000000000E+00  0.00000000000E+00  0.45593999997E+02  0.45594000000E+02  0.51100000000E-03 0.  1.
         11   -1    0    0    0    0 -0.00000000000E+00 -0.00000000000E+00 -0.45593999997E+02  0.45594000000E+02  0.51100000000E-03 0. -1.
         23    2    1    2    0    0 -0.88817841970E-15 -0.35527136788E-14  0.00000000000E+00  0.91188000000E+02  0.91188000000E+02 0.  0.
    9900012    2    3    3    0    0  0.54620341176E+01  0.16747223998E+02 -0.32333827635E+02  0.54367085592E+02  0.40000003223E+02 0.  0.
        -12    1    3    3    0    0 -0.54620341176E+01 -0.16747223998E+02  0.32333827635E+02  0.36820914408E+02  0.00000000000E+00 0.  1.
         11    1    4    4    0    0 -0.55914039274E+01  0.13833665825E+02 -0.20019435722E+01  0.15054630064E+02  0.51100000000E-03 0. -1.
        -11    1    4    4    0    0 -0.67016424428E+01  0.14167124213E+00 -0.55597593805E+01  0.87087890548E+01  0.51100000000E-03 0.  1.
         12    1    4    4    0    0  0.17755080488E+02  0.27718869304E+01 -0.24772124683E+02  0.30603666473E+02  0.00000000000E+00 0. -1.
</event>
<event>
 8    1  0.1253703E-006  0.9118800E+02  0.7816164E-02  0.1184000E+00
        -11   -1    0    0    0    0  0.00000000000E+00  0.00000000000E+00  0.45593999997E+02  0.45594000000E+02  0.51100000000E-03 0.  1.
         11   -1    0    0    0    0 -0.00000000000E+00 -0.00000000000E+00 -0.45593999997E+02  0.45594000000E+02  0.51100000000E-03 0. -1.
         23    2    1    2    0    0  0.00000000000E+00  0.00000000000E+00  0.00000000000E+00  0.91188000000E+02  0.91188000000E+02 0.  0.
    9900012    2    3    3    0    0  0.45883387240E+01 -0.99425419430E+01  0.35154982552E+02  0.54367084873E+02  0.40000001585E+02 0.  0.
         12    1    3    3    0    0 -0.45883387240E+01  0.99425419430E+01 -0.35154982552E+02  0.36820915127E+02  0.00000000000E+00 0. -1.
         11    1    4    4    0    0  0.52875460346E+01 -0.33037515659E+01  0.22401948309E+02  0.23253391275E+02  0.51100000000E-03 0. -1.
        -11    1    4    4    0    0 -0.35698553183E+01  0.92589388205E+01  0.11077488098E+02  0.14872207566E+02  0.51100000000E-03 0.  1.
         12    1    4    4    0    0  0.28706480077E+01 -0.15897729198E+02  0.16755461450E+01  0.16241486031E+02  0.00000000000E+00 0. -1.
</event>
<event>
 8    1  0.1253703E-006  0.9118800E+02  0.7816164E-02  0.1184000E+00
        -11   -1    0    0    0    0  0.00000000000E+00  0.00000000000E+00  0.45593999997E+02  0.45594000000E+02  0.51100000000E-03 0. -1.
         11   -1    0    0    0    0 -0.00000000000E+00 -0.00000000000E+00 -0.45593999997E+02  0.45594000000E+02  0.51100000000E-03 0.  1.
         23    2    1    2    0    0  0.00000000000E+00  0.00000000000E+00  0.00000000000E+00  0.91188000000E+02  0.91188000000E+02 0.  0.
    9900012    2    3    3    0    0 -0.24041136239E+02  0.24423850024E+02 -0.13464003457E+02  0.54367081071E+02  0.39999992917E+02 0.  0.
         12    1    3    3    0    0  0.24041136239E+02 -0.24423850024E+02  0.13464003457E+02  0.36820918929E+02  0.00000000000E+00 0. -1.
         11    1    4    4    0    0  0.12609124683E+01  0.17154627172E+02 -0.33352658393E+01  0.17521276555E+02  0.51100000000E-03 0. -1.
        -11    1    4    4    0    0  0.44236968871E+00  0.69357284365E+01 -0.85954831303E+01  0.11053612549E+02  0.51100000000E-03 0.  1.
        -12    1    4    4    0    0 -0.25744418396E+02  0.33349441627E+00 -0.15332544878E+01  0.25792191966E+02  0.00000000000E+00 0.  1.
</event>
<event>
 8    1  0.1253703E-006  0.9118800E+02  0.7816164E-02  0.1184000E+00
        -11   -1    0    0    0    0  0.00000000000E+00  0.00000000000E+00  0.45593999997E+02  0.45594000000E+02  0.51100000000E-03 0. -1.
         11   -1    0    0    0    0 -0.00000000000E+00 -0.00000000000E+00 -0.45593999997E+02  0.45594000000E+02  0.51100000000E-03 0.  1.
         23    2    1    2    0    0 -0.88817841970E-15 -0.71054273576E-14  0.00000000000E+00  0.91188000000E+02  0.91188000000E+02 0.  0.
    9900012    2    3    3    0    0 -0.77437556969E+01 -0.32359284597E+02 -0.15769926890E+02  0.54367086839E+02  0.40000006066E+02 0.  0.
        -12    1    3    3    0    0  0.77437556969E+01  0.32359284597E+02  0.15769926890E+02  0.36820913161E+02  0.00000000000E+00 0.  1.
         11    1    4    4    0    0 -0.12078655257E+02 -0.27281865202E+01 -0.23837278350E+01  0.12610276490E+02  0.51100000000E-03 0. -1.
        -11    1    4    4    0    0  0.34181174547E+01 -0.25393490267E+02 -0.20910952615E+02  0.33072357255E+02  0.51100000000E-03 0.  1.
         12    1    4    4    0    0  0.91678210554E+00 -0.42376078100E+01  0.75247535606E+01  0.86844530932E+01  0.00000000000E+00 0. -1.
</event>
<event>
 8    1  0.1253703E-006  0.9118800E+02  0.7816164E-02  0.1184000E+00
        -11   -1    0    0    0    0  0.00000000000E+00  0.00000000000E+00  0.45593999997E+02  0.45594000000E+02  0.51100000000E-03 0. -1.
         11   -1    0    0    0    0 -0.00000000000E+00 -0.00000000000E+00 -0.45593999997E+02  0.45594000000E+02  0.51100000000E-03 0.  1.
         23    2    1    2    0    0 -0.17763568394E-14  0.00000000000E+00 -0.35527136788E-14  0.91188000000E+02  0.91188000000E+02 0.  0.
    9900012    2    3    3    0    0 -0.10028459295E+02 -0.30409447148E+02 -0.18178995229E+02  0.54367077426E+02  0.39999984608E+02 0.  0.
         12    1    3    3    0    0  0.10028459295E+02  0.30409447148E+02  0.18178995229E+02  0.36820922574E+02  0.00000000000E+00 0. -1.
         11    1    4    4    0    0  0.10945186078E+01  0.22360469751E+01 -0.26839849832E+01  0.36608267794E+01  0.51100000000E-03 0. -1.
        -11    1    4    4    0    0 -0.10730575035E+02 -0.17524732131E+02 -0.25365607622E+02  0.32644686048E+02  0.51100000000E-03 0.  1.
        -12    1    4    4    0    0 -0.39240286779E+00 -0.15120761991E+02  0.98705973760E+01  0.18061564599E+02  0.00000000000E+00 0.  1.
</event>
<event>
 8    1  0.1253703E-006  0.9118800E+02  0.7816164E-02  0.1184000E+00
        -11   -1    0    0    0    0  0.00000000000E+00  0.00000000000E+00  0.45593999997E+02  0.45594000000E+02  0.51100000000E-03 0.  1.
         11   -1    0    0    0    0 -0.00000000000E+00 -0.00000000000E+00 -0.45593999997E+02  0.45594000000E+02  0.51100000000E-03 0. -1.
         23    2    1    2    0    0 -0.17763568394E-14  0.00000000000E+00 -0.35527136788E-14  0.91188000000E+02  0.91188000000E+02 0.  0.
    9900012    2    3    3    0    0  0.23218131984E+01 -0.32533830559E+02  0.17086239339E+02  0.54367074942E+02  0.39999978946E+02 0.  0.
         12    1    3    3    0    0 -0.23218131984E+01  0.32533830559E+02 -0.17086239339E+02  0.36820925058E+02  0.00000000000E+00 0. -1.
         11    1    4    4    0    0 -0.23440392468E+01  0.13634133388E+01 -0.36169905024E+00  0.27357343415E+01  0.51100000000E-03 0. -1.
        -11    1    4    4    0    0  0.10523831636E+02 -0.20256053721E+02  0.25919830664E+02  0.34538331844E+02  0.51100000000E-03 0.  1.
        -12    1    4    4    0    0 -0.58579791912E+01 -0.13641190177E+02 -0.84718922745E+01  0.17093008757E+02  0.00000000000E+00 0.  1.
</event>
<event>
 8    1  0.1253703E-006  0.9118800E+02  0.7816164E-02  0.1184000E+00
        -11   -1    0    0    0    0  0.00000000000E+00  0.00000000000E+00  0.45593999997E+02  0.45594000000E+02  0.51100000000E-03 0.  1.
         11   -1    0    0    0    0 -0.00000000000E+00 -0.00000000000E+00 -0.45593999997E+02  0.45594000000E+02  0.51100000000E-03 0. -1.
         23    2    1    2    0    0  0.17763568394E-14  0.00000000000E+00  0.00000000000E+00  0.91188000000E+02  0.91188000000E+02 0.  0.
    9900012    2    3    3    0    0 -0.73003654243E+01  0.28545312975E+02 -0.22082802645E+02  0.54367076589E+02  0.39999982700E+02 0.  0.
         12    1    3    3    0    0  0.73003654243E+01 -0.28545312975E+02  0.22082802645E+02  0.36820923411E+02  0.00000000000E+00 0. -1.
         11    1    4    4    0    0 -0.58057388550E+01 -0.79441789028E+01 -0.53726398081E+01  0.11210791268E+02  0.51100000000E-03 0. -1.
        -11    1    4    4    0    0  0.46855628204E+01  0.52765600321E+01  0.32509709600E+00  0.70641540965E+01  0.51100000000E-03 0.  1.
        -12    1    4    4    0    0 -0.61801893898E+01  0.31212931846E+02 -0.17035259933E+02  0.36092131224E+02  0.00000000000E+00 0.  1.
</event>
<event>
 8    1  0.1253703E-006  0.9118800E+02  0.7816164E-02  0.1184000E+00
        -11   -1    0    0    0    0  0.00000000000E+00  0.00000000000E+00  0.45593999997E+02  0.45594000000E+02  0.51100000000E-03 0. -1.
         11   -1    0    0    0    0 -0.00000000000E+00 -0.00000000000E+00 -0.45593999997E+02  0.45594000000E+02  0.51100000000E-03 0.  1.
         23    2    1    2    0    0  0.00000000000E+00  0.00000000000E+00 -0.88817841970E-15  0.91188000000E+02  0.91188000000E+02 0.  0.
    9900012    2    3    3    0    0  0.25134156198E+01  0.36372998907E+02  0.51441144995E+01  0.54367160499E+02  0.40000173990E+02 0.  0.
        -12    1    3    3    0    0 -0.25134156198E+01 -0.36372998907E+02 -0.51441144995E+01  0.36820839501E+02  0.00000000000E+00 0.  1.
         11    1    4    4    0    0  0.11908612147E+01  0.36701616818E+01 -0.38171059167E+01  0.54275717447E+01  0.51100000000E-03 0. -1.
        -11    1    4    4    0    0 -0.10555643414E+02  0.25934233894E+02 -0.60390245335E+01  0.28643950725E+02  0.51100000000E-03 0.  1.
         12    1    4    4    0    0  0.11878197819E+02  0.67686033315E+01  0.15000244950E+02  0.20295638030E+02  0.00000000000E+00 0. -1.
</event>
<event>
 8    1  0.1253703E-006  0.9118800E+02  0.7816164E-02  0.1184000E+00
        -11   -1    0    0    0    0  0.00000000000E+00  0.00000000000E+00  0.45593999997E+02  0.45594000000E+02  0.51100000000E-03 0.  1.
         11   -1    0    0    0    0 -0.00000000000E+00 -0.00000000000E+00 -0.45593999997E+02  0.45594000000E+02  0.51100000000E-03 0. -1.
         23    2    1    2    0    0  0.00000000000E+00 -0.35527136788E-14  0.00000000000E+00  0.91188000000E+02  0.91188000000E+02 0.  0.
    9900012    2    3    3    0    0 -0.16931145672E+02 -0.27051358972E+02 -0.18366814236E+02  0.54367087719E+02  0.40000008073E+02 0.  0.
        -12    1    3    3    0    0  0.16931145672E+02  0.27051358972E+02  0.18366814236E+02  0.36820912281E+02  0.00000000000E+00 0.  1.
         11    1    4    4    0    0  0.25424945884E+01  0.22671150996E+01  0.10866838921E+01  0.35756078853E+01  0.51100000000E-03 0. -1.
        -11    1    4    4    0    0  0.84938469090E+01 -0.72895847751E+01 -0.31036423287E+01  0.11615338027E+02  0.51100000000E-03 0.  1.
         12    1    4    4    0    0 -0.27967487169E+02 -0.22028889297E+02 -0.16349855799E+02  0.39176141807E+02  0.00000000000E+00 0. -1.
</event>
<event>
 8    1  0.1253703E-006  0.9118800E+02  0.7816164E-02  0.1184000E+00
        -11   -1    0    0    0    0  0.00000000000E+00  0.00000000000E+00  0.45593999997E+02  0.45594000000E+02  0.51100000000E-03 0. -1.
         11   -1    0    0    0    0 -0.00000000000E+00 -0.00000000000E+00 -0.45593999997E+02  0.45594000000E+02  0.51100000000E-03 0.  1.
         23    2    1    2    0    0  0.13322676296E-14  0.00000000000E+00 -0.35527136788E-14  0.91188000000E+02  0.91188000000E+02 0.  0.
    9900012    2    3    3    0    0  0.14634919241E+01 -0.24600862352E+02  0.27357440771E+02  0.54367166188E+02  0.40000186958E+02 0.  0.
        -12    1    3    3    0    0 -0.14634919241E+01  0.24600862352E+02 -0.27357440771E+02  0.36820833812E+02  0.00000000000E+00 0.  1.
         11    1    4    4    0    0 -0.67731539303E+01  0.26157893869E-01  0.20975103053E+02  0.22041579951E+02  0.51100000000E-03 0. -1.
        -11    1    4    4    0    0  0.12122713152E+02 -0.25000922343E+02  0.56379312579E+01  0.28351235623E+02  0.51100000000E-03 0.  1.
        -12    1    4    4    0    0 -0.38860672980E+01  0.37390209748E+00  0.74440645987E+00  0.39743506137E+01  0.00000000000E+00 0.  1.
</event>
<event>
 8    1  0.1253703E-006  0.9118800E+02  0.7816164E-02  0.1184000E+00
        -11   -1    0    0    0    0  0.00000000000E+00  0.00000000000E+00  0.45593999997E+02  0.45594000000E+02  0.51100000000E-03 0.  1.
         11   -1    0    0    0    0 -0.00000000000E+00 -0.00000000000E+00 -0.45593999997E+02  0.45594000000E+02  0.51100000000E-03 0. -1.
         23    2    1    2    0    0 -0.35527136788E-14  0.00000000000E+00  0.00000000000E+00  0.91188000000E+02  0.91188000000E+02 0.  0.
    9900012    2    3    3    0    0  0.20399642081E+02 -0.22316861891E+02 -0.21014088359E+02  0.54367087040E+02  0.40000006525E+02 0.  0.
        -12    1    3    3    0    0 -0.20399642081E+02  0.22316861891E+02  0.21014088359E+02  0.36820912960E+02  0.00000000000E+00 0.  1.
         11    1    4    4    0    0  0.12715442135E+02 -0.74310766734E+01 -0.70871273168E+01  0.16344134822E+02  0.51100000000E-03 0. -1.
        -11    1    4    4    0    0  0.33635157548E+01 -0.12372837188E+02 -0.23756389380E+02  0.26995673263E+02  0.51100000000E-03 0.  1.
        -12    1    4    4    0    0  0.43206841907E+01 -0.25129480295E+01  0.98294283383E+01  0.11027278954E+02  0.00000000000E+00 0.  1.
</event>
<event>
 8    1  0.1253703E-006  0.9118800E+02  0.7816164E-02  0.1184000E+00
        -11   -1    0    0    0    0  0.00000000000E+00  0.00000000000E+00  0.45593999997E+02  0.45594000000E+02  0.51100000000E-03 0.  1.
         11   -1    0    0    0    0 -0.00000000000E+00 -0.00000000000E+00 -0.45593999997E+02  0.45594000000E+02  0.51100000000E-03 0. -1.
         23    2    1    2    0    0  0.00000000000E+00  0.35527136788E-14  0.35527136788E-14  0.91188000000E+02  0.91188000000E+02 0.  0.
    9900012    2    3    3    0    0  0.10968393138E+02 -0.24353840943E+02  0.25345011140E+02  0.54367016764E+02  0.39999846318E+02 0.  0.
         12    1    3    3    0    0 -0.10968393138E+02  0.24353840943E+02 -0.25345011140E+02  0.36820983236E+02  0.00000000000E+00 0. -1.
         11    1    4    4    0    0  0.58423410258E+01  0.57845822380E+00 -0.35310793740E+01  0.68509914891E+01  0.51100000000E-03 0. -1.
        -11    1    4    4    0    0  0.12485274048E+02 -0.83636889037E+00  0.87392994229E+01  0.15262926837E+02  0.51100000000E-03 0.  1.
         12    1    4    4    0    0 -0.73592219356E+01 -0.24095930277E+02  0.20136791091E+02  0.32253098438E+02  0.00000000000E+00 0. -1.
</event>
<event>
 8    1  0.1253703E-006  0.9118800E+02  0.7816164E-02  0.1184000E+00
        -11   -1    0    0    0    0  0.00000000000E+00  0.00000000000E+00  0.45593999997E+02  0.45594000000E+02  0.51100000000E-03 0.  1.
         11   -1    0    0    0    0 -0.00000000000E+00 -0.00000000000E+00 -0.45593999997E+02  0.45594000000E+02  0.51100000000E-03 0. -1.
         23    2    1    2    0    0  0.00000000000E+00  0.00000000000E+00  0.00000000000E+00  0.91188000000E+02  0.91188000000E+02 0.  0.
    9900012    2    3    3    0    0  0.18395481638E+02 -0.12789666809E+02 -0.29220039733E+02  0.54367081437E+02  0.39999993753E+02 0.  0.
        -12    1    3    3    0    0 -0.18395481638E+02  0.12789666809E+02  0.29220039733E+02  0.36820918563E+02  0.00000000000E+00 0.  1.
         11    1    4    4    0    0  0.15965505702E+02  0.61292751348E+01 -0.14350728152E+02  0.22325070767E+02  0.51100000000E-03 0. -1.
        -11    1    4    4    0    0  0.10071359304E+02 -0.13373445162E+02 -0.32224350858E+01  0.17048912044E+02  0.51100000000E-03 0.  1.
         12    1    4    4    0    0 -0.76413833678E+01 -0.55454967822E+01 -0.11646876496E+02  0.14993098627E+02  0.00000000000E+00 0. -1.
</event>
<event>
 8    1  0.1253703E-006  0.9118800E+02  0.7816164E-02  0.1184000E+00
        -11   -1    0    0    0    0  0.00000000000E+00  0.00000000000E+00  0.45593999997E+02  0.45594000000E+02  0.51100000000E-03 0.  1.
         11   -1    0    0    0    0 -0.00000000000E+00 -0.00000000000E+00 -0.45593999997E+02  0.45594000000E+02  0.51100000000E-03 0. -1.
         23    2    1    2    0    0  0.17763568394E-14  0.71054273576E-14  0.00000000000E+00  0.91188000000E+02  0.91188000000E+02 0.  0.
    9900012    2    3    3    0    0 -0.68524236274E+01  0.35970278896E+02  0.38673974643E+01  0.54367171159E+02  0.40000198290E+02 0.  0.
         12    1    3    3    0    0  0.68524236274E+01 -0.35970278896E+02 -0.38673974643E+01  0.36820828841E+02  0.00000000000E+00 0. -1.
         11    1    4    4    0    0  0.11092390216E+02  0.30792612669E+01 -0.71925266067E+01  0.13574071235E+02  0.51100000000E-03 0. -1.
        -11    1    4    4    0    0 -0.12269513861E+01  0.11047127825E+02 -0.81273313178E-01  0.11115351928E+02  0.51100000000E-03 0.  1.
        -12    1    4    4    0    0 -0.16717862457E+02  0.21843889804E+02  0.11141197384E+02  0.29677747995E+02  0.00000000000E+00 0.  1.
</event>
<event>
 8    1  0.1253703E-006  0.9118800E+02  0.7816164E-02  0.1184000E+00
        -11   -1    0    0    0    0  0.00000000000E+00  0.00000000000E+00  0.45593999997E+02  0.45594000000E+02  0.51100000000E-03 0.  1.
         11   -1    0    0    0    0 -0.00000000000E+00 -0.00000000000E+00 -0.45593999997E+02  0.45594000000E+02  0.51100000000E-03 0. -1.
         23    2    1    2    0    0  0.00000000000E+00 -0.35527136788E-14  0.17763568394E-14  0.91188000000E+02  0.91188000000E+02 0.  0.
    9900012    2    3    3    0    0 -0.25998549323E+02 -0.24094491370E+02 -0.99654498398E+01  0.54367091920E+02  0.40000017651E+02 0.  0.
         12    1    3    3    0    0  0.25998549323E+02  0.24094491370E+02  0.99654498398E+01  0.36820908080E+02  0.00000000000E+00 0. -1.
         11    1    4    4    0    0 -0.43389100594E+01  0.30189635547E+01  0.63621708269E-01  0.52862396305E+01  0.51100000000E-03 0. -1.
        -11    1    4    4    0    0 -0.30076887928E+02 -0.16722536876E+02 -0.94896911666E+01  0.35697572266E+02  0.51100000000E-03 0.  1.
        -12    1    4    4    0    0  0.84172486645E+01 -0.10390918049E+02 -0.53938038146E+00  0.13383280023E+02  0.00000000000E+00 0.  1.
</event>
<event>
 8    1  0.1253703E-006  0.9118800E+02  0.7816164E-02  0.1184000E+00
        -11   -1    0    0    0    0  0.00000000000E+00  0.00000000000E+00  0.45593999997E+02  0.45594000000E+02  0.51100000000E-03 0. -1.
         11   -1    0    0    0    0 -0.00000000000E+00 -0.00000000000E+00 -0.45593999997E+02  0.45594000000E+02  0.51100000000E-03 0.  1.
         23    2    1    2    0    0  0.00000000000E+00  0.00000000000E+00  0.00000000000E+00  0.91188000000E+02  0.91188000000E+02 0.  0.
    9900012    2    3    3    0    0  0.16022211286E+02  0.30443100587E+02  0.13125567063E+02  0.54367161626E+02  0.40000176559E+02 0.  0.
         12    1    3    3    0    0 -0.16022211286E+02 -0.30443100587E+02 -0.13125567063E+02  0.36820838374E+02  0.00000000000E+00 0. -1.
         11    1    4    4    0    0 -0.19175733337E+01  0.13904368131E+02  0.13592537231E+02  0.19538823129E+02  0.51100000000E-03 0. -1.
        -11    1    4    4    0    0  0.13427457379E+02  0.23092357528E+02 -0.17457434046E+01  0.26769408065E+02  0.51100000000E-03 0.  1.
        -12    1    4    4    0    0  0.45123272416E+01 -0.65536250724E+01  0.12787732365E+01  0.80589304325E+01  0.00000000000E+00 0.  1.
</event>
<event>
 8    1  0.1253703E-006  0.9118800E+02  0.7816164E-02  0.1184000E+00
        -11   -1    0    0    0    0  0.00000000000E+00  0.00000000000E+00  0.45593999997E+02  0.45594000000E+02  0.51100000000E-03 0. -1.
         11   -1    0    0    0    0 -0.00000000000E+00 -0.00000000000E+00 -0.45593999997E+02  0.45594000000E+02  0.51100000000E-03 0.  1.
         23    2    1    2    0    0 -0.35527136788E-14  0.00000000000E+00 -0.35527136788E-14  0.91188000000E+02  0.91188000000E+02 0.  0.
    9900012    2    3    3    0    0  0.24911736010E+02 -0.12004320021E+02  0.24312187839E+02  0.54367071607E+02  0.39999971343E+02 0.  0.
        -12    1    3    3    0    0 -0.24911736010E+02  0.12004320021E+02 -0.24312187839E+02  0.36820928393E+02  0.00000000000E+00 0.  1.
         11    1    4    4    0    0  0.43528221853E+01 -0.14313577356E+00  0.33310793849E+01  0.54830319128E+01  0.51100000000E-03 0. -1.
        -11    1    4    4    0    0 -0.29486630771E+01  0.10689118025E+02  0.22720534271E+01  0.11318749274E+02  0.51100000000E-03 0.  1.
         12    1    4    4    0    0  0.23507576902E+02 -0.22550302272E+02  0.18709055027E+02  0.37565290420E+02  0.00000000000E+00 0. -1.
</event>
<event>
 8    1  0.1253703E-006  0.9118800E+02  0.7816164E-02  0.1184000E+00
        -11   -1    0    0    0    0  0.00000000000E+00  0.00000000000E+00  0.45593999997E+02  0.45594000000E+02  0.51100000000E-03 0. -1.
         11   -1    0    0    0    0 -0.00000000000E+00 -0.00000000000E+00 -0.45593999997E+02  0.45594000000E+02  0.51100000000E-03 0.  1.
         23    2    1    2    0    0  0.00000000000E+00  0.00000000000E+00  0.00000000000E+00  0.91188000000E+02  0.91188000000E+02 0.  0.
    9900012    2    3    3    0    0 -0.11781271653E+02 -0.26819460892E+02 -0.22309108685E+02  0.54367106820E+02  0.40000051617E+02 0.  0.
         12    1    3    3    0    0  0.11781271653E+02  0.26819460892E+02  0.22309108685E+02  0.36820893180E+02  0.00000000000E+00 0. -1.
         11    1    4    4    0    0 -0.52941552813E+01 -0.94718709427E+01  0.51117257522E+01  0.11994755509E+02  0.51100000000E-03 0. -1.
        -11    1    4    4    0    0  0.39406375397E+01 -0.20914353087E+02 -0.18140777794E+02  0.27964738663E+02  0.51100000000E-03 0.  1.
         12    1    4    4    0    0 -0.10427753911E+02  0.35667631377E+01 -0.92800566424E+01  0.14407612647E+02  0.00000000000E+00 0. -1.
</event>
<event>
 8    1  0.1253703E-006  0.9118800E+02  0.7816164E-02  0.1184000E+00
        -11   -1    0    0    0    0  0.00000000000E+00  0.00000000000E+00  0.45593999997E+02  0.45594000000E+02  0.51100000000E-03 0.  1.
         11   -1    0    0    0    0 -0.00000000000E+00 -0.00000000000E+00 -0.45593999997E+02  0.45594000000E+02  0.51100000000E-03 0. -1.
         23    2    1    2    0    0  0.35527136788E-14  0.00000000000E+00  0.00000000000E+00  0.91188000000E+02  0.91188000000E+02 0.  0.
    9900012    2    3    3    0    0  0.41562283251E+01  0.33621180063E+02  0.14426406815E+02  0.54367092946E+02  0.40000019988E+02 0.  0.
        -12    1    3    3    0    0 -0.41562283251E+01 -0.33621180063E+02 -0.14426406815E+02  0.36820907054E+02  0.00000000000E+00 0.  1.
         11    1    4    4    0    0  0.16390047727E+01  0.26065191316E+01 -0.16318096796E+01  0.34846924857E+01  0.51100000000E-03 0. -1.
        -11    1    4    4    0    0 -0.10461452506E+02  0.33458149966E+02  0.12310562619E+02  0.37154269471E+02  0.51100000000E-03 0.  1.
        -12    1    4    4    0    0  0.12978676058E+02 -0.24434890344E+01  0.37476538761E+01  0.13728130989E+02  0.00000000000E+00 0.  1.
</event>
<event>
 8    1  0.1253703E-006  0.9118800E+02  0.7816164E-02  0.1184000E+00
        -11   -1    0    0    0    0  0.00000000000E+00  0.00000000000E+00  0.45593999997E+02  0.45594000000E+02  0.51100000000E-03 0. -1.
         11   -1    0    0    0    0 -0.00000000000E+00 -0.00000000000E+00 -0.45593999997E+02  0.45594000000E+02  0.51100000000E-03 0.  1.
         23    2    1    2    0    0  0.17763568394E-14  0.00000000000E+00  0.00000000000E+00  0.91188000000E+02  0.91188000000E+02 0.  0.
    9900012    2    3    3    0    0 -0.10599230531E+02 -0.22289657806E+02  0.27324093823E+02  0.54367100551E+02  0.40000037327E+02 0.  0.
        -12    1    3    3    0    0  0.10599230531E+02  0.22289657806E+02 -0.27324093823E+02  0.36820899449E+02  0.00000000000E+00 0.  1.
         11    1    4    4    0    0 -0.23103857336E+02 -0.10724271550E+02  0.17068952650E+02  0.30661822661E+02  0.51100000000E-03 0. -1.
        -11    1    4    4    0    0  0.80150831495E+01 -0.13090706866E+02  0.40111159436E+01  0.15864968186E+02  0.51100000000E-03 0.  1.
         12    1    4    4    0    0  0.44895436552E+01  0.15253206104E+01  0.62440252294E+01  0.78403097045E+01  0.00000000000E+00 0. -1.
</event>
<event>
 8    1  0.1253703E-006  0.9118800E+02  0.7816164E-02  0.1184000E+00
        -11   -1    0    0    0    0  0.00000000000E+00  0.00000000000E+00  0.45593999997E+02  0.45594000000E+02  0.51100000000E-03 0. -1.
         11   -1    0    0    0    0 -0.00000000000E+00 -0.00000000000E+00 -0.45593999997E+02  0.45594000000E+02  0.51100000000E-03 0.  1.
         23    2    1    2    0    0 -0.17763568394E-14 -0.11102230246E-14  0.00000000000E+00  0.91188000000E+02  0.91188000000E+02 0.  0.
    9900012    2    3    3    0    0 -0.15997623347E+02  0.16713806751E+01 -0.33121880678E+02  0.54367130296E+02  0.40000105135E+02 0.  0.
         12    1    3    3    0    0  0.15997623347E+02 -0.16713806751E+01  0.33121880678E+02  0.36820869704E+02  0.00000000000E+00 0. -1.
         11    1    4    4    0    0  0.42069816618E+01 -0.11483705096E+01  0.43800196973E+01  0.61807784574E+01  0.51100000000E-03 0. -1.
        -11    1    4    4    0    0 -0.25265578039E+01 -0.70498798546E+01 -0.20236468490E+02  0.21577742179E+02  0.51100000000E-03 0.  1.
         12    1    4    4    0    0 -0.17678047205E+02  0.98696310392E+01 -0.17265431885E+02  0.26608609660E+02  0.00000000000E+00 0. -1.
</event>
<event>
 8    1  0.1253703E-006  0.9118800E+02  0.7816164E-02  0.1184000E+00
        -11   -1    0    0    0    0  0.00000000000E+00  0.00000000000E+00  0.45593999997E+02  0.45594000000E+02  0.51100000000E-03 0. -1.
         11   -1    0    0    0    0 -0.00000000000E+00 -0.00000000000E+00 -0.45593999997E+02  0.45594000000E+02  0.51100000000E-03 0.  1.
         23    2    1    2    0    0 -0.17763568394E-14  0.35527136788E-14  0.00000000000E+00  0.91188000000E+02  0.91188000000E+02 0.  0.
    9900012    2    3    3    0    0  0.12356520156E+02 -0.30022309075E+02 -0.17371164845E+02  0.54367082023E+02  0.39999995089E+02 0.  0.
         12    1    3    3    0    0 -0.12356520156E+02  0.30022309075E+02  0.17371164845E+02  0.36820917977E+02  0.00000000000E+00 0. -1.
         11    1    4    4    0    0 -0.24572399182E+01  0.40382837351E+01  0.32254204971E+01  0.57226830408E+01  0.51100000000E-03 0. -1.
        -11    1    4    4    0    0  0.11219692073E+02 -0.21417681841E+01 -0.88267122791E+01  0.14435356286E+02  0.51100000000E-03 0.  1.
        -12    1    4    4    0    0  0.35940680008E+01 -0.31918824626E+02 -0.11769873063E+02  0.34209042697E+02  0.00000000000E+00 0.  1.
</event>
<event>
 8    1  0.1253703E-006  0.9118800E+02  0.7816164E-02  0.1184000E+00
        -11   -1    0    0    0    0  0.00000000000E+00  0.00000000000E+00  0.45593999997E+02  0.45594000000E+02  0.51100000000E-03 0.  1.
         11   -1    0    0    0    0 -0.00000000000E+00 -0.00000000000E+00 -0.45593999997E+02  0.45594000000E+02  0.51100000000E-03 0. -1.
         23    2    1    2    0    0  0.71054273576E-14  0.00000000000E+00  0.00000000000E+00  0.91188000000E+02  0.91188000000E+02 0.  0.
    9900012    2    3    3    0    0 -0.31966893471E+02  0.77953861643E+01  0.16526728431E+02  0.54367040259E+02  0.39999899878E+02 0.  0.
         12    1    3    3    0    0  0.31966893471E+02 -0.77953861643E+01 -0.16526728431E+02  0.36820959741E+02  0.00000000000E+00 0. -1.
         11    1    4    4    0    0  0.59301707958E+01 -0.58947148461E+01  0.23257991376E+01  0.86789360335E+01  0.51100000000E-03 0.  1.
        -11    1    4    4    0    0 -0.15766318562E+02  0.13284906598E+02  0.10861458369E+02  0.23303150485E+02  0.51100000000E-03 0. -1.
        -12    1    4    4    0    0 -0.22130745704E+02  0.40519441207E+00  0.33394709244E+01  0.22384953741E+02  0.00000000000E+00 0.  1.
</event>
<event>
 8    1  0.1253703E-006  0.9118800E+02  0.7816164E-02  0.1184000E+00
        -11   -1    0    0    0    0  0.00000000000E+00  0.00000000000E+00  0.45593999997E+02  0.45594000000E+02  0.51100000000E-03 0.  1.
         11   -1    0    0    0    0 -0.00000000000E+00 -0.00000000000E+00 -0.45593999997E+02  0.45594000000E+02  0.51100000000E-03 0. -1.
         23    2    1    2    0    0 -0.17763568394E-14  0.00000000000E+00  0.00000000000E+00  0.91188000000E+02  0.91188000000E+02 0.  0.
    9900012    2    3    3    0    0  0.14793794060E+02  0.31973810705E+02  0.10705088115E+02  0.54367084406E+02  0.40000000519E+02 0.  0.
         12    1    3    3    0    0 -0.14793794060E+02 -0.31973810705E+02 -0.10705088115E+02  0.36820915594E+02  0.00000000000E+00 0. -1.
         11    1    4    4    0    0  0.36246399310E+01 -0.74491329180E+01 -0.18196708321E+01  0.84816742485E+01  0.51100000000E-03 0. -1.
        -11    1    4    4    0    0  0.24481614051E+01  0.72493685312E-01 -0.18755934290E+01  0.30848987944E+01  0.51100000000E-03 0.  1.
        -12    1    4    4    0    0  0.87209927240E+01  0.39350449937E+02  0.14400352376E+02  0.42800511363E+02  0.00000000000E+00 0.  1.
</event>
<event>
 8    1  0.1253703E-006  0.9118800E+02  0.7816164E-02  0.1184000E+00
        -11   -1    0    0    0    0  0.00000000000E+00  0.00000000000E+00  0.45593999997E+02  0.45594000000E+02  0.51100000000E-03 0.  1.
         11   -1    0    0    0    0 -0.00000000000E+00 -0.00000000000E+00 -0.45593999997E+02  0.45594000000E+02  0.51100000000E-03 0. -1.
         23    2    1    2    0    0  0.22204460493E-15  0.00000000000E+00  0.17763568394E-14  0.91188000000E+02  0.91188000000E+02 0.  0.
    9900012    2    3    3    0    0 -0.17477248410E+01  0.35638507678E+02 -0.90896180546E+01  0.54367096589E+02  0.40000028294E+02 0.  0.
        -12    1    3    3    0    0  0.17477248410E+01 -0.35638507678E+02  0.90896180546E+01  0.36820903411E+02  0.00000000000E+00 0.  1.
         11    1    4    4    0    0  0.39147599471E+01  0.10035545317E+02 -0.10031340766E+02  0.14719555464E+02  0.51100000000E-03 0. -1.
        -11    1    4    4    0    0  0.73430362469E+00  0.25990728553E+02  0.10581624106E+02  0.28071835379E+02  0.51100000000E-03 0.  1.
        -12    1    4    4    0    0 -0.63967884127E+01 -0.38776619217E+00 -0.96399013949E+01  0.11575705746E+02  0.00000000000E+00 0.  1.
</event>
<event>
 8    1  0.1253703E-006  0.9118800E+02  0.7816164E-02  0.1184000E+00
        -11   -1    0    0    0    0  0.00000000000E+00  0.00000000000E+00  0.45593999997E+02  0.45594000000E+02  0.51100000000E-03 0.  1.
         11   -1    0    0    0    0 -0.00000000000E+00 -0.00000000000E+00 -0.45593999997E+02  0.45594000000E+02  0.51100000000E-03 0. -1.
         23    2    1    2    0    0 -0.35527136788E-14 -0.88817841970E-15 -0.35527136788E-14  0.91188000000E+02  0.91188000000E+02 0.  0.
    9900012    2    3    3    0    0  0.28137418893E+02 -0.72299646721E+01  0.22622811057E+02  0.54367104964E+02  0.40000047386E+02 0.  0.
         12    1    3    3    0    0 -0.28137418893E+02  0.72299646721E+01 -0.22622811057E+02  0.36820895036E+02  0.00000000000E+00 0. -1.
         11    1    4    4    0    0 -0.47917763017E+01 -0.98824045017E+00 -0.34064827789E+01  0.59616997994E+01  0.51100000000E-03 0. -1.
        -11    1    4    4    0    0  0.26315589987E+02  0.47957412565E+01  0.11844561959E+02  0.29254111828E+02  0.51100000000E-03 0.  1.
         12    1    4    4    0    0  0.66136052078E+01 -0.11037465478E+02  0.14184731877E+02  0.19151293337E+02  0.00000000000E+00 0. -1.
</event>
<event>
 8    1  0.1253703E-006  0.9118800E+02  0.7816164E-02  0.1184000E+00
        -11   -1    0    0    0    0  0.00000000000E+00  0.00000000000E+00  0.45593999997E+02  0.45594000000E+02  0.51100000000E-03 0. -1.
         11   -1    0    0    0    0 -0.00000000000E+00 -0.00000000000E+00 -0.45593999997E+02  0.45594000000E+02  0.51100000000E-03 0.  1.
         23    2    1    2    0    0  0.00000000000E+00  0.00000000000E+00  0.17763568394E-14  0.91188000000E+02  0.91188000000E+02 0.  0.
    9900012    2    3    3    0    0  0.33020336806E+02  0.13380441174E+02 -0.92952130853E+01  0.54367084271E+02  0.40000000213E+02 0.  0.
        -12    1    3    3    0    0 -0.33020336806E+02 -0.13380441174E+02  0.92952130853E+01  0.36820915729E+02  0.00000000000E+00 0.  1.
         11    1    4    4    0    0  0.17277736507E+02  0.12516601890E+02 -0.10509556079E+02  0.23783108942E+02  0.51100000000E-03 0. -1.
        -11    1    4    4    0    0  0.89704018743E+01 -0.77980810063E+00 -0.12379600701E+02  0.15307864784E+02  0.51100000000E-03 0.  1.
         12    1    4    4    0    0  0.67721984248E+01  0.16436473839E+01  0.13593943695E+02  0.15276110546E+02  0.00000000000E+00 0. -1.
</event>
<event>
 8    1  0.1253703E-006  0.9118800E+02  0.7816164E-02  0.1184000E+00
        -11   -1    0    0    0    0  0.00000000000E+00  0.00000000000E+00  0.45593999997E+02  0.45594000000E+02  0.51100000000E-03 0. -1.
         11   -1    0    0    0    0 -0.00000000000E+00 -0.00000000000E+00 -0.45593999997E+02  0.45594000000E+02  0.51100000000E-03 0.  1.
         23    2    1    2    0    0  0.00000000000E+00 -0.35527136788E-14  0.00000000000E+00  0.91188000000E+02  0.91188000000E+02 0.  0.
    9900012    2    3    3    0    0  0.18187190905E+02  0.31306395867E+02 -0.67019231796E+01  0.54367080545E+02  0.39999991719E+02 0.  0.
         12    1    3    3    0    0 -0.18187190905E+02 -0.31306395867E+02  0.67019231796E+01  0.36820919455E+02  0.00000000000E+00 0. -1.
         11    1    4    4    0    0 -0.15971408167E+01 -0.59043349808E+01 -0.58673241815E+01  0.84757019571E+01  0.51100000000E-03 0. -1.
        -11    1    4    4    0    0  0.11846348317E+02  0.27333240193E+02 -0.86286340935E+01  0.31014437194E+02  0.51100000000E-03 0.  1.
        -12    1    4    4    0    0  0.79379834044E+01  0.98774906551E+01  0.77940350954E+01  0.14876941394E+02  0.00000000000E+00 0.  1.
</event>
<event>
 8    1  0.1253703E-006  0.9118800E+02  0.7816164E-02  0.1184000E+00
        -11   -1    0    0    0    0  0.00000000000E+00  0.00000000000E+00  0.45593999997E+02  0.45594000000E+02  0.51100000000E-03 0.  1.
         11   -1    0    0    0    0 -0.00000000000E+00 -0.00000000000E+00 -0.45593999997E+02  0.45594000000E+02  0.51100000000E-03 0. -1.
         23    2    1    2    0    0  0.88817841970E-15  0.22204460493E-15  0.71054273576E-14  0.91188000000E+02  0.91188000000E+02 0.  0.
    9900012    2    3    3    0    0 -0.60208991973E+01 -0.14669916406E+01 -0.36295687334E+02  0.54367079171E+02  0.39999988586E+02 0.  0.
        -12    1    3    3    0    0  0.60208991973E+01  0.14669916406E+01  0.36295687334E+02  0.36820920829E+02  0.00000000000E+00 0.  1.
         11    1    4    4    0    0 -0.10076240790E+02 -0.12579768085E+02 -0.32986136243E+02  0.36713299743E+02  0.51100000000E-03 0. -1.
        -11    1    4    4    0    0  0.44314754776E+01 -0.13033827447E+01  0.53629171855E+00  0.46502032811E+01  0.51100000000E-03 0.  1.
         12    1    4    4    0    0 -0.37613388516E+00  0.12416159189E+02 -0.38458428103E+01  0.13003576147E+02  0.00000000000E+00 0. -1.
</event>
<event>
 8    1  0.1253703E-006  0.9118800E+02  0.7816164E-02  0.1184000E+00
        -11   -1    0    0    0    0  0.00000000000E+00  0.00000000000E+00  0.45593999997E+02  0.45594000000E+02  0.51100000000E-03 0. -1.
         11   -1    0    0    0    0 -0.00000000000E+00 -0.00000000000E+00 -0.45593999997E+02  0.45594000000E+02  0.51100000000E-03 0.  1.
         23    2    1    2    0    0  0.35527136788E-14  0.17763568394E-14 -0.35527136788E-14  0.91188000000E+02  0.91188000000E+02 0.  0.
    9900012    2    3    3    0    0 -0.26569160378E+02  0.12311197613E+02  0.22322517042E+02  0.54367073383E+02  0.39999975391E+02 0.  0.
        -12    1    3    3    0    0  0.26569160378E+02 -0.12311197613E+02 -0.22322517042E+02  0.36820926617E+02  0.00000000000E+00 0.  1.
         11    1    4    4    0    0 -0.10185447267E+01  0.10128677996E+02  0.16311575158E+02  0.19227455258E+02  0.51100000000E-03 0. -1.
        -11    1    4    4    0    0 -0.86295931640E+01 -0.75157722100E+01 -0.52808877641E+01  0.12603352170E+02  0.51100000000E-03 0.  1.
        -12    1    4    4    0    0 -0.16921022487E+02  0.96982918271E+01  0.11291829648E+02  0.22536265955E+02  0.00000000000E+00 0.  1.
</event>
<event>
 8    1  0.1253703E-006  0.9118800E+02  0.7816164E-02  0.1184000E+00
        -11   -1    0    0    0    0  0.00000000000E+00  0.00000000000E+00  0.45593999997E+02  0.45594000000E+02  0.51100000000E-03 0. -1.
         11   -1    0    0    0    0 -0.00000000000E+00 -0.00000000000E+00 -0.45593999997E+02  0.45594000000E+02  0.51100000000E-03 0.  1.
         23    2    1    2    0    0  0.35527136788E-14  0.00000000000E+00  0.35527136788E-14  0.91188000000E+02  0.91188000000E+02 0.  0.
    9900012    2    3    3    0    0  0.20024443037E+02  0.19320331555E+02  0.24114851325E+02  0.54367087671E+02  0.40000007963E+02 0.  0.
        -12    1    3    3    0    0 -0.20024443037E+02 -0.19320331555E+02 -0.24114851325E+02  0.36820912329E+02  0.00000000000E+00 0.  1.
         11    1    4    4    0    0  0.26289064557E+02  0.13120267932E+02  0.29628650917E+01  0.29530237312E+02  0.51100000000E-03 0. -1.
        -11    1    4    4    0    0 -0.85078971262E+01  0.35935551570E+01  0.12625018445E+02  0.15642539538E+02  0.51100000000E-03 0.  1.
         12    1    4    4    0    0  0.22432756059E+01  0.26065084657E+01  0.85269677877E+01  0.91943108213E+01  0.00000000000E+00 0. -1.
</event>
<event>
 8    1  0.1253703E-006  0.9118800E+02  0.7816164E-02  0.1184000E+00
        -11   -1    0    0    0    0  0.00000000000E+00  0.00000000000E+00  0.45593999997E+02  0.45594000000E+02  0.51100000000E-03 0.  1.
         11   -1    0    0    0    0 -0.00000000000E+00 -0.00000000000E+00 -0.45593999997E+02  0.45594000000E+02  0.51100000000E-03 0. -1.
         23    2    1    2    0    0 -0.17763568394E-14 -0.71054273576E-14  0.35527136788E-14  0.91188000000E+02  0.91188000000E+02 0.  0.
    9900012    2    3    3    0    0  0.13634226804E+02  0.28348697666E+02 -0.19137358512E+02  0.54367091663E+02  0.40000017065E+02 0.  0.
        -12    1    3    3    0    0 -0.13634226804E+02 -0.28348697666E+02  0.19137358512E+02  0.36820908337E+02  0.00000000000E+00 0.  1.
         11    1    4    4    0    0 -0.52763535965E+00  0.11206542940E+02  0.21446434896E+01  0.11422105747E+02  0.51100000000E-03 0. -1.
        -11    1    4    4    0    0 -0.23936323820E+01 -0.65611422218E+00 -0.18285670632E+02  0.18453338792E+02  0.51100000000E-03 0.  1.
        -12    1    4    4    0    0  0.16555494545E+02  0.17798268948E+02 -0.29963313702E+01  0.24491647124E+02  0.00000000000E+00 0.  1.
</event>
<event>
 8    1  0.1253703E-006  0.9118800E+02  0.7816164E-02  0.1184000E+00
        -11   -1    0    0    0    0  0.00000000000E+00  0.00000000000E+00  0.45593999997E+02  0.45594000000E+02  0.51100000000E-03 0.  1.
         11   -1    0    0    0    0 -0.00000000000E+00 -0.00000000000E+00 -0.45593999997E+02  0.45594000000E+02  0.51100000000E-03 0. -1.
         23    2    1    2    0    0  0.00000000000E+00  0.44408920985E-15  0.00000000000E+00  0.91188000000E+02  0.91188000000E+02 0.  0.
    9900012    2    3    3    0    0  0.29699697439E+02 -0.26768938676E+01  0.21599572780E+02  0.54367091090E+02  0.40000015757E+02 0.  0.
         12    1    3    3    0    0 -0.29699697439E+02  0.26768938676E+01 -0.21599572780E+02  0.36820908910E+02  0.00000000000E+00 0. -1.
         11    1    4    4    0    0  0.29415760702E+01  0.66072524371E+01 -0.21941989158E+01  0.75579867483E+01  0.51100000000E-03 0. -1.
        -11    1    4    4    0    0  0.19349442020E+02 -0.29799030224E+01  0.29593753515E+02  0.35483390141E+02  0.51100000000E-03 0.  1.
         12    1    4    4    0    0  0.74086793481E+01 -0.63042432823E+01 -0.57999818197E+01  0.11325714201E+02  0.00000000000E+00 0. -1.
</event>
<event>
 8    1  0.1253703E-006  0.9118800E+02  0.7816164E-02  0.1184000E+00
        -11   -1    0    0    0    0  0.00000000000E+00  0.00000000000E+00  0.45593999997E+02  0.45594000000E+02  0.51100000000E-03 0.  1.
         11   -1    0    0    0    0 -0.00000000000E+00 -0.00000000000E+00 -0.45593999997E+02  0.45594000000E+02  0.51100000000E-03 0. -1.
         23    2    1    2    0    0 -0.35527136788E-14 -0.35527136788E-14 -0.88817841970E-15  0.91188000000E+02  0.91188000000E+02 0.  0.
    9900012    2    3    3    0    0 -0.31261445393E+02  0.18329137794E+02  0.65226544908E+01  0.54367078203E+02  0.39999986380E+02 0.  0.
        -12    1    3    3    0    0  0.31261445393E+02 -0.18329137794E+02 -0.65226544908E+01  0.36820921797E+02  0.00000000000E+00 0.  1.
         11    1    4    4    0    0  0.63950745311E+01 -0.12926781427E+01  0.28246465044E+01  0.71096148402E+01  0.51100000000E-03 0.  1.
        -11    1    4    4    0    0 -0.12576124172E+02  0.66686383460E+01 -0.84198198793E+01  0.16538530879E+02  0.51100000000E-03 0. -1.
        -12    1    4    4    0    0 -0.25080395752E+02  0.12953177590E+02  0.12117827866E+02  0.30718932484E+02  0.00000000000E+00 0.  1.
</event>
<event>
 8    1  0.1253703E-006  0.9118800E+02  0.7816164E-02  0.1184000E+00
        -11   -1    0    0    0    0  0.00000000000E+00  0.00000000000E+00  0.45593999997E+02  0.45594000000E+02  0.51100000000E-03 0. -1.
         11   -1    0    0    0    0 -0.00000000000E+00 -0.00000000000E+00 -0.45593999997E+02  0.45594000000E+02  0.51100000000E-03 0.  1.
         23    2    1    2    0    0 -0.35527136788E-14  0.35527136788E-14 -0.17763568394E-14  0.91188000000E+02  0.91188000000E+02 0.  0.
    9900012    2    3    3    0    0  0.28772860168E+02 -0.19388886884E+02  0.12327713475E+02  0.54367096476E+02  0.40000028035E+02 0.  0.
        -12    1    3    3    0    0 -0.28772860168E+02  0.19388886884E+02 -0.12327713475E+02  0.36820903524E+02  0.00000000000E+00 0.  1.
         11    1    4    4    0    0  0.82896011585E+01 -0.96004354019E+01 -0.24097951519E+01  0.12910962792E+02  0.51100000000E-03 0. -1.
        -11    1    4    4    0    0 -0.64606624667E+01  0.38711845938E+01 -0.63997880956E+00  0.75588228452E+01  0.51100000000E-03 0.  1.
        -12    1    4    4    0    0  0.26943921476E+02 -0.13659636076E+02  0.15377487437E+02  0.33897310839E+02  0.00000000000E+00 0.  1.
</event>
<event>
 8    1  0.1253703E-006  0.9118800E+02  0.7816164E-02  0.1184000E+00
        -11   -1    0    0    0    0  0.00000000000E+00  0.00000000000E+00  0.45593999997E+02  0.45594000000E+02  0.51100000000E-03 0.  1.
         11   -1    0    0    0    0 -0.00000000000E+00 -0.00000000000E+00 -0.45593999997E+02  0.45594000000E+02  0.51100000000E-03 0. -1.
         23    2    1    2    0    0 -0.17763568394E-14 -0.71054273576E-14  0.00000000000E+00  0.91188000000E+02  0.91188000000E+02 0.  0.
    9900012    2    3    3    0    0 -0.13065718796E+02  0.32721342739E+02 -0.10694893805E+02  0.54367081600E+02  0.39999994123E+02 0.  0.
        -12    1    3    3    0    0  0.13065718796E+02 -0.32721342739E+02  0.10694893805E+02  0.36820918400E+02  0.00000000000E+00 0.  1.
         11    1    4    4    0    0  0.47277164059E+01  0.12651920242E+02 -0.48064003687E+01  0.14336103829E+02  0.51100000000E-03 0. -1.
        -11    1    4    4    0    0 -0.78027074547E+01  0.22697300050E+02  0.55330815197E+01  0.24630563626E+02  0.51100000000E-03 0.  1.
         12    1    4    4    0    0 -0.99907277467E+01 -0.26278775529E+01 -0.11421574956E+02  0.15400414145E+02  0.00000000000E+00 0. -1.
</event>
<event>
 8    1  0.1253703E-006  0.9118800E+02  0.7816164E-02  0.1184000E+00
        -11   -1    0    0    0    0  0.00000000000E+00  0.00000000000E+00  0.45593999997E+02  0.45594000000E+02  0.51100000000E-03 0. -1.
         11   -1    0    0    0    0 -0.00000000000E+00 -0.00000000000E+00 -0.45593999997E+02  0.45594000000E+02  0.51100000000E-03 0.  1.
         23    2    1    2    0    0  0.00000000000E+00  0.00000000000E+00  0.00000000000E+00  0.91188000000E+02  0.91188000000E+02 0.  0.
    9900012    2    3    3    0    0  0.21527391779E+02 -0.18206409639E+02 -0.23682888897E+02  0.54367066073E+02  0.39999958727E+02 0.  0.
         12    1    3    3    0    0 -0.21527391779E+02  0.18206409639E+02  0.23682888897E+02  0.36820933927E+02  0.00000000000E+00 0. -1.
         11    1    4    4    0    0 -0.74409243705E+01 -0.11060674266E+02 -0.16780670600E+02  0.21431210343E+02  0.51100000000E-03 0. -1.
        -11    1    4    4    0    0 -0.11486064705E+00 -0.18749138749E+01  0.12730029588E+01  0.22691478138E+01  0.51100000000E-03 0.  1.
        -12    1    4    4    0    0  0.29083176797E+02 -0.52708214975E+01 -0.81752212554E+01  0.30666707916E+02  0.00000000000E+00 0.  1.
</event>
<event>
 8    1  0.1253703E-006  0.9118800E+02  0.7816164E-02  0.1184000E+00
        -11   -1    0    0    0    0  0.00000000000E+00  0.00000000000E+00  0.45593999997E+02  0.45594000000E+02  0.51100000000E-03 0. -1.
         11   -1    0    0    0    0 -0.00000000000E+00 -0.00000000000E+00 -0.45593999997E+02  0.45594000000E+02  0.51100000000E-03 0.  1.
         23    2    1    2    0    0  0.00000000000E+00  0.53290705182E-14  0.71054273576E-14  0.91188000000E+02  0.91188000000E+02 0.  0.
    9900012    2    3    3    0    0  0.95449953301E+01  0.11266428199E+02  0.33730414621E+02  0.54367079171E+02  0.39999988586E+02 0.  0.
        -12    1    3    3    0    0 -0.95449953301E+01 -0.11266428199E+02 -0.33730414621E+02  0.36820920829E+02  0.00000000000E+00 0.  1.
         11    1    4    4    0    0  0.61145810254E+01 -0.52919293825E+01 -0.20835442380E+01  0.83506750959E+01  0.51100000000E-03 0. -1.
        -11    1    4    4    0    0 -0.31494942746E+01 -0.28692007681E+01 -0.52044316677E+00  0.42921426565E+01  0.51100000000E-03 0.  1.
         12    1    4    4    0    0  0.65799085793E+01  0.19427558349E+02  0.36334402026E+02  0.41724261418E+02  0.00000000000E+00 0. -1.
</event>
<event>
 8    1  0.1253703E-006  0.9118800E+02  0.7816164E-02  0.1184000E+00
        -11   -1    0    0    0    0  0.00000000000E+00  0.00000000000E+00  0.45593999997E+02  0.45594000000E+02  0.51100000000E-03 0.  1.
         11   -1    0    0    0    0 -0.00000000000E+00 -0.00000000000E+00 -0.45593999997E+02  0.45594000000E+02  0.51100000000E-03 0. -1.
         23    2    1    2    0    0  0.00000000000E+00  0.00000000000E+00  0.00000000000E+00  0.91188000000E+02  0.91188000000E+02 0.  0.
    9900012    2    3    3    0    0 -0.19359131259E+02  0.26755709869E+02  0.16282934647E+02  0.54367110081E+02  0.40000059051E+02 0.  0.
         12    1    3    3    0    0  0.19359131259E+02 -0.26755709869E+02 -0.16282934647E+02  0.36820889919E+02  0.00000000000E+00 0. -1.
         11    1    4    4    0    0  0.37151689500E+01  0.17112740644E+02  0.14577966072E+02  0.22785202824E+02  0.51100000000E-03 0. -1.
        -11    1    4    4    0    0 -0.14907977593E+02  0.12562940069E+01  0.93114443188E+01  0.17621834924E+02  0.51100000000E-03 0.  1.
         12    1    4    4    0    0 -0.81663226166E+01  0.83866752178E+01 -0.76064757430E+01  0.13960072332E+02  0.00000000000E+00 0. -1.
</event>
<event>
 8    1  0.1253703E-006  0.9118800E+02  0.7816164E-02  0.1184000E+00
        -11   -1    0    0    0    0  0.00000000000E+00  0.00000000000E+00  0.45593999997E+02  0.45594000000E+02  0.51100000000E-03 0.  1.
         11   -1    0    0    0    0 -0.00000000000E+00 -0.00000000000E+00 -0.45593999997E+02  0.45594000000E+02  0.51100000000E-03 0. -1.
         23    2    1    2    0    0  0.71054273576E-14 -0.35527136788E-14  0.13877787808E-15  0.91188000000E+02  0.91188000000E+02 0.  0.
    9900012    2    3    3    0    0 -0.32993538704E+02  0.16344491276E+02 -0.24973953138E+00  0.54367104287E+02  0.40000045843E+02 0.  0.
        -12    1    3    3    0    0  0.32993538704E+02 -0.16344491276E+02  0.24973953138E+00  0.36820895713E+02  0.00000000000E+00 0.  1.
         11    1    4    4    0    0  0.21666208144E+01  0.13642251217E+02 -0.12491727741E+01  0.13869596134E+02  0.51100000000E-03 0. -1.
        -11    1    4    4    0    0 -0.22042908709E+02 -0.78006768394E+01  0.30029313964E+01  0.23574519735E+02  0.51100000000E-03 0.  1.
         12    1    4    4    0    0 -0.13117250809E+02  0.10502916898E+02 -0.20034981536E+01  0.16922988418E+02  0.00000000000E+00 0. -1.
</event>
<event>
 8    1  0.1253703E-006  0.9118800E+02  0.7816164E-02  0.1184000E+00
        -11   -1    0    0    0    0  0.00000000000E+00  0.00000000000E+00  0.45593999997E+02  0.45594000000E+02  0.51100000000E-03 0.  1.
         11   -1    0    0    0    0 -0.00000000000E+00 -0.00000000000E+00 -0.45593999997E+02  0.45594000000E+02  0.51100000000E-03 0. -1.
         23    2    1    2    0    0 -0.35527136788E-14  0.35527136788E-14 -0.88817841970E-15  0.91188000000E+02  0.91188000000E+02 0.  0.
    9900012    2    3    3    0    0 -0.31917310442E+02  0.17509140928E+02  0.55222836270E+01  0.54367077438E+02  0.39999984635E+02 0.  0.
        -12    1    3    3    0    0  0.31917310442E+02 -0.17509140928E+02 -0.55222836270E+01  0.36820922562E+02  0.00000000000E+00 0.  1.
         11    1    4    4    0    0 -0.19657772474E+02  0.30007908675E+00 -0.80804552612E+01  0.21255865627E+02  0.51100000000E-03 0. -1.
        -11    1    4    4    0    0  0.40464062335E+01  0.10999269216E+02  0.13652414715E+01  0.11799203839E+02  0.51100000000E-03 0.  1.
        -12    1    4    4    0    0 -0.16305944202E+02  0.62097926249E+01  0.12237497417E+02  0.21312007971E+02  0.00000000000E+00 0.  1.
</event>
<event>
 8    1  0.1253703E-006  0.9118800E+02  0.7816164E-02  0.1184000E+00
        -11   -1    0    0    0    0  0.00000000000E+00  0.00000000000E+00  0.45593999997E+02  0.45594000000E+02  0.51100000000E-03 0. -1.
         11   -1    0    0    0    0 -0.00000000000E+00 -0.00000000000E+00 -0.45593999997E+02  0.45594000000E+02  0.51100000000E-03 0.  1.
         23    2    1    2    0    0  0.00000000000E+00  0.00000000000E+00 -0.35527136788E-14  0.91188000000E+02  0.91188000000E+02 0.  0.
    9900012    2    3    3    0    0 -0.28418988737E+02 -0.47609632462E+01  0.22923242002E+02  0.54367072313E+02  0.39999972951E+02 0.  0.
        -12    1    3    3    0    0  0.28418988737E+02  0.47609632462E+01 -0.22923242002E+02  0.36820927687E+02  0.00000000000E+00 0.  1.
         11    1    4    4    0    0 -0.74365374746E+01 -0.96818204772E+01  0.19610528341E+02  0.23100055399E+02  0.51100000000E-03 0. -1.
        -11    1    4    4    0    0 -0.19703952002E+02 -0.34462181291E+00  0.10449796236E+02  0.22306114192E+02  0.51100000000E-03 0.  1.
         12    1    4    4    0    0 -0.12784992599E+01  0.52654790439E+01 -0.71370825744E+01  0.89609027220E+01  0.00000000000E+00 0. -1.
</event>
<event>
 8    1  0.1253703E-006  0.9118800E+02  0.7816164E-02  0.1184000E+00
        -11   -1    0    0    0    0  0.00000000000E+00  0.00000000000E+00  0.45593999997E+02  0.45594000000E+02  0.51100000000E-03 0. -1.
         11   -1    0    0    0    0 -0.00000000000E+00 -0.00000000000E+00 -0.45593999997E+02  0.45594000000E+02  0.51100000000E-03 0.  1.
         23    2    1    2    0    0  0.00000000000E+00  0.00000000000E+00  0.00000000000E+00  0.91188000000E+02  0.91188000000E+02 0.  0.
    9900012    2    3    3    0    0 -0.23574911694E+02 -0.28489094937E+01 -0.28140503548E+02  0.54367072708E+02  0.39999973853E+02 0.  0.
         12    1    3    3    0    0  0.23574911694E+02  0.28489094937E+01  0.28140503548E+02  0.36820927292E+02  0.00000000000E+00 0. -1.
         11    1    4    4    0    0 -0.62770033403E+01 -0.28891512514E+01  0.61088122690E+00  0.69369403934E+01  0.51100000000E-03 0. -1.
        -11    1    4    4    0    0 -0.69963378134E+01 -0.76627460370E-01 -0.34791326876E+02  0.35487899919E+02  0.51100000000E-03 0.  1.
        -12    1    4    4    0    0 -0.10301570540E+02  0.11686921809E+00  0.60399421012E+01  0.11942232396E+02  0.00000000000E+00 0.  1.
</event>
<event>
 8    1  0.1253703E-006  0.9118800E+02  0.7816164E-02  0.1184000E+00
        -11   -1    0    0    0    0  0.00000000000E+00  0.00000000000E+00  0.45593999997E+02  0.45594000000E+02  0.51100000000E-03 0.  1.
         11   -1    0    0    0    0 -0.00000000000E+00 -0.00000000000E+00 -0.45593999997E+02  0.45594000000E+02  0.51100000000E-03 0. -1.
         23    2    1    2    0    0  0.00000000000E+00  0.00000000000E+00  0.35527136788E-14  0.91188000000E+02  0.91188000000E+02 0.  0.
    9900012    2    3    3    0    0  0.23786637699E+02  0.22199351411E+02 -0.17238439428E+02  0.54367093846E+02  0.40000022041E+02 0.  0.
        -12    1    3    3    0    0 -0.23786637699E+02 -0.22199351411E+02  0.17238439428E+02  0.36820906154E+02  0.00000000000E+00 0.  1.
         11    1    4    4    0    0  0.72807945228E+01  0.15228914138E+02 -0.36155128272E+01  0.17262726551E+02  0.51100000000E-03 0. -1.
        -11    1    4    4    0    0 -0.27272923292E+01 -0.66553619204E+01  0.34724774767E+01  0.79868683367E+01  0.51100000000E-03 0.  1.
         12    1    4    4    0    0  0.19233135505E+02  0.13625799194E+02 -0.17095404077E+02  0.29117498959E+02  0.00000000000E+00 0. -1.
</event>
<event>
 8    1  0.1253703E-006  0.9118800E+02  0.7816164E-02  0.1184000E+00
        -11   -1    0    0    0    0  0.00000000000E+00  0.00000000000E+00  0.45593999997E+02  0.45594000000E+02  0.51100000000E-03 0.  1.
         11   -1    0    0    0    0 -0.00000000000E+00 -0.00000000000E+00 -0.45593999997E+02  0.45594000000E+02  0.51100000000E-03 0. -1.
         23    2    1    2    0    0 -0.35527136788E-14  0.00000000000E+00  0.00000000000E+00  0.91188000000E+02  0.91188000000E+02 0.  0.
    9900012    2    3    3    0    0 -0.27220182552E+02  0.22681764164E+02 -0.10018964606E+02  0.54367076390E+02  0.39999982246E+02 0.  0.
        -12    1    3    3    0    0  0.27220182552E+02 -0.22681764164E+02  0.10018964606E+02  0.36820923610E+02  0.00000000000E+00 0.  1.
         11    1    4    4    0    0 -0.21975731871E+01  0.87286947470E+01  0.35903815555E+00  0.90082378164E+01  0.51100000000E-03 0. -1.
        -11    1    4    4    0    0 -0.31798621888E+02  0.53681158733E+01 -0.34975121104E+01  0.32437657332E+02  0.51100000000E-03 0.  1.
        -12    1    4    4    0    0  0.67760125234E+01  0.85849535438E+01 -0.68804906508E+01  0.12921181241E+02  0.00000000000E+00 0.  1.
</event>
<event>
 8    1  0.1253703E-006  0.9118800E+02  0.7816164E-02  0.1184000E+00
        -11   -1    0    0    0    0  0.00000000000E+00  0.00000000000E+00  0.45593999997E+02  0.45594000000E+02  0.51100000000E-03 0. -1.
         11   -1    0    0    0    0 -0.00000000000E+00 -0.00000000000E+00 -0.45593999997E+02  0.45594000000E+02  0.51100000000E-03 0.  1.
         23    2    1    2    0    0 -0.71054273576E-14  0.17763568394E-14 -0.35527136788E-14  0.91188000000E+02  0.91188000000E+02 0.  0.
    9900012    2    3    3    0    0 -0.27915824762E+02  0.13932238066E+02 -0.19554510527E+02  0.54367090022E+02  0.40000013323E+02 0.  0.
         12    1    3    3    0    0  0.27915824762E+02 -0.13932238066E+02  0.19554510527E+02  0.36820909978E+02  0.00000000000E+00 0. -1.
         11    1    4    4    0    0  0.49702325285E+01  0.65431588842E+01  0.37133549907E+01  0.90169365707E+01  0.51100000000E-03 0. -1.
        -11    1    4    4    0    0  0.13607880748E+01  0.32561000282E+01 -0.55336389785E+01  0.65631617520E+01  0.51100000000E-03 0.  1.
        -12    1    4    4    0    0 -0.34246845365E+02  0.41329791532E+01 -0.17734226539E+02  0.38786991699E+02  0.00000000000E+00 0.  1.
</event>
<event>
 8    1  0.1253703E-006  0.9118800E+02  0.7816164E-02  0.1184000E+00
        -11   -1    0    0    0    0  0.00000000000E+00  0.00000000000E+00  0.45593999997E+02  0.45594000000E+02  0.51100000000E-03 0. -1.
         11   -1    0    0    0    0 -0.00000000000E+00 -0.00000000000E+00 -0.45593999997E+02  0.45594000000E+02  0.51100000000E-03 0.  1.
         23    2    1    2    0    0  0.44408920985E-15  0.71054273576E-14  0.00000000000E+00  0.91188000000E+02  0.91188000000E+02 0.  0.
    9900012    2    3    3    0    0  0.28070871317E+01  0.30773735445E+02  0.20022026785E+02  0.54367026521E+02  0.39999868559E+02 0.  0.
        -12    1    3    3    0    0 -0.28070871317E+01 -0.30773735445E+02 -0.20022026785E+02  0.36820973479E+02  0.00000000000E+00 0.  1.
         11    1    4    4    0    0 -0.32678304890E+01  0.18298133184E+00 -0.21199174766E+00  0.32798077741E+01  0.51100000000E-03 0. -1.
        -11    1    4    4    0    0  0.12833894172E+02  0.16894082017E+02 -0.48088488942E+01  0.21754169136E+02  0.51100000000E-03 0.  1.
         12    1    4    4    0    0 -0.67589765516E+01  0.13696672096E+02  0.25042867427E+02  0.29333049611E+02  0.00000000000E+00 0. -1.
</event>
<event>
 8    1  0.1253703E-006  0.9118800E+02  0.7816164E-02  0.1184000E+00
        -11   -1    0    0    0    0  0.00000000000E+00  0.00000000000E+00  0.45593999997E+02  0.45594000000E+02  0.51100000000E-03 0.  1.
         11   -1    0    0    0    0 -0.00000000000E+00 -0.00000000000E+00 -0.45593999997E+02  0.45594000000E+02  0.51100000000E-03 0. -1.
         23    2    1    2    0    0  0.00000000000E+00  0.00000000000E+00  0.00000000000E+00  0.91188000000E+02  0.91188000000E+02 0.  0.
    9900012    2    3    3    0    0 -0.25402433762E+02 -0.86147363669E+01  0.25224597713E+02  0.54367113896E+02  0.40000067749E+02 0.  0.
         12    1    3    3    0    0  0.25402433762E+02  0.86147363669E+01 -0.25224597713E+02  0.36820886104E+02  0.00000000000E+00 0. -1.
         11    1    4    4    0    0 -0.25265876504E+02 -0.13787379659E+02  0.89844769790E+01  0.30152565069E+02  0.51100000000E-03 0. -1.
        -11    1    4    4    0    0 -0.68428975605E+01 -0.54600341622E+00  0.14785763563E+01  0.70220762639E+01  0.51100000000E-03 0.  1.
        -12    1    4    4    0    0  0.67063403033E+01  0.57186467080E+01  0.14761544378E+02  0.17192472564E+02  0.00000000000E+00 0.  1.
</event>
<event>
 8    1  0.1253703E-006  0.9118800E+02  0.7816164E-02  0.1184000E+00
        -11   -1    0    0    0    0  0.00000000000E+00  0.00000000000E+00  0.45593999997E+02  0.45594000000E+02  0.51100000000E-03 0.  1.
         11   -1    0    0    0    0 -0.00000000000E+00 -0.00000000000E+00 -0.45593999997E+02  0.45594000000E+02  0.51100000000E-03 0. -1.
         23    2    1    2    0    0  0.00000000000E+00 -0.35527136788E-14  0.88817841970E-15  0.91188000000E+02  0.91188000000E+02 0.  0.
    9900012    2    3    3    0    0 -0.19132312385E+02  0.30905782718E+02 -0.58794016838E+01  0.54367080039E+02  0.39999990565E+02 0.  0.
         12    1    3    3    0    0  0.19132312385E+02 -0.30905782718E+02  0.58794016838E+01  0.36820919961E+02  0.00000000000E+00 0. -1.
         11    1    4    4    0    0 -0.12532694633E+02  0.74901637459E+01 -0.16723524969E+02  0.22200163858E+02  0.51100000000E-03 0. -1.
        -11    1    4    4    0    0 -0.11179199464E+02  0.79486548737E+01  0.77075263344E+01  0.15734089659E+02  0.51100000000E-03 0.  1.
         12    1    4    4    0    0  0.45795817107E+01  0.15466964098E+02  0.31365969507E+01  0.16432826522E+02  0.00000000000E+00 0. -1.
</event>
<event>
 8    1  0.1253703E-006  0.9118800E+02  0.7816164E-02  0.1184000E+00
        -11   -1    0    0    0    0  0.00000000000E+00  0.00000000000E+00  0.45593999997E+02  0.45594000000E+02  0.51100000000E-03 0.  1.
         11   -1    0    0    0    0 -0.00000000000E+00 -0.00000000000E+00 -0.45593999997E+02  0.45594000000E+02  0.51100000000E-03 0. -1.
         23    2    1    2    0    0  0.00000000000E+00  0.00000000000E+00  0.00000000000E+00  0.91188000000E+02  0.91188000000E+02 0.  0.
    9900012    2    3    3    0    0 -0.18565039414E+02  0.23822439149E+02  0.21061932967E+02  0.54367159220E+02  0.40000171074E+02 0.  0.
         12    1    3    3    0    0  0.18565039414E+02 -0.23822439149E+02 -0.21061932967E+02  0.36820840780E+02  0.00000000000E+00 0. -1.
         11    1    4    4    0    0 -0.13683899635E+02  0.15360407273E+02  0.23126346623E+02  0.30951884097E+02  0.51100000000E-03 0. -1.
        -11    1    4    4    0    0  0.53438465538E+01  0.11032852841E+02 -0.35627618218E+01  0.12766119608E+02  0.51100000000E-03 0.  1.
         12    1    4    4    0    0 -0.10224986333E+02 -0.25708209648E+01  0.14983481656E+01  0.10649155515E+02  0.00000000000E+00 0. -1.
</event>
<event>
 8    1  0.1253703E-006  0.9118800E+02  0.7816164E-02  0.1184000E+00
        -11   -1    0    0    0    0  0.00000000000E+00  0.00000000000E+00  0.45593999997E+02  0.45594000000E+02  0.51100000000E-03 0.  1.
         11   -1    0    0    0    0 -0.00000000000E+00 -0.00000000000E+00 -0.45593999997E+02  0.45594000000E+02  0.51100000000E-03 0. -1.
         23    2    1    2    0    0  0.00000000000E+00 -0.35527136788E-14  0.00000000000E+00  0.91188000000E+02  0.91188000000E+02 0.  0.
    9900012    2    3    3    0    0  0.31333170339E+02  0.33657437921E+01 -0.19044155849E+02  0.54367140874E+02  0.40000129250E+02 0.  0.
         12    1    3    3    0    0 -0.31333170339E+02 -0.33657437921E+01  0.19044155849E+02  0.36820859126E+02  0.00000000000E+00 0. -1.
         11    1    4    4    0    0  0.16466877986E+02  0.19715085841E+02 -0.12041676165E+02  0.28369784022E+02  0.51100000000E-03 0. -1.
        -11    1    4    4    0    0  0.14458752378E+02 -0.17580474821E+02 -0.82369222244E+01  0.24206930893E+02  0.51100000000E-03 0.  1.
        -12    1    4    4    0    0  0.40753997504E+00  0.12311327716E+01  0.12344425397E+01  0.17904259595E+01  0.00000000000E+00 0.  1.
</event>
<event>
 8    1  0.1253703E-006  0.9118800E+02  0.7816164E-02  0.1184000E+00
        -11   -1    0    0    0    0  0.00000000000E+00  0.00000000000E+00  0.45593999997E+02  0.45594000000E+02  0.51100000000E-03 0.  1.
         11   -1    0    0    0    0 -0.00000000000E+00 -0.00000000000E+00 -0.45593999997E+02  0.45594000000E+02  0.51100000000E-03 0. -1.
         23    2    1    2    0    0 -0.16653345369E-15 -0.17763568394E-14  0.71054273576E-14  0.91188000000E+02  0.91188000000E+02 0.  0.
    9900012    2    3    3    0    0 -0.11015200151E+00 -0.12026001736E+02  0.34801453653E+02  0.54367108816E+02  0.40000056167E+02 0.  0.
         12    1    3    3    0    0  0.11015200151E+00  0.12026001736E+02 -0.34801453653E+02  0.36820891184E+02  0.00000000000E+00 0. -1.
         11    1    4    4    0    0  0.60674317676E+00  0.98935501478E+01  0.66741476281E+01  0.11949674415E+02  0.51100000000E-03 0. -1.
        -11    1    4    4    0    0  0.99546185712E+01 -0.66550360138E+01  0.56907450220E+01  0.13257771849E+02  0.51100000000E-03 0.  1.
        -12    1    4    4    0    0 -0.10671513749E+02 -0.15264515870E+02  0.22436561003E+02  0.29159662551E+02  0.00000000000E+00 0.  1.
</event>
<event>
 8    1  0.1253703E-006  0.9118800E+02  0.7816164E-02  0.1184000E+00
        -11   -1    0    0    0    0  0.00000000000E+00  0.00000000000E+00  0.45593999997E+02  0.45594000000E+02  0.51100000000E-03 0.  1.
         11   -1    0    0    0    0 -0.00000000000E+00 -0.00000000000E+00 -0.45593999997E+02  0.45594000000E+02  0.51100000000E-03 0. -1.
         23    2    1    2    0    0 -0.35527136788E-14  0.00000000000E+00 -0.71054273576E-14  0.91188000000E+02  0.91188000000E+02 0.  0.
    9900012    2    3    3    0    0  0.17071242885E+02  0.56052844295E+01 -0.32139277447E+02  0.54367086079E+02  0.40000004334E+02 0.  0.
        -12    1    3    3    0    0 -0.17071242885E+02 -0.56052844295E+01  0.32139277447E+02  0.36820913921E+02  0.00000000000E+00 0.  1.
         11    1    4    4    0    0 -0.65238162668E+01 -0.67043010008E+01 -0.14326156198E+02  0.17109838756E+02  0.51100000000E-03 0. -1.
        -11    1    4    4    0    0  0.17234017457E+02  0.64329940800E+01 -0.21101295680E+02  0.27993918092E+02  0.51100000000E-03 0.  1.
        -12    1    4    4    0    0  0.63610416954E+01  0.58765913503E+01  0.32881744309E+01  0.92633292307E+01  0.00000000000E+00 0.  1.
</event>
<event>
 8    1  0.1253703E-006  0.9118800E+02  0.7816164E-02  0.1184000E+00
        -11   -1    0    0    0    0  0.00000000000E+00  0.00000000000E+00  0.45593999997E+02  0.45594000000E+02  0.51100000000E-03 0.  1.
         11   -1    0    0    0    0 -0.00000000000E+00 -0.00000000000E+00 -0.45593999997E+02  0.45594000000E+02  0.51100000000E-03 0. -1.
         23    2    1    2    0    0  0.00000000000E+00 -0.44408920985E-15  0.00000000000E+00  0.91188000000E+02  0.91188000000E+02 0.  0.
    9900012    2    3    3    0    0  0.36542173899E+02  0.18237954569E+01 -0.41380472959E+01  0.54367080150E+02  0.39999990819E+02 0.  0.
         12    1    3    3    0    0 -0.36542173899E+02 -0.18237954569E+01  0.41380472959E+01  0.36820919850E+02  0.00000000000E+00 0. -1.
         11    1    4    4    0    0 -0.47288058730E+01 -0.71064721767E+01 -0.32479997333E+01  0.91330747457E+01  0.51100000000E-03 0. -1.
        -11    1    4    4    0    0  0.12594271622E+02  0.98084616825E+01  0.31193568169E+01  0.16265054118E+02  0.51100000000E-03 0.  1.
         12    1    4    4    0    0  0.28676708151E+02 -0.87819404896E+00 -0.40094043795E+01  0.28968951286E+02  0.00000000000E+00 0. -1.
</event>
<event>
 8    1  0.1253703E-006  0.9118800E+02  0.7816164E-02  0.1184000E+00
        -11   -1    0    0    0    0  0.00000000000E+00  0.00000000000E+00  0.45593999997E+02  0.45594000000E+02  0.51100000000E-03 0. -1.
         11   -1    0    0    0    0 -0.00000000000E+00 -0.00000000000E+00 -0.45593999997E+02  0.45594000000E+02  0.51100000000E-03 0.  1.
         23    2    1    2    0    0  0.00000000000E+00  0.00000000000E+00  0.00000000000E+00  0.91188000000E+02  0.91188000000E+02 0.  0.
    9900012    2    3    3    0    0  0.34050514115E+02 -0.98825265301E+01  0.99334957495E+01  0.54367133905E+02  0.40000113364E+02 0.  0.
        -12    1    3    3    0    0 -0.34050514115E+02  0.98825265301E+01 -0.99334957495E+01  0.36820866095E+02  0.00000000000E+00 0.  1.
         11    1    4    4    0    0  0.18213125255E+02 -0.10870166460E+02 -0.38410183584E+01  0.21555321216E+02  0.51100000000E-03 0. -1.
        -11    1    4    4    0    0  0.27364027854E+01 -0.11410634897E+02  0.58194446451E+01  0.13097955000E+02  0.51100000000E-03 0.  1.
        -12    1    4    4    0    0  0.13100986075E+02  0.12398274827E+02  0.79550694628E+01  0.19713857689E+02  0.00000000000E+00 0.  1.
</event>
<event>
 8    1  0.1253703E-006  0.9118800E+02  0.7816164E-02  0.1184000E+00
        -11   -1    0    0    0    0  0.00000000000E+00  0.00000000000E+00  0.45593999997E+02  0.45594000000E+02  0.51100000000E-03 0. -1.
         11   -1    0    0    0    0 -0.00000000000E+00 -0.00000000000E+00 -0.45593999997E+02  0.45594000000E+02  0.51100000000E-03 0.  1.
         23    2    1    2    0    0  0.00000000000E+00  0.88817841970E-15  0.00000000000E+00  0.91188000000E+02  0.91188000000E+02 0.  0.
    9900012    2    3    3    0    0  0.12746148981E+02 -0.41205285468E+01  0.34297770267E+02  0.54367080476E+02  0.39999991561E+02 0.  0.
        -12    1    3    3    0    0 -0.12746148981E+02  0.41205285468E+01 -0.34297770267E+02  0.36820919524E+02  0.00000000000E+00 0.  1.
         11    1    4    4    0    0  0.13173317539E+02 -0.71028719554E+01  0.15134793168E+02  0.21284948896E+02  0.51100000000E-03 0. -1.
        -11    1    4    4    0    0  0.10683806798E+02  0.77472380243E+01  0.42080744565E+01  0.13851762184E+02  0.51100000000E-03 0.  1.
        -12    1    4    4    0    0 -0.11110975357E+02 -0.47648946157E+01  0.14954902642E+02  0.19230369396E+02  0.00000000000E+00 0.  1.
</event>
<event>
 8    1  0.1253703E-006  0.9118800E+02  0.7816164E-02  0.1184000E+00
        -11   -1    0    0    0    0  0.00000000000E+00  0.00000000000E+00  0.45593999997E+02  0.45594000000E+02  0.51100000000E-03 0.  1.
         11   -1    0    0    0    0 -0.00000000000E+00 -0.00000000000E+00 -0.45593999997E+02  0.45594000000E+02  0.51100000000E-03 0. -1.
         23    2    1    2    0    0  0.00000000000E+00  0.00000000000E+00  0.00000000000E+00  0.91188000000E+02  0.91188000000E+02 0.  0.
    9900012    2    3    3    0    0  0.29918118587E+02 -0.16091433490E+02  0.14203890989E+02  0.54367101440E+02  0.40000039353E+02 0.  0.
        -12    1    3    3    0    0 -0.29918118587E+02  0.16091433490E+02 -0.14203890989E+02  0.36820898560E+02  0.00000000000E+00 0.  1.
         11    1    4    4    0    0  0.45940687094E+01 -0.34020985106E+01  0.93673337187E+01  0.10973909187E+02  0.51100000000E-03 0. -1.
        -11    1    4    4    0    0  0.83546054675E+01 -0.11371056228E+02  0.17279949979E+02  0.22309124227E+02  0.51100000000E-03 0.  1.
         12    1    4    4    0    0  0.16969444410E+02 -0.13182787516E+01 -0.12443392708E+02  0.21084068026E+02  0.00000000000E+00 0. -1.
</event>
<event>
 8    1  0.1253703E-006  0.9118800E+02  0.7816164E-02  0.1184000E+00
        -11   -1    0    0    0    0  0.00000000000E+00  0.00000000000E+00  0.45593999997E+02  0.45594000000E+02  0.51100000000E-03 0. -1.
         11   -1    0    0    0    0 -0.00000000000E+00 -0.00000000000E+00 -0.45593999997E+02  0.45594000000E+02  0.51100000000E-03 0.  1.
         23    2    1    2    0    0 -0.35527136788E-14 -0.44408920985E-15  0.00000000000E+00  0.91188000000E+02  0.91188000000E+02 0.  0.
    9900012    2    3    3    0    0  0.99636893867E+01  0.16614577786E+01  0.35408224683E+02  0.54367110231E+02  0.40000059394E+02 0.  0.
        -12    1    3    3    0    0 -0.99636893867E+01 -0.16614577786E+01 -0.35408224683E+02  0.36820889769E+02  0.00000000000E+00 0.  1.
         11    1    4    4    0    0  0.19233152835E+02 -0.12599411294E-01  0.15407830773E+02  0.24643773577E+02  0.51100000000E-03 0.  1.
        -11    1    4    4    0    0 -0.73014681545E+01 -0.83817546443E+01  0.68684013332E+01  0.13066758790E+02  0.51100000000E-03 0. -1.
        -12    1    4    4    0    0 -0.19679952941E+01  0.10055811834E+02  0.13131992577E+02  0.16656577865E+02  0.00000000000E+00 0.  1.
</event>
<event>
 8    1  0.1253703E-006  0.9118800E+02  0.7816164E-02  0.1184000E+00
        -11   -1    0    0    0    0  0.00000000000E+00  0.00000000000E+00  0.45593999997E+02  0.45594000000E+02  0.51100000000E-03 0. -1.
         11   -1    0    0    0    0 -0.00000000000E+00 -0.00000000000E+00 -0.45593999997E+02  0.45594000000E+02  0.51100000000E-03 0.  1.
         23    2    1    2    0    0  0.00000000000E+00  0.61062266354E-15  0.00000000000E+00  0.91188000000E+02  0.91188000000E+02 0.  0.
    9900012    2    3    3    0    0 -0.10858619904E+02  0.40602022136E+00 -0.35181021672E+02  0.54367098809E+02  0.40000033354E+02 0.  0.
         12    1    3    3    0    0  0.10858619904E+02 -0.40602022136E+00  0.35181021672E+02  0.36820901191E+02  0.00000000000E+00 0. -1.
         11    1    4    4    0    0 -0.58450834690E+01  0.15567238638E+02 -0.14055763385E+02  0.21773111954E+02  0.51100000000E-03 0. -1.
        -11    1    4    4    0    0  0.61147045067E+01 -0.30390605431E+01 -0.15151608696E+01  0.69943700868E+01  0.51100000000E-03 0.  1.
        -12    1    4    4    0    0 -0.11128240942E+02 -0.12122157873E+02 -0.19610097417E+02  0.25599616768E+02  0.00000000000E+00 0.  1.
</event>
<event>
 8    1  0.1253703E-006  0.9118800E+02  0.7816164E-02  0.1184000E+00
        -11   -1    0    0    0    0  0.00000000000E+00  0.00000000000E+00  0.45593999997E+02  0.45594000000E+02  0.51100000000E-03 0.  1.
         11   -1    0    0    0    0 -0.00000000000E+00 -0.00000000000E+00 -0.45593999997E+02  0.45594000000E+02  0.51100000000E-03 0. -1.
         23    2    1    2    0    0  0.88817841970E-15  0.00000000000E+00  0.00000000000E+00  0.91188000000E+02  0.91188000000E+02 0.  0.
    9900012    2    3    3    0    0  0.70948523564E+01  0.72173481318E+01  0.35402720569E+02  0.54367086545E+02  0.40000005397E+02 0.  0.
         12    1    3    3    0    0 -0.70948523564E+01 -0.72173481318E+01 -0.35402720569E+02  0.36820913455E+02  0.00000000000E+00 0. -1.
         11    1    4    4    0    0  0.20277590947E+01  0.38318034894E+01 -0.40210070112E+01  0.59129537942E+01  0.51100000000E-03 0. -1.
        -11    1    4    4    0    0  0.13662388183E+02 -0.14247608876E+01  0.88685465067E+01  0.16350593624E+02  0.51100000000E-03 0.  1.
         12    1    4    4    0    0 -0.85952949212E+01  0.48103055300E+01  0.30555181073E+02  0.32103539127E+02  0.00000000000E+00 0. -1.
</event>
<event>
 8    1  0.1253703E-006  0.9118800E+02  0.7816164E-02  0.1184000E+00
        -11   -1    0    0    0    0  0.00000000000E+00  0.00000000000E+00  0.45593999997E+02  0.45594000000E+02  0.51100000000E-03 0. -1.
         11   -1    0    0    0    0 -0.00000000000E+00 -0.00000000000E+00 -0.45593999997E+02  0.45594000000E+02  0.51100000000E-03 0.  1.
         23    2    1    2    0    0 -0.35527136788E-14  0.00000000000E+00 -0.88817841970E-15  0.91188000000E+02  0.91188000000E+02 0.  0.
    9900012    2    3    3    0    0 -0.22207515604E+02  0.28652644978E+02 -0.64515373076E+01  0.54367215826E+02  0.40000300117E+02 0.  0.
         12    1    3    3    0    0  0.22207515604E+02 -0.28652644978E+02  0.64515373076E+01  0.36820784174E+02  0.00000000000E+00 0. -1.
         11    1    4    4    0    0  0.16618313572E+01  0.55169616171E+01  0.94540547932E+01  0.11071481438E+02  0.51100000000E-03 0. -1.
        -11    1    4    4    0    0  0.50288072627E+00  0.14094066074E+02 -0.75119882141E+01  0.15978909685E+02  0.51100000000E-03 0.  1.
         12    1    4    4    0    0 -0.24372227688E+02  0.90416172870E+01 -0.83936038867E+01  0.27316824703E+02  0.00000000000E+00 0. -1.
</event>
<event>
 8    1  0.1253703E-006  0.9118800E+02  0.7816164E-02  0.1184000E+00
        -11   -1    0    0    0    0  0.00000000000E+00  0.00000000000E+00  0.45593999997E+02  0.45594000000E+02  0.51100000000E-03 0.  1.
         11   -1    0    0    0    0 -0.00000000000E+00 -0.00000000000E+00 -0.45593999997E+02  0.45594000000E+02  0.51100000000E-03 0. -1.
         23    2    1    2    0    0  0.17763568394E-14 -0.71054273576E-14  0.00000000000E+00  0.91188000000E+02  0.91188000000E+02 0.  0.
    9900012    2    3    3    0    0  0.81787535283E+01 -0.35693372887E+02 -0.38562882678E+01  0.54367084252E+02  0.40000000170E+02 0.  0.
        -12    1    3    3    0    0 -0.81787535283E+01  0.35693372887E+02  0.38562882678E+01  0.36820915748E+02  0.00000000000E+00 0.  1.
         11    1    4    4    0    0  0.13284103509E+01  0.30535367630E+01  0.17887928097E+01  0.37800186243E+01  0.51100000000E-03 0. -1.
        -11    1    4    4    0    0 -0.59284447505E+01  0.12623026165E+01 -0.60788420372E+01  0.85844152876E+01  0.51100000000E-03 0.  1.
         12    1    4    4    0    0  0.12778787928E+02 -0.40009212266E+02  0.43376095970E+00  0.42002650340E+02  0.00000000000E+00 0. -1.
</event>
<event>
 8    1  0.1253703E-006  0.9118800E+02  0.7816164E-02  0.1184000E+00
        -11   -1    0    0    0    0  0.00000000000E+00  0.00000000000E+00  0.45593999997E+02  0.45594000000E+02  0.51100000000E-03 0. -1.
         11   -1    0    0    0    0 -0.00000000000E+00 -0.00000000000E+00 -0.45593999997E+02  0.45594000000E+02  0.51100000000E-03 0.  1.
         23    2    1    2    0    0  0.00000000000E+00  0.00000000000E+00  0.00000000000E+00  0.91188000000E+02  0.91188000000E+02 0.  0.
    9900012    2    3    3    0    0 -0.28505459977E+02  0.45105918605E+01  0.22866350265E+02  0.54367127361E+02  0.40000098445E+02 0.  0.
        -12    1    3    3    0    0  0.28505459977E+02 -0.45105918605E+01 -0.22866350265E+02  0.36820872639E+02  0.00000000000E+00 0.  1.
         11    1    4    4    0    0 -0.18811645084E+01 -0.19779163348E+00  0.27449209366E+01  0.33335405573E+01  0.51100000000E-03 0. -1.
        -11    1    4    4    0    0 -0.36481325120E+02  0.47185529011E+01  0.13620777857E+02  0.39225978811E+02  0.51100000000E-03 0.  1.
        -12    1    4    4    0    0  0.98570296514E+01 -0.10169407137E-01  0.65006514717E+01  0.11807607993E+02  0.00000000000E+00 0.  1.
</event>
<event>
 8    1  0.1253703E-006  0.9118800E+02  0.7816164E-02  0.1184000E+00
        -11   -1    0    0    0    0  0.00000000000E+00  0.00000000000E+00  0.45593999997E+02  0.45594000000E+02  0.51100000000E-03 0.  1.
         11   -1    0    0    0    0 -0.00000000000E+00 -0.00000000000E+00 -0.45593999997E+02  0.45594000000E+02  0.51100000000E-03 0. -1.
         23    2    1    2    0    0  0.00000000000E+00 -0.17763568394E-14  0.35527136788E-14  0.91188000000E+02  0.91188000000E+02 0.  0.
    9900012    2    3    3    0    0  0.24574276677E+02  0.85937614625E+01 -0.26039052025E+02  0.54367081480E+02  0.39999993850E+02 0.  0.
        -12    1    3    3    0    0 -0.24574276677E+02 -0.85937614625E+01  0.26039052025E+02  0.36820918520E+02  0.00000000000E+00 0.  1.
         11    1    4    4    0    0  0.59018066285E+01  0.23810216760E+01 -0.94583310476E+00  0.64339090936E+01  0.51100000000E-03 0. -1.
        -11    1    4    4    0    0 -0.78126056203E+01 -0.15823871827E+01 -0.17607679932E+02  0.19327988737E+02  0.51100000000E-03 0.  1.
        -12    1    4    4    0    0  0.26485075669E+02  0.77951269692E+01 -0.74855389884E+01  0.28605183649E+02  0.00000000000E+00 0.  1.
</event>
<event>
 8    1  0.1253703E-006  0.9118800E+02  0.7816164E-02  0.1184000E+00
        -11   -1    0    0    0    0  0.00000000000E+00  0.00000000000E+00  0.45593999997E+02  0.45594000000E+02  0.51100000000E-03 0.  1.
         11   -1    0    0    0    0 -0.00000000000E+00 -0.00000000000E+00 -0.45593999997E+02  0.45594000000E+02  0.51100000000E-03 0. -1.
         23    2    1    2    0    0  0.00000000000E+00  0.00000000000E+00  0.00000000000E+00  0.91188000000E+02  0.91188000000E+02 0.  0.
    9900012    2    3    3    0    0  0.76188175044E+01  0.33689825924E+02 -0.12756499402E+02  0.54367095231E+02  0.40000025199E+02 0.  0.
         12    1    3    3    0    0 -0.76188175044E+01 -0.33689825924E+02  0.12756499402E+02  0.36820904769E+02  0.00000000000E+00 0. -1.
         11    1    4    4    0    0  0.12134025087E+02  0.14869787265E+02 -0.60623376108E+01  0.20127023518E+02  0.51100000000E-03 0.  1.
        -11    1    4    4    0    0  0.10216203582E+02  0.45089278084E+01  0.29501516069E+01  0.11550092657E+02  0.51100000000E-03 0. -1.
        -12    1    4    4    0    0 -0.14731411164E+02  0.14311110850E+02 -0.96443133984E+01  0.22689979057E+02  0.00000000000E+00 0.  1.
</event>
<event>
 8    1  0.1253703E-006  0.9118800E+02  0.7816164E-02  0.1184000E+00
        -11   -1    0    0    0    0  0.00000000000E+00  0.00000000000E+00  0.45593999997E+02  0.45594000000E+02  0.51100000000E-03 0. -1.
         11   -1    0    0    0    0 -0.00000000000E+00 -0.00000000000E+00 -0.45593999997E+02  0.45594000000E+02  0.51100000000E-03 0.  1.
         23    2    1    2    0    0  0.88817841970E-15  0.00000000000E+00  0.00000000000E+00  0.91188000000E+02  0.91188000000E+02 0.  0.
    9900012    2    3    3    0    0 -0.56236331418E+01 -0.26854190046E+02  0.24556196525E+02  0.54367088000E+02  0.40000008713E+02 0.  0.
        -12    1    3    3    0    0  0.56236331418E+01  0.26854190046E+02 -0.24556196525E+02  0.36820912000E+02  0.00000000000E+00 0.  1.
         11    1    4    4    0    0 -0.12184449705E+02 -0.17584944254E+02  0.25566157906E+02  0.33336459160E+02  0.51100000000E-03 0. -1.
        -11    1    4    4    0    0  0.71419292790E+01 -0.13586694674E+02 -0.38567607119E+01  0.15826560885E+02  0.51100000000E-03 0.  1.
         12    1    4    4    0    0 -0.58111271582E+00  0.43174488820E+01  0.28467993318E+01  0.52040679543E+01  0.00000000000E+00 0. -1.
</event>
<event>
 8    1  0.1253703E-006  0.9118800E+02  0.7816164E-02  0.1184000E+00
        -11   -1    0    0    0    0  0.00000000000E+00  0.00000000000E+00  0.45593999997E+02  0.45594000000E+02  0.51100000000E-03 0.  1.
         11   -1    0    0    0    0 -0.00000000000E+00 -0.00000000000E+00 -0.45593999997E+02  0.45594000000E+02  0.51100000000E-03 0. -1.
         23    2    1    2    0    0 -0.88817841970E-15  0.00000000000E+00 -0.17763568394E-14  0.91188000000E+02  0.91188000000E+02 0.  0.
    9900012    2    3    3    0    0  0.44654646059E+01 -0.34371018764E+02 -0.12428708041E+02  0.54367080829E+02  0.39999992367E+02 0.  0.
        -12    1    3    3    0    0 -0.44654646059E+01  0.34371018764E+02  0.12428708041E+02  0.36820919171E+02  0.00000000000E+00 0.  1.
         11    1    4    4    0    0  0.48536962785E+01 -0.31123505923E+01  0.57715039226E+01  0.81581463313E+01  0.51100000000E-03 0. -1.
        -11    1    4    4    0    0 -0.34833225257E+01 -0.16023783084E+01  0.64620550480E+01  0.75139408945E+01  0.51100000000E-03 0.  1.
         12    1    4    4    0    0  0.30950908531E+01 -0.29656289863E+02 -0.24662267012E+02  0.38694993604E+02  0.00000000000E+00 0. -1.
</event>
<event>
 8    1  0.1253703E-006  0.9118800E+02  0.7816164E-02  0.1184000E+00
        -11   -1    0    0    0    0  0.00000000000E+00  0.00000000000E+00  0.45593999997E+02  0.45594000000E+02  0.51100000000E-03 0. -1.
         11   -1    0    0    0    0 -0.00000000000E+00 -0.00000000000E+00 -0.45593999997E+02  0.45594000000E+02  0.51100000000E-03 0.  1.
         23    2    1    2    0    0  0.00000000000E+00  0.00000000000E+00 -0.35527136788E-14  0.91188000000E+02  0.91188000000E+02 0.  0.
    9900012    2    3    3    0    0 -0.12348980491E+02  0.27318787615E+02 -0.21376769217E+02  0.54367085588E+02  0.40000003216E+02 0.  0.
         12    1    3    3    0    0  0.12348980491E+02 -0.27318787615E+02  0.21376769217E+02  0.36820914412E+02  0.00000000000E+00 0. -1.
         11    1    4    4    0    0 -0.14317369441E+02  0.32215285014E+02 -0.16485837477E+02  0.38917791482E+02  0.51100000000E-03 0.  1.
        -11    1    4    4    0    0  0.27731983423E+01  0.43847668845E+01 -0.28229934931E+01  0.59064458180E+01  0.51100000000E-03 0. -1.
        -12    1    4    4    0    0 -0.80480939213E+00 -0.92812642834E+01 -0.20679382475E+01  0.95428482882E+01  0.00000000000E+00 0.  1.
</event>
<event>
 8    1  0.1253703E-006  0.9118800E+02  0.7816164E-02  0.1184000E+00
        -11   -1    0    0    0    0  0.00000000000E+00  0.00000000000E+00  0.45593999997E+02  0.45594000000E+02  0.51100000000E-03 0.  1.
         11   -1    0    0    0    0 -0.00000000000E+00 -0.00000000000E+00 -0.45593999997E+02  0.45594000000E+02  0.51100000000E-03 0. -1.
         23    2    1    2    0    0  0.88817841970E-15  0.35527136788E-14  0.00000000000E+00  0.91188000000E+02  0.91188000000E+02 0.  0.
    9900012    2    3    3    0    0  0.76385244793E+01  0.16971613226E+02 -0.31770916237E+02  0.54367165813E+02  0.40000186103E+02 0.  0.
        -12    1    3    3    0    0 -0.76385244793E+01 -0.16971613226E+02  0.31770916237E+02  0.36820834187E+02  0.00000000000E+00 0.  1.
         11    1    4    4    0    0  0.15162108858E+02 -0.51032248649E+01 -0.49203056231E+01  0.16737438774E+02  0.51100000000E-03 0. -1.
        -11    1    4    4    0    0 -0.10912040155E+02  0.16651183600E+02 -0.21383373841E+02  0.29216146438E+02  0.51100000000E-03 0.  1.
         12    1    4    4    0    0  0.33884557768E+01  0.54236544905E+01 -0.54672367732E+01  0.84135806003E+01  0.00000000000E+00 0. -1.
</event>
<event>
 8    1  0.1253703E-006  0.9118800E+02  0.7816164E-02  0.1184000E+00
        -11   -1    0    0    0    0  0.00000000000E+00  0.00000000000E+00  0.45593999997E+02  0.45594000000E+02  0.51100000000E-03 0. -1.
         11   -1    0    0    0    0 -0.00000000000E+00 -0.00000000000E+00 -0.45593999997E+02  0.45594000000E+02  0.51100000000E-03 0.  1.
         23    2    1    2    0    0  0.00000000000E+00  0.00000000000E+00  0.00000000000E+00  0.91188000000E+02  0.91188000000E+02 0.  0.
    9900012    2    3    3    0    0 -0.14684649874E+02 -0.25667884760E+02  0.21938761441E+02  0.54366966561E+02  0.39999731868E+02 0.  0.
         12    1    3    3    0    0  0.14684649874E+02  0.25667884760E+02 -0.21938761441E+02  0.36821033439E+02  0.00000000000E+00 0. -1.
         11    1    4    4    0    0  0.13618093348E-01 -0.23256278200E+02  0.22677757308E+02  0.32482846827E+02  0.51100000000E-03 0. -1.
        -11    1    4    4    0    0 -0.70339812896E+01 -0.84760197584E+01  0.30067624903E+01  0.11417548978E+02  0.51100000000E-03 0.  1.
        -12    1    4    4    0    0 -0.76642866781E+01  0.60644131986E+01 -0.37457583580E+01  0.10466570757E+02  0.00000000000E+00 0.  1.
</event>
<event>
 8    1  0.1253703E-006  0.9118800E+02  0.7816164E-02  0.1184000E+00
        -11   -1    0    0    0    0  0.00000000000E+00  0.00000000000E+00  0.45593999997E+02  0.45594000000E+02  0.51100000000E-03 0.  1.
         11   -1    0    0    0    0 -0.00000000000E+00 -0.00000000000E+00 -0.45593999997E+02  0.45594000000E+02  0.51100000000E-03 0. -1.
         23    2    1    2    0    0  0.88123952580E-15  0.00000000000E+00  0.71054273576E-14  0.91188000000E+02  0.91188000000E+02 0.  0.
    9900012    2    3    3    0    0 -0.62264864732E-02  0.54668514100E+01  0.36412821017E+02  0.54367081522E+02  0.39999993946E+02 0.  0.
         12    1    3    3    0    0  0.62264864732E-02 -0.54668514100E+01 -0.36412821017E+02  0.36820918478E+02  0.00000000000E+00 0. -1.
         11    1    4    4    0    0 -0.13896342472E+02  0.65886075090E+00  0.20283573515E+02  0.24596052252E+02  0.51100000000E-03 0. -1.
        -11    1    4    4    0    0  0.99846196938E+01  0.11033128802E+02  0.16739179891E+02  0.22396935176E+02  0.51100000000E-03 0.  1.
         12    1    4    4    0    0  0.39054962922E+01 -0.62251381427E+01 -0.60993238920E+00  0.73740940938E+01  0.00000000000E+00 0. -1.
</event>
<event>
 8    1  0.1253703E-006  0.9118800E+02  0.7816164E-02  0.1184000E+00
        -11   -1    0    0    0    0  0.00000000000E+00  0.00000000000E+00  0.45593999997E+02  0.45594000000E+02  0.51100000000E-03 0.  1.
         11   -1    0    0    0    0 -0.00000000000E+00 -0.00000000000E+00 -0.45593999997E+02  0.45594000000E+02  0.51100000000E-03 0. -1.
         23    2    1    2    0    0  0.00000000000E+00  0.00000000000E+00  0.22204460493E-15  0.91188000000E+02  0.91188000000E+02 0.  0.
    9900012    2    3    3    0    0 -0.20372715381E+02  0.30618052886E+02 -0.18074332879E+01  0.54367088691E+02  0.40000010290E+02 0.  0.
         12    1    3    3    0    0  0.20372715381E+02 -0.30618052886E+02  0.18074332879E+01  0.36820911309E+02  0.00000000000E+00 0. -1.
         11    1    4    4    0    0 -0.18378582458E+02  0.18618717260E+02  0.25938875936E+01  0.26289868365E+02  0.51100000000E-03 0.  1.
        -11    1    4    4    0    0  0.55981409138E+01 -0.59295214578E+01 -0.19018044243E+00  0.81568728856E+01  0.51100000000E-03 0. -1.
         12    1    4    4    0    0 -0.75922738370E+01  0.17928857084E+02 -0.42111404391E+01  0.19920347440E+02  0.00000000000E+00 0. -1.
</event>
<event>
 8    1  0.1253703E-006  0.9118800E+02  0.7816164E-02  0.1184000E+00
        -11   -1    0    0    0    0  0.00000000000E+00  0.00000000000E+00  0.45593999997E+02  0.45594000000E+02  0.51100000000E-03 0.  1.
         11   -1    0    0    0    0 -0.00000000000E+00 -0.00000000000E+00 -0.45593999997E+02  0.45594000000E+02  0.51100000000E-03 0. -1.
         23    2    1    2    0    0  0.35527136788E-14  0.35527136788E-14  0.17763568394E-14  0.91188000000E+02  0.91188000000E+02 0.  0.
    9900012    2    3    3    0    0 -0.27581353095E+02  0.21855239065E+02 -0.10834992987E+02  0.54367087652E+02  0.40000007919E+02 0.  0.
        -12    1    3    3    0    0  0.27581353095E+02 -0.21855239065E+02  0.10834992987E+02  0.36820912348E+02  0.00000000000E+00 0.  1.
         11    1    4    4    0    0 -0.57157502361E+01 -0.39284789334E+00  0.32044635734E+01  0.65645043440E+01  0.51100000000E-03 0. -1.
        -11    1    4    4    0    0 -0.12393903411E+02 -0.64954385882E+01  0.95967132119E+00  0.14025709733E+02  0.51100000000E-03 0.  1.
         12    1    4    4    0    0 -0.94716994484E+01  0.28743525546E+02 -0.14999127881E+02  0.33776873575E+02  0.00000000000E+00 0. -1.
</event>
<event>
 8    1  0.1253703E-006  0.9118800E+02  0.7816164E-02  0.1184000E+00
        -11   -1    0    0    0    0  0.00000000000E+00  0.00000000000E+00  0.45593999997E+02  0.45594000000E+02  0.51100000000E-03 0. -1.
         11   -1    0    0    0    0 -0.00000000000E+00 -0.00000000000E+00 -0.45593999997E+02  0.45594000000E+02  0.51100000000E-03 0.  1.
         23    2    1    2    0    0  0.00000000000E+00  0.00000000000E+00  0.35527136788E-14  0.91188000000E+02  0.91188000000E+02 0.  0.
    9900012    2    3    3    0    0 -0.98877169968E+01 -0.19314925359E+02  0.29748032562E+02  0.54367099273E+02  0.40000034413E+02 0.  0.
        -12    1    3    3    0    0  0.98877169968E+01  0.19314925359E+02 -0.29748032562E+02  0.36820900727E+02  0.00000000000E+00 0.  1.
         11    1    4    4    0    0  0.17406845592E+01 -0.16191233238E+01 -0.30588789302E+01  0.38740526123E+01  0.51100000000E-03 0.  1.
        -11    1    4    4    0    0 -0.55868994487E+01  0.73741609739E+01  0.65156482762E+00  0.92744936523E+01  0.51100000000E-03 0. -1.
         12    1    4    4    0    0 -0.60415021073E+01 -0.25069963009E+02  0.32155346665E+02  0.41218553008E+02  0.00000000000E+00 0. -1.
</event>
<event>
 8    1  0.1253703E-006  0.9118800E+02  0.7816164E-02  0.1184000E+00
        -11   -1    0    0    0    0  0.00000000000E+00  0.00000000000E+00  0.45593999997E+02  0.45594000000E+02  0.51100000000E-03 0.  1.
         11   -1    0    0    0    0 -0.00000000000E+00 -0.00000000000E+00 -0.45593999997E+02  0.45594000000E+02  0.51100000000E-03 0. -1.
         23    2    1    2    0    0  0.35527136788E-14  0.00000000000E+00  0.00000000000E+00  0.91188000000E+02  0.91188000000E+02 0.  0.
    9900012    2    3    3    0    0  0.26039409636E+02  0.20000035782E+02 -0.16665160359E+02  0.54367083997E+02  0.39999999588E+02 0.  0.
        -12    1    3    3    0    0 -0.26039409636E+02 -0.20000035782E+02  0.16665160359E+02  0.36820916003E+02  0.00000000000E+00 0.  1.
         11    1    4    4    0    0  0.85024561676E+01 -0.55410890475E+01 -0.13030742298E+02  0.16516527293E+02  0.51100000000E-03 0. -1.
        -11    1    4    4    0    0 -0.63533249032E+00 -0.33767253789E+01  0.40101463812E+00  0.34592968445E+01  0.51100000000E-03 0.  1.
         12    1    4    4    0    0  0.18172285959E+02  0.28917850209E+02 -0.40354326984E+01  0.34391259860E+02  0.00000000000E+00 0. -1.
</event>
<event>
 8    1  0.1253703E-006  0.9118800E+02  0.7816164E-02  0.1184000E+00
        -11   -1    0    0    0    0  0.00000000000E+00  0.00000000000E+00  0.45593999997E+02  0.45594000000E+02  0.51100000000E-03 0. -1.
         11   -1    0    0    0    0 -0.00000000000E+00 -0.00000000000E+00 -0.45593999997E+02  0.45594000000E+02  0.51100000000E-03 0.  1.
         23    2    1    2    0    0 -0.55511151231E-15  0.00000000000E+00  0.00000000000E+00  0.91188000000E+02  0.91188000000E+02 0.  0.
    9900012    2    3    3    0    0 -0.60224047993E+00  0.31517108127E+02  0.19028632078E+02  0.54367086960E+02  0.40000006343E+02 0.  0.
        -12    1    3    3    0    0  0.60224047993E+00 -0.31517108127E+02 -0.19028632078E+02  0.36820913040E+02  0.00000000000E+00 0.  1.
         11    1    4    4    0    0  0.78403972845E+01  0.18764562678E+02  0.80624972144E+01  0.21876574313E+02  0.51100000000E-03 0.  1.
        -11    1    4    4    0    0  0.12819447052E+01  0.92164907236E+01  0.17803129333E+02  0.20088267665E+02  0.51100000000E-03 0. -1.
        -12    1    4    4    0    0 -0.97245824696E+01  0.35360547259E+01 -0.68369944690E+01  0.12402244982E+02  0.00000000000E+00 0.  1.
</event>
<event>
 8    1  0.1253703E-006  0.9118800E+02  0.7816164E-02  0.1184000E+00
        -11   -1    0    0    0    0  0.00000000000E+00  0.00000000000E+00  0.45593999997E+02  0.45594000000E+02  0.51100000000E-03 0. -1.
         11   -1    0    0    0    0 -0.00000000000E+00 -0.00000000000E+00 -0.45593999997E+02  0.45594000000E+02  0.51100000000E-03 0.  1.
         23    2    1    2    0    0 -0.22204460493E-15  0.00000000000E+00  0.00000000000E+00  0.91188000000E+02  0.91188000000E+02 0.  0.
    9900012    2    3    3    0    0 -0.84245722037E+00 -0.36594020145E+02 -0.39935249632E+01  0.54367078146E+02  0.39999986250E+02 0.  0.
        -12    1    3    3    0    0  0.84245722037E+00  0.36594020145E+02  0.39935249632E+01  0.36820921854E+02  0.00000000000E+00 0.  1.
         11    1    4    4    0    0 -0.69764178038E+01 -0.13222832088E+02  0.11791445900E+02  0.19040795427E+02  0.51100000000E-03 0. -1.
        -11    1    4    4    0    0  0.63349621143E+01 -0.21191425050E+01 -0.12007001557E+02  0.13740109046E+02  0.51100000000E-03 0.  1.
         12    1    4    4    0    0 -0.20100153088E+00 -0.21252045552E+02 -0.37779693063E+01  0.21586173673E+02  0.00000000000E+00 0. -1.
</event>
<event>
 8    1  0.1253703E-006  0.9118800E+02  0.7816164E-02  0.1184000E+00
        -11   -1    0    0    0    0  0.00000000000E+00  0.00000000000E+00  0.45593999997E+02  0.45594000000E+02  0.51100000000E-03 0.  1.
         11   -1    0    0    0    0 -0.00000000000E+00 -0.00000000000E+00 -0.45593999997E+02  0.45594000000E+02  0.51100000000E-03 0. -1.
         23    2    1    2    0    0 -0.35527136788E-14  0.35527136788E-14  0.00000000000E+00  0.91188000000E+02  0.91188000000E+02 0.  0.
    9900012    2    3    3    0    0  0.20722862144E+02 -0.20756928583E+02  0.22259704979E+02  0.54367060775E+02  0.39999946648E+02 0.  0.
         12    1    3    3    0    0 -0.20722862144E+02  0.20756928583E+02 -0.22259704979E+02  0.36820939225E+02  0.00000000000E+00 0. -1.
         11    1    4    4    0    0  0.13524363822E+01 -0.56342568202E+01  0.15238700898E+02  0.16303126676E+02  0.51100000000E-03 0. -1.
        -11    1    4    4    0    0 -0.70450101372E+01 -0.55149125906E+01 -0.51856570596E+00  0.89618825794E+01  0.51100000000E-03 0.  1.
         12    1    4    4    0    0  0.26415435899E+02 -0.96077591723E+01  0.75395697868E+01  0.29102051519E+02  0.00000000000E+00 0. -1.
</event>
<event>
 8    1  0.1253703E-006  0.9118800E+02  0.7816164E-02  0.1184000E+00
        -11   -1    0    0    0    0  0.00000000000E+00  0.00000000000E+00  0.45593999997E+02  0.45594000000E+02  0.51100000000E-03 0. -1.
         11   -1    0    0    0    0 -0.00000000000E+00 -0.00000000000E+00 -0.45593999997E+02  0.45594000000E+02  0.51100000000E-03 0.  1.
         23    2    1    2    0    0 -0.17763568394E-14  0.17763568394E-14  0.00000000000E+00  0.91188000000E+02  0.91188000000E+02 0.  0.
    9900012    2    3    3    0    0  0.94640571211E+01  0.10222355388E+02  0.34083934667E+02  0.54367088425E+02  0.40000009682E+02 0.  0.
        -12    1    3    3    0    0 -0.94640571211E+01 -0.10222355388E+02 -0.34083934667E+02  0.36820911575E+02  0.00000000000E+00 0.  1.
         11    1    4    4    0    0 -0.84449068292E+01  0.17406293435E+02  0.22015935758E+02  0.29308649407E+02  0.51100000000E-03 0. -1.
        -11    1    4    4    0    0 -0.11062001614E+01 -0.19422018702E+01  0.11395147101E+01  0.25088485282E+01  0.51100000000E-03 0.  1.
         12    1    4    4    0    0  0.19015164112E+02 -0.52417361770E+01  0.10928484198E+02  0.22549590489E+02  0.00000000000E+00 0. -1.
</event>
<event>
 8    1  0.1253703E-006  0.9118800E+02  0.7816164E-02  0.1184000E+00
        -11   -1    0    0    0    0  0.00000000000E+00  0.00000000000E+00  0.45593999997E+02  0.45594000000E+02  0.51100000000E-03 0.  1.
         11   -1    0    0    0    0 -0.00000000000E+00 -0.00000000000E+00 -0.45593999997E+02  0.45594000000E+02  0.51100000000E-03 0. -1.
         23    2    1    2    0    0 -0.35527136788E-14  0.35527136788E-14  0.35527136788E-14  0.91188000000E+02  0.91188000000E+02 0.  0.
    9900012    2    3    3    0    0 -0.23945283052E+02 -0.19162688522E+02  0.20376350071E+02  0.54367070435E+02  0.39999968671E+02 0.  0.
         12    1    3    3    0    0  0.23945283052E+02  0.19162688522E+02 -0.20376350071E+02  0.36820929565E+02  0.00000000000E+00 0. -1.
         11    1    4    4    0    0 -0.34770146212E+01  0.52823066362E+01 -0.24326872459E+01  0.67757185281E+01  0.51100000000E-03 0. -1.
        -11    1    4    4    0    0 -0.12877541079E+02 -0.49463883150E+01  0.22822101127E+02  0.26667323107E+02  0.51100000000E-03 0.  1.
        -12    1    4    4    0    0 -0.75907273512E+01 -0.19498606843E+02 -0.13063809904E-01  0.20924028800E+02  0.00000000000E+00 0.  1.
</event>
<event>
 8    1  0.1253703E-006  0.9118800E+02  0.7816164E-02  0.1184000E+00
        -11   -1    0    0    0    0  0.00000000000E+00  0.00000000000E+00  0.45593999997E+02  0.45594000000E+02  0.51100000000E-03 0.  1.
         11   -1    0    0    0    0 -0.00000000000E+00 -0.00000000000E+00 -0.45593999997E+02  0.45594000000E+02  0.51100000000E-03 0. -1.
         23    2    1    2    0    0  0.35527136788E-14  0.00000000000E+00 -0.88817841970E-15  0.91188000000E+02  0.91188000000E+02 0.  0.
    9900012    2    3    3    0    0 -0.25393220937E+02 -0.25864436533E+02 -0.64803257042E+01  0.54367090614E+02  0.40000014674E+02 0.  0.
        -12    1    3    3    0    0  0.25393220937E+02  0.25864436533E+02  0.64803257042E+01  0.36820909386E+02  0.00000000000E+00 0.  1.
         11    1    4    4    0    0 -0.21107894744E+02 -0.12070793231E+02  0.99347928477E+01  0.26266849430E+02  0.51100000000E-03 0. -1.
        -11    1    4    4    0    0  0.43641023180E+01  0.10945357918E+01 -0.74106986045E+01  0.86695935147E+01  0.51100000000E-03 0.  1.
         12    1    4    4    0    0 -0.86494285109E+01 -0.14888179094E+02 -0.90044199475E+01  0.19430647670E+02  0.00000000000E+00 0. -1.
</event>
<event>
 8    1  0.1253703E-006  0.9118800E+02  0.7816164E-02  0.1184000E+00
        -11   -1    0    0    0    0  0.00000000000E+00  0.00000000000E+00  0.45593999997E+02  0.45594000000E+02  0.51100000000E-03 0.  1.
         11   -1    0    0    0    0 -0.00000000000E+00 -0.00000000000E+00 -0.45593999997E+02  0.45594000000E+02  0.51100000000E-03 0. -1.
         23    2    1    2    0    0  0.17763568394E-14  0.35527136788E-14  0.00000000000E+00  0.91188000000E+02  0.91188000000E+02 0.  0.
    9900012    2    3    3    0    0  0.14461591906E+02  0.29495854523E+02  0.16632352545E+02  0.54367106126E+02  0.40000050036E+02 0.  0.
         12    1    3    3    0    0 -0.14461591906E+02 -0.29495854523E+02 -0.16632352545E+02  0.36820893874E+02  0.00000000000E+00 0. -1.
         11    1    4    4    0    0  0.83614643598E+01  0.94341790707E+00 -0.51448357494E+01  0.98627307951E+01  0.51100000000E-03 0. -1.
        -11    1    4    4    0    0  0.17421020164E+00  0.13707272539E+02  0.24705744744E+02  0.28254088081E+02  0.51100000000E-03 0.  1.
        -12    1    4    4    0    0  0.59259173447E+01  0.14845164077E+02 -0.29285564494E+01  0.16250287250E+02  0.00000000000E+00 0.  1.
</event>
<event>
 8    1  0.1253703E-006  0.9118800E+02  0.7816164E-02  0.1184000E+00
        -11   -1    0    0    0    0  0.00000000000E+00  0.00000000000E+00  0.45593999997E+02  0.45594000000E+02  0.51100000000E-03 0.  1.
         11   -1    0    0    0    0 -0.00000000000E+00 -0.00000000000E+00 -0.45593999997E+02  0.45594000000E+02  0.51100000000E-03 0. -1.
         23    2    1    2    0    0  0.17763568394E-14  0.00000000000E+00  0.35527136788E-14  0.91188000000E+02  0.91188000000E+02 0.  0.
    9900012    2    3    3    0    0 -0.56140928155E+01 -0.25639051467E+02 -0.25824404029E+02  0.54367097761E+02  0.40000030965E+02 0.  0.
        -12    1    3    3    0    0  0.56140928155E+01  0.25639051467E+02  0.25824404029E+02  0.36820902239E+02  0.00000000000E+00 0.  1.
         11    1    4    4    0    0 -0.94662420578E+01 -0.77272597542E+01  0.19432518497E+01  0.12373217448E+02  0.51100000000E-03 0. -1.
        -11    1    4    4    0    0  0.85979333041E+01  0.14514792045E+01 -0.12360513830E+01  0.88067628710E+01  0.51100000000E-03 0.  1.
         12    1    4    4    0    0 -0.47457840619E+01 -0.19363270917E+02 -0.26531604496E+02  0.33187117442E+02  0.00000000000E+00 0. -1.
</event>
<event>
 8    1  0.1253703E-006  0.9118800E+02  0.7816164E-02  0.1184000E+00
        -11   -1    0    0    0    0  0.00000000000E+00  0.00000000000E+00  0.45593999997E+02  0.45594000000E+02  0.51100000000E-03 0.  1.
         11   -1    0    0    0    0 -0.00000000000E+00 -0.00000000000E+00 -0.45593999997E+02  0.45594000000E+02  0.51100000000E-03 0. -1.
         23    2    1    2    0    0  0.35527136788E-14  0.35527136788E-14  0.44408920985E-15  0.91188000000E+02  0.91188000000E+02 0.  0.
    9900012    2    3    3    0    0 -0.26884121063E+02  0.25044667024E+02 -0.24049435941E+01  0.54367149041E+02  0.40000147869E+02 0.  0.
        -12    1    3    3    0    0  0.26884121063E+02 -0.25044667024E+02  0.24049435941E+01  0.36820850959E+02  0.00000000000E+00 0.  1.
         11    1    4    4    0    0 -0.78294063421E+01 -0.79050579776E+01  0.44295199425E+01  0.11975399471E+02  0.51100000000E-03 0. -1.
        -11    1    4    4    0    0 -0.58977375960E+00  0.13172878608E+00  0.33329145305E+01  0.33872562775E+01  0.51100000000E-03 0.  1.
         12    1    4    4    0    0 -0.18464940961E+02  0.32817996215E+02 -0.10167378067E+02  0.39004493293E+02  0.00000000000E+00 0. -1.
</event>
<event>
 8    1  0.1253703E-006  0.9118800E+02  0.7816164E-02  0.1184000E+00
        -11   -1    0    0    0    0  0.00000000000E+00  0.00000000000E+00  0.45593999997E+02  0.45594000000E+02  0.51100000000E-03 0. -1.
         11   -1    0    0    0    0 -0.00000000000E+00 -0.00000000000E+00 -0.45593999997E+02  0.45594000000E+02  0.51100000000E-03 0.  1.
         23    2    1    2    0    0  0.35527136788E-14  0.00000000000E+00  0.00000000000E+00  0.91188000000E+02  0.91188000000E+02 0.  0.
    9900012    2    3    3    0    0  0.25853733904E+02  0.11133750743E+02 -0.23736146497E+02  0.54367073709E+02  0.39999976134E+02 0.  0.
         12    1    3    3    0    0 -0.25853733904E+02 -0.11133750743E+02  0.23736146497E+02  0.36820926291E+02  0.00000000000E+00 0. -1.
         11    1    4    4    0    0  0.26945617689E+02  0.65928458485E+01 -0.10469844787E+02  0.29650456643E+02  0.51100000000E-03 0. -1.
        -11    1    4    4    0    0 -0.11940890808E+01  0.12614027541E+02 -0.93264822631E+01  0.15732857694E+02  0.51100000000E-03 0.  1.
        -12    1    4    4    0    0  0.10220529602E+00 -0.80731226463E+01 -0.39398194475E+01  0.89837593725E+01  0.00000000000E+00 0.  1.
</event>
<event>
 8    1  0.1253703E-006  0.9118800E+02  0.7816164E-02  0.1184000E+00
        -11   -1    0    0    0    0  0.00000000000E+00  0.00000000000E+00  0.45593999997E+02  0.45594000000E+02  0.51100000000E-03 0.  1.
         11   -1    0    0    0    0 -0.00000000000E+00 -0.00000000000E+00 -0.45593999997E+02  0.45594000000E+02  0.51100000000E-03 0. -1.
         23    2    1    2    0    0 -0.17763568394E-14  0.35527136788E-14 -0.35527136788E-14  0.91188000000E+02  0.91188000000E+02 0.  0.
    9900012    2    3    3    0    0  0.15382448214E+02  0.22236040116E+02  0.24994369514E+02  0.54367086099E+02  0.40000004380E+02 0.  0.
         12    1    3    3    0    0 -0.15382448214E+02 -0.22236040116E+02 -0.24994369514E+02  0.36820913901E+02  0.00000000000E+00 0. -1.
         11    1    4    4    0    0 -0.38911204640E+01  0.18626201650E+01  0.32631272311E+01  0.54090823558E+01  0.51100000000E-03 0. -1.
        -11    1    4    4    0    0  0.15925558321E+02  0.28165567401E+01  0.25965315960E+02  0.30590096974E+02  0.51100000000E-03 0.  1.
         12    1    4    4    0    0  0.33480103566E+01  0.17556863211E+02 -0.42340736777E+01  0.18367906769E+02  0.00000000000E+00 0. -1.
</event>
<event>
 8    1  0.1253703E-006  0.9118800E+02  0.7816164E-02  0.1184000E+00
        -11   -1    0    0    0    0  0.00000000000E+00  0.00000000000E+00  0.45593999997E+02  0.45594000000E+02  0.51100000000E-03 0.  1.
         11   -1    0    0    0    0 -0.00000000000E+00 -0.00000000000E+00 -0.45593999997E+02  0.45594000000E+02  0.51100000000E-03 0. -1.
         23    2    1    2    0    0  0.35527136788E-14  0.00000000000E+00 -0.17763568394E-14  0.91188000000E+02  0.91188000000E+02 0.  0.
    9900012    2    3    3    0    0  0.30680422259E+02  0.12925535013E+02 -0.15729644174E+02  0.54367089213E+02  0.40000011479E+02 0.  0.
         12    1    3    3    0    0 -0.30680422259E+02 -0.12925535013E+02  0.15729644174E+02  0.36820910787E+02  0.00000000000E+00 0. -1.
         11    1    4    4    0    0 -0.30409630043E+01  0.98630566172E+01 -0.12623842028E+02  0.16306094862E+02  0.51100000000E-03 0. -1.
        -11    1    4    4    0    0  0.43384362281E+01 -0.35132747387E+01 -0.55248067713E+01  0.78542102350E+01  0.51100000000E-03 0.  1.
        -12    1    4    4    0    0  0.29382949035E+02  0.65757531341E+01  0.24190046255E+01  0.30206784116E+02  0.00000000000E+00 0.  1.
</event>
<event>
 8    1  0.1253703E-006  0.9118800E+02  0.7816164E-02  0.1184000E+00
        -11   -1    0    0    0    0  0.00000000000E+00  0.00000000000E+00  0.45593999997E+02  0.45594000000E+02  0.51100000000E-03 0. -1.
         11   -1    0    0    0    0 -0.00000000000E+00 -0.00000000000E+00 -0.45593999997E+02  0.45594000000E+02  0.51100000000E-03 0.  1.
         23    2    1    2    0    0  0.00000000000E+00 -0.22204460493E-15  0.00000000000E+00  0.91188000000E+02  0.91188000000E+02 0.  0.
    9900012    2    3    3    0    0  0.20233140635E+02  0.54139508786E+00  0.30758842389E+02  0.54367089179E+02  0.40000011401E+02 0.  0.
        -12    1    3    3    0    0 -0.20233140635E+02 -0.54139508786E+00 -0.30758842389E+02  0.36820910821E+02  0.00000000000E+00 0.  1.
         11    1    4    4    0    0  0.78804564584E+01 -0.63932091176E+00 -0.15006810864E+01  0.80475070181E+01  0.51100000000E-03 0.  1.
        -11    1    4    4    0    0  0.10731154885E+02 -0.27793538520E+01  0.37758324535E+02  0.39351919457E+02  0.51100000000E-03 0. -1.
        -12    1    4    4    0    0  0.16215292906E+01  0.39600698516E+01 -0.54988010589E+01  0.69676627039E+01  0.00000000000E+00 0.  1.
</event>
<event>
 8    1  0.1253703E-006  0.9118800E+02  0.7816164E-02  0.1184000E+00
        -11   -1    0    0    0    0  0.00000000000E+00  0.00000000000E+00  0.45593999997E+02  0.45594000000E+02  0.51100000000E-03 0.  1.
         11   -1    0    0    0    0 -0.00000000000E+00 -0.00000000000E+00 -0.45593999997E+02  0.45594000000E+02  0.51100000000E-03 0. -1.
         23    2    1    2    0    0 -0.22204460493E-15  0.71054273576E-14  0.44408920985E-15  0.91188000000E+02  0.91188000000E+02 0.  0.
    9900012    2    3    3    0    0 -0.10152711816E+01 -0.36724671602E+02 -0.24590935139E+01  0.54367089898E+02  0.40000013041E+02 0.  0.
         12    1    3    3    0    0  0.10152711816E+01  0.36724671602E+02  0.24590935139E+01  0.36820910102E+02  0.00000000000E+00 0. -1.
         11    1    4    4    0    0  0.67193849467E+01 -0.96570283600E+01  0.23588255618E+01  0.11998849491E+02  0.51100000000E-03 0. -1.
        -11    1    4    4    0    0  0.75705149699E+01 -0.19164303271E+02 -0.11841991921E+02  0.23765857647E+02  0.51100000000E-03 0.  1.
        -12    1    4    4    0    0 -0.15305171098E+02 -0.79033399703E+01  0.70240728453E+01  0.18602382760E+02  0.00000000000E+00 0.  1.
</event>
<event>
 8    1  0.1253703E-006  0.9118800E+02  0.7816164E-02  0.1184000E+00
        -11   -1    0    0    0    0  0.00000000000E+00  0.00000000000E+00  0.45593999997E+02  0.45594000000E+02  0.51100000000E-03 0.  1.
         11   -1    0    0    0    0 -0.00000000000E+00 -0.00000000000E+00 -0.45593999997E+02  0.45594000000E+02  0.51100000000E-03 0. -1.
         23    2    1    2    0    0  0.00000000000E+00  0.26645352591E-14 -0.17763568394E-14  0.91188000000E+02  0.91188000000E+02 0.  0.
    9900012    2    3    3    0    0 -0.34196283902E+02  0.66787296658E+01 -0.11907512682E+02  0.54367080390E+02  0.39999991366E+02 0.  0.
        -12    1    3    3    0    0  0.34196283902E+02 -0.66787296658E+01  0.11907512682E+02  0.36820919610E+02  0.00000000000E+00 0.  1.
         11    1    4    4    0    0  0.25583010141E+01 -0.62415515585E+01 -0.11985235210E+01  0.68511552914E+01  0.51100000000E-03 0. -1.
        -11    1    4    4    0    0 -0.96211766667E+01 -0.40873714521E+01  0.52932019078E+01  0.11717151213E+02  0.51100000000E-03 0.  1.
        -12    1    4    4    0    0 -0.27133408249E+02  0.17007652676E+02 -0.16002191069E+02  0.35798773886E+02  0.00000000000E+00 0.  1.
</event>
<event>
 8    1  0.1253703E-006  0.9118800E+02  0.7816164E-02  0.1184000E+00
        -11   -1    0    0    0    0  0.00000000000E+00  0.00000000000E+00  0.45593999997E+02  0.45594000000E+02  0.51100000000E-03 0.  1.
         11   -1    0    0    0    0 -0.00000000000E+00 -0.00000000000E+00 -0.45593999997E+02  0.45594000000E+02  0.51100000000E-03 0. -1.
         23    2    1    2    0    0  0.00000000000E+00  0.00000000000E+00  0.00000000000E+00  0.91188000000E+02  0.91188000000E+02 0.  0.
    9900012    2    3    3    0    0  0.30590943234E+02  0.17879877928E+02 -0.10014252445E+02  0.54367067167E+02  0.39999961221E+02 0.  0.
         12    1    3    3    0    0 -0.30590943234E+02 -0.17879877928E+02  0.10014252445E+02  0.36820932833E+02  0.00000000000E+00 0. -1.
         11    1    4    4    0    0  0.46158587698E+01 -0.12357373969E+01 -0.59683326762E+01  0.76455342711E+01  0.51100000000E-03 0. -1.
        -11    1    4    4    0    0  0.23707551281E+02  0.32867115961E+01 -0.14151964736E+02  0.27805189569E+02  0.51100000000E-03 0.  1.
        -12    1    4    4    0    0  0.22675331833E+01  0.15828903728E+02  0.10106044967E+02  0.18916343327E+02  0.00000000000E+00 0.  1.
</event>
<event>
 8    1  0.1253703E-006  0.9118800E+02  0.7816164E-02  0.1184000E+00
        -11   -1    0    0    0    0  0.00000000000E+00  0.00000000000E+00  0.45593999997E+02  0.45594000000E+02  0.51100000000E-03 0. -1.
         11   -1    0    0    0    0 -0.00000000000E+00 -0.00000000000E+00 -0.45593999997E+02  0.45594000000E+02  0.51100000000E-03 0.  1.
         23    2    1    2    0    0 -0.35527136788E-14 -0.44408920985E-15 -0.71054273576E-14  0.91188000000E+02  0.91188000000E+02 0.  0.
    9900012    2    3    3    0    0  0.17854059881E+02  0.31975780892E+01  0.32043524773E+02  0.54367089640E+02  0.40000012453E+02 0.  0.
        -12    1    3    3    0    0 -0.17854059881E+02 -0.31975780892E+01 -0.32043524773E+02  0.36820910360E+02  0.00000000000E+00 0.  1.
         11    1    4    4    0    0  0.21865034335E+02  0.53763433795E+01  0.77880587589E+01  0.23825168501E+02  0.51100000000E-03 0. -1.
        -11    1    4    4    0    0 -0.60818260074E+01 -0.24410310777E+01  0.36833281295E+00  0.65637572799E+01  0.51100000000E-03 0.  1.
         12    1    4    4    0    0  0.20708515530E+01  0.26226578747E+00  0.23887133201E+02  0.23978163859E+02  0.00000000000E+00 0. -1.
</event>
<event>
 8    1  0.1253703E-006  0.9118800E+02  0.7816164E-02  0.1184000E+00
        -11   -1    0    0    0    0  0.00000000000E+00  0.00000000000E+00  0.45593999997E+02  0.45594000000E+02  0.51100000000E-03 0. -1.
         11   -1    0    0    0    0 -0.00000000000E+00 -0.00000000000E+00 -0.45593999997E+02  0.45594000000E+02  0.51100000000E-03 0.  1.
         23    2    1    2    0    0  0.17763568394E-14  0.00000000000E+00  0.00000000000E+00  0.91188000000E+02  0.91188000000E+02 0.  0.
    9900012    2    3    3    0    0 -0.11537451404E+02  0.12642467291E+02 -0.32601120866E+02  0.54367111284E+02  0.40000061794E+02 0.  0.
         12    1    3    3    0    0  0.11537451404E+02 -0.12642467291E+02  0.32601120866E+02  0.36820888716E+02  0.00000000000E+00 0. -1.
         11    1    4    4    0    0 -0.84609504599E+01 -0.79085059531E+01 -0.97138635988E+01  0.15115928532E+02  0.51100000000E-03 0. -1.
        -11    1    4    4    0    0 -0.11902999352E+02  0.16635804972E+02 -0.90263899519E+01  0.22358602740E+02  0.51100000000E-03 0.  1.
        -12    1    4    4    0    0  0.88264984080E+01  0.39151682719E+01 -0.13860867316E+02  0.16892580013E+02  0.00000000000E+00 0.  1.
</event>
<event>
 8    1  0.1253703E-006  0.9118800E+02  0.7816164E-02  0.1184000E+00
        -11   -1    0    0    0    0  0.00000000000E+00  0.00000000000E+00  0.45593999997E+02  0.45594000000E+02  0.51100000000E-03 0.  1.
         11   -1    0    0    0    0 -0.00000000000E+00 -0.00000000000E+00 -0.45593999997E+02  0.45594000000E+02  0.51100000000E-03 0. -1.
         23    2    1    2    0    0  0.00000000000E+00 -0.35527136788E-14  0.35527136788E-14  0.91188000000E+02  0.91188000000E+02 0.  0.
    9900012    2    3    3    0    0 -0.82061234091E+01 -0.23375205338E+02  0.27240395357E+02  0.54367084406E+02  0.40000000520E+02 0.  0.
         12    1    3    3    0    0  0.82061234091E+01  0.23375205338E+02 -0.27240395357E+02  0.36820915594E+02  0.00000000000E+00 0. -1.
         11    1    4    4    0    0 -0.18996050525E+02 -0.89410349981E+01  0.10905502347E+02  0.23658445090E+02  0.51100000000E-03 0. -1.
        -11    1    4    4    0    0 -0.47535419572E+01 -0.29075894005E+01  0.77339960006E+01  0.95323098806E+01  0.51100000000E-03 0.  1.
        -12    1    4    4    0    0  0.15543469073E+02 -0.11526580939E+02  0.86008970088E+01  0.21176329435E+02  0.00000000000E+00 0.  1.
</event>
<event>
 8    1  0.1253703E-006  0.9118800E+02  0.7816164E-02  0.1184000E+00
        -11   -1    0    0    0    0  0.00000000000E+00  0.00000000000E+00  0.45593999997E+02  0.45594000000E+02  0.51100000000E-03 0. -1.
         11   -1    0    0    0    0 -0.00000000000E+00 -0.00000000000E+00 -0.45593999997E+02  0.45594000000E+02  0.51100000000E-03 0.  1.
         23    2    1    2    0    0 -0.55511151231E-15 -0.35527136788E-14  0.35527136788E-14  0.91188000000E+02  0.91188000000E+02 0.  0.
    9900012    2    3    3    0    0 -0.63453826359E+00 -0.30657581992E+02  0.20383525387E+02  0.54367108110E+02  0.40000054558E+02 0.  0.
        -12    1    3    3    0    0  0.63453826359E+00  0.30657581992E+02 -0.20383525387E+02  0.36820891890E+02  0.00000000000E+00 0.  1.
         11    1    4    4    0    0  0.58806704522E-01 -0.35253464859E+02  0.12219319898E+02  0.37311151441E+02  0.51100000000E-03 0. -1.
        -11    1    4    4    0    0  0.66940206069E+01  0.10399598278E+01  0.35530497434E+01  0.76495484226E+01  0.51100000000E-03 0.  1.
         12    1    4    4    0    0 -0.73873655751E+01  0.35559230390E+01  0.46111557448E+01  0.94064082466E+01  0.00000000000E+00 0. -1.
</event>
<event>
 8    1  0.1253703E-006  0.9118800E+02  0.7816164E-02  0.1184000E+00
        -11   -1    0    0    0    0  0.00000000000E+00  0.00000000000E+00  0.45593999997E+02  0.45594000000E+02  0.51100000000E-03 0.  1.
         11   -1    0    0    0    0 -0.00000000000E+00 -0.00000000000E+00 -0.45593999997E+02  0.45594000000E+02  0.51100000000E-03 0. -1.
         23    2    1    2    0    0 -0.53290705182E-14  0.00000000000E+00  0.00000000000E+00  0.91188000000E+02  0.91188000000E+02 0.  0.
    9900012    2    3    3    0    0 -0.10449461227E+02 -0.19717246094E+02  0.29288548075E+02  0.54367080921E+02  0.39999992576E+02 0.  0.
         12    1    3    3    0    0  0.10449461227E+02  0.19717246094E+02 -0.29288548075E+02  0.36820919079E+02  0.00000000000E+00 0. -1.
         11    1    4    4    0    0 -0.22707564931E+01 -0.10612548378E+02  0.21690593211E+01  0.11067399727E+02  0.51100000000E-03 0. -1.
        -11    1    4    4    0    0  0.85249418395E+01 -0.13583674596E+02  0.96428277944E+01  0.18712962808E+02  0.51100000000E-03 0.  1.
        -12    1    4    4    0    0 -0.16703646573E+02  0.44789768800E+01  0.17476660959E+02  0.24586718387E+02  0.00000000000E+00 0.  1.
</event>
<event>
 8    1  0.1253703E-006  0.9118800E+02  0.7816164E-02  0.1184000E+00
        -11   -1    0    0    0    0  0.00000000000E+00  0.00000000000E+00  0.45593999997E+02  0.45594000000E+02  0.51100000000E-03 0. -1.
         11   -1    0    0    0    0 -0.00000000000E+00 -0.00000000000E+00 -0.45593999997E+02  0.45594000000E+02  0.51100000000E-03 0.  1.
         23    2    1    2    0    0  0.17763568394E-14 -0.71054273576E-14  0.13322676296E-14  0.91188000000E+02  0.91188000000E+02 0.  0.
    9900012    2    3    3    0    0  0.40005776851E+01 -0.36560319716E+02 -0.17659207416E+01  0.54367081006E+02  0.39999992769E+02 0.  0.
        -12    1    3    3    0    0 -0.40005776851E+01  0.36560319716E+02  0.17659207416E+01  0.36820918994E+02  0.00000000000E+00 0.  1.
         11    1    4    4    0    0 -0.78165453098E+01 -0.62085213439E+01 -0.79704907338E+01  0.12773912504E+02  0.51100000000E-03 0. -1.
        -11    1    4    4    0    0 -0.39150847537E+01 -0.15135119280E+02 -0.57461384835E+01  0.16655864792E+02  0.51100000000E-03 0.  1.
         12    1    4    4    0    0  0.15732207749E+02 -0.15216679092E+02  0.11950708476E+02  0.24937303710E+02  0.00000000000E+00 0. -1.
</event>
<event>
 8    1  0.1253703E-006  0.9118800E+02  0.7816164E-02  0.1184000E+00
        -11   -1    0    0    0    0  0.00000000000E+00  0.00000000000E+00  0.45593999997E+02  0.45594000000E+02  0.51100000000E-03 0.  1.
         11   -1    0    0    0    0 -0.00000000000E+00 -0.00000000000E+00 -0.45593999997E+02  0.45594000000E+02  0.51100000000E-03 0. -1.
         23    2    1    2    0    0  0.00000000000E+00  0.00000000000E+00  0.00000000000E+00  0.91188000000E+02  0.91188000000E+02 0.  0.
    9900012    2    3    3    0    0  0.24159372932E+02  0.99513852785E+01  0.25943677221E+02  0.54367085330E+02  0.40000002626E+02 0.  0.
         12    1    3    3    0    0 -0.24159372932E+02 -0.99513852785E+01 -0.25943677221E+02  0.36820914670E+02  0.00000000000E+00 0. -1.
         11    1    4    4    0    0 -0.72421244180E+00  0.38769073047E+01  0.24452713261E+01  0.46405006227E+01  0.51100000000E-03 0. -1.
        -11    1    4    4    0    0  0.28048363384E+02  0.13269180980E+02  0.26991171573E+02  0.41125481098E+02  0.51100000000E-03 0.  1.
        -12    1    4    4    0    0 -0.31647780106E+01 -0.71947030065E+01 -0.34927656778E+01  0.86011036087E+01  0.00000000000E+00 0.  1.
</event>
<event>
 8    1  0.1253703E-006  0.9118800E+02  0.7816164E-02  0.1184000E+00
        -11   -1    0    0    0    0  0.00000000000E+00  0.00000000000E+00  0.45593999997E+02  0.45594000000E+02  0.51100000000E-03 0. -1.
         11   -1    0    0    0    0 -0.00000000000E+00 -0.00000000000E+00 -0.45593999997E+02  0.45594000000E+02  0.51100000000E-03 0.  1.
         23    2    1    2    0    0  0.00000000000E+00  0.00000000000E+00  0.00000000000E+00  0.91188000000E+02  0.91188000000E+02 0.  0.
    9900012    2    3    3    0    0  0.79620693988E+01 -0.30075647812E+02  0.19693685867E+02  0.54367076554E+02  0.39999982619E+02 0.  0.
        -12    1    3    3    0    0 -0.79620693988E+01  0.30075647812E+02 -0.19693685867E+02  0.36820923446E+02  0.00000000000E+00 0.  1.
         11    1    4    4    0    0 -0.31273948177E+01 -0.27090160613E+02  0.21329736614E+02  0.34621020561E+02  0.51100000000E-03 0. -1.
        -11    1    4    4    0    0  0.14335219009E+02 -0.11839132875E+01  0.20325673697E+01  0.14526922767E+02  0.51100000000E-03 0.  1.
         12    1    4    4    0    0 -0.32457547925E+01 -0.18015739115E+01 -0.36686181174E+01  0.52191332253E+01  0.00000000000E+00 0. -1.
</event>
<event>
 8    1  0.1253703E-006  0.9118800E+02  0.7816164E-02  0.1184000E+00
        -11   -1    0    0    0    0  0.00000000000E+00  0.00000000000E+00  0.45593999997E+02  0.45594000000E+02  0.51100000000E-03 0. -1.
         11   -1    0    0    0    0 -0.00000000000E+00 -0.00000000000E+00 -0.45593999997E+02  0.45594000000E+02  0.51100000000E-03 0.  1.
         23    2    1    2    0    0 -0.35527136788E-14 -0.17763568394E-14  0.00000000000E+00  0.91188000000E+02  0.91188000000E+02 0.  0.
    9900012    2    3    3    0    0  0.19429430174E+02  0.10583436968E+02  0.29432444741E+02  0.54367072549E+02  0.39999973490E+02 0.  0.
        -12    1    3    3    0    0 -0.19429430174E+02 -0.10583436968E+02 -0.29432444741E+02  0.36820927451E+02  0.00000000000E+00 0.  1.
         11    1    4    4    0    0  0.14684191537E+02  0.24019488491E+01  0.50776208148E+01  0.15721866071E+02  0.51100000000E-03 0. -1.
        -11    1    4    4    0    0  0.12960937989E+02  0.11627456251E+02  0.63088520185E+01  0.18519861405E+02  0.51100000000E-03 0.  1.
         12    1    4    4    0    0 -0.82156993519E+01 -0.34459681320E+01  0.18045971908E+02  0.20125345073E+02  0.00000000000E+00 0. -1.
</event>
<event>
 8    1  0.1253703E-006  0.9118800E+02  0.7816164E-02  0.1184000E+00
        -11   -1    0    0    0    0  0.00000000000E+00  0.00000000000E+00  0.45593999997E+02  0.45594000000E+02  0.51100000000E-03 0.  1.
         11   -1    0    0    0    0 -0.00000000000E+00 -0.00000000000E+00 -0.45593999997E+02  0.45594000000E+02  0.51100000000E-03 0. -1.
         23    2    1    2    0    0  0.35527136788E-14 -0.35527136788E-14  0.35527136788E-14  0.91188000000E+02  0.91188000000E+02 0.  0.
    9900012    2    3    3    0    0  0.19029441915E+02 -0.24495248158E+02  0.19840439810E+02  0.54367083475E+02  0.39999998397E+02 0.  0.
         12    1    3    3    0    0 -0.19029441915E+02  0.24495248158E+02 -0.19840439810E+02  0.36820916525E+02  0.00000000000E+00 0. -1.
         11    1    4    4    0    0  0.12486153523E+02 -0.29249470072E+01  0.11818876203E+00  0.12824714954E+02  0.51100000000E-03 0. -1.
        -11    1    4    4    0    0 -0.70199354077E+01 -0.15187966327E+02 -0.48045775922E-01  0.16731889402E+02  0.51100000000E-03 0.  1.
        -12    1    4    4    0    0  0.13563223800E+02 -0.63823348233E+01  0.19770296824E+02  0.24810479119E+02  0.00000000000E+00 0.  1.
</event>
<event>
 8    1  0.1253703E-006  0.9118800E+02  0.7816164E-02  0.1184000E+00
        -11   -1    0    0    0    0  0.00000000000E+00  0.00000000000E+00  0.45593999997E+02  0.45594000000E+02  0.51100000000E-03 0.  1.
         11   -1    0    0    0    0 -0.00000000000E+00 -0.00000000000E+00 -0.45593999997E+02  0.45594000000E+02  0.51100000000E-03 0. -1.
         23    2    1    2    0    0  0.00000000000E+00  0.11102230246E-14 -0.88817841970E-15  0.91188000000E+02  0.91188000000E+02 0.  0.
    9900012    2    3    3    0    0  0.36124143592E+02 -0.12151611757E+01  0.70249452338E+01  0.54367079011E+02  0.39999988222E+02 0.  0.
         12    1    3    3    0    0 -0.36124143592E+02  0.12151611757E+01 -0.70249452338E+01  0.36820920989E+02  0.00000000000E+00 0. -1.
         11    1    4    4    0    0  0.63412779563E+01 -0.75458519282E+01  0.74886104591E+01  0.12378649939E+02  0.51100000000E-03 0. -1.
        -11    1    4    4    0    0  0.21361271387E+02 -0.48180064076E+01 -0.10984311338E+02  0.24498412129E+02  0.51100000000E-03 0.  1.
        -12    1    4    4    0    0  0.84215942484E+01  0.11148697160E+02  0.10520646112E+02  0.17490016943E+02  0.00000000000E+00 0.  1.
</event>
<event>
 8    1  0.1253703E-006  0.9118800E+02  0.7816164E-02  0.1184000E+00
        -11   -1    0    0    0    0  0.00000000000E+00  0.00000000000E+00  0.45593999997E+02  0.45594000000E+02  0.51100000000E-03 0.  1.
         11   -1    0    0    0    0 -0.00000000000E+00 -0.00000000000E+00 -0.45593999997E+02  0.45594000000E+02  0.51100000000E-03 0. -1.
         23    2    1    2    0    0  0.00000000000E+00  0.13322676296E-14 -0.35527136788E-14  0.91188000000E+02  0.91188000000E+02 0.  0.
    9900012    2    3    3    0    0 -0.30400544011E+02  0.15501311002E+01 -0.20716704360E+02  0.54367111605E+02  0.40000062527E+02 0.  0.
        -12    1    3    3    0    0  0.30400544011E+02 -0.15501311002E+01  0.20716704360E+02  0.36820888395E+02  0.00000000000E+00 0.  1.
         11    1    4    4    0    0 -0.16445847409E+02 -0.15846440024E+02 -0.19883872899E+02  0.30281082546E+02  0.51100000000E-03 0. -1.
        -11    1    4    4    0    0 -0.46209024319E+01  0.10278956900E+02 -0.39485777945E+01  0.11941564433E+02  0.51100000000E-03 0.  1.
         12    1    4    4    0    0 -0.93337941704E+01  0.71176142240E+01  0.31157463331E+01  0.12144464627E+02  0.00000000000E+00 0. -1.
</event>
<event>
 8    1  0.1253703E-006  0.9118800E+02  0.7816164E-02  0.1184000E+00
        -11   -1    0    0    0    0  0.00000000000E+00  0.00000000000E+00  0.45593999997E+02  0.45594000000E+02  0.51100000000E-03 0.  1.
         11   -1    0    0    0    0 -0.00000000000E+00 -0.00000000000E+00 -0.45593999997E+02  0.45594000000E+02  0.51100000000E-03 0. -1.
         23    2    1    2    0    0  0.00000000000E+00  0.35527136788E-14  0.00000000000E+00  0.91188000000E+02  0.91188000000E+02 0.  0.
    9900012    2    3    3    0    0 -0.50928996839E+01 -0.22272503456E+02  0.28875217678E+02  0.54367078863E+02  0.39999987885E+02 0.  0.
         12    1    3    3    0    0  0.50928996839E+01  0.22272503456E+02 -0.28875217678E+02  0.36820921137E+02  0.00000000000E+00 0. -1.
         11    1    4    4    0    0  0.16680378349E+02 -0.15858305534E+02  0.12637754043E+02  0.26257069596E+02  0.51100000000E-03 0. -1.
        -11    1    4    4    0    0 -0.14941828253E+02 -0.46832243672E+01  0.13013212280E+02  0.20360120729E+02  0.51100000000E-03 0.  1.
         12    1    4    4    0    0 -0.68314497802E+01 -0.17309735549E+01  0.32242513557E+01  0.77498885381E+01  0.00000000000E+00 0. -1.
</event>
<event>
 8    1  0.1253703E-006  0.9118800E+02  0.7816164E-02  0.1184000E+00
        -11   -1    0    0    0    0  0.00000000000E+00  0.00000000000E+00  0.45593999997E+02  0.45594000000E+02  0.51100000000E-03 0.  1.
         11   -1    0    0    0    0 -0.00000000000E+00 -0.00000000000E+00 -0.45593999997E+02  0.45594000000E+02  0.51100000000E-03 0. -1.
         23    2    1    2    0    0  0.00000000000E+00  0.17763568394E-14  0.00000000000E+00  0.91188000000E+02  0.91188000000E+02 0.  0.
    9900012    2    3    3    0    0 -0.33631395555E+02  0.14912655976E+02 -0.15246884743E+01  0.54367044687E+02  0.39999909972E+02 0.  0.
         12    1    3    3    0    0  0.33631395555E+02 -0.14912655976E+02  0.15246884743E+01  0.36820955313E+02  0.00000000000E+00 0. -1.
         11    1    4    4    0    0  0.45244901322E+01 -0.18232365629E+01  0.22937578788E+00  0.48834225737E+01  0.51100000000E-03 0. -1.
        -11    1    4    4    0    0 -0.12085827859E+02 -0.25471845154E+01 -0.10151013829E+02  0.15987447139E+02  0.51100000000E-03 0.  1.
        -12    1    4    4    0    0 -0.26070057828E+02  0.19283077054E+02  0.83969495672E+01  0.33496174974E+02  0.00000000000E+00 0.  1.
</event>
<event>
 8    1  0.1253703E-006  0.9118800E+02  0.7816164E-02  0.1184000E+00
        -11   -1    0    0    0    0  0.00000000000E+00  0.00000000000E+00  0.45593999997E+02  0.45594000000E+02  0.51100000000E-03 0. -1.
         11   -1    0    0    0    0 -0.00000000000E+00 -0.00000000000E+00 -0.45593999997E+02  0.45594000000E+02  0.51100000000E-03 0.  1.
         23    2    1    2    0    0  0.00000000000E+00  0.44408920985E-15  0.00000000000E+00  0.91188000000E+02  0.91188000000E+02 0.  0.
    9900012    2    3    3    0    0 -0.23090721373E+02 -0.37627027226E+01  0.28433084392E+02  0.54367087011E+02  0.40000006459E+02 0.  0.
        -12    1    3    3    0    0  0.23090721373E+02  0.37627027226E+01 -0.28433084392E+02  0.36820912989E+02  0.00000000000E+00 0.  1.
         11    1    4    4    0    0 -0.28492514071E+02 -0.93943437298E+01  0.26523680350E+02  0.40044758356E+02  0.51100000000E-03 0. -1.
        -11    1    4    4    0    0  0.18224185778E+01  0.61340501172E+01  0.60637412529E+01  0.88157097591E+01  0.51100000000E-03 0.  1.
         12    1    4    4    0    0  0.35793741204E+01 -0.50240911002E+00 -0.41543372110E+01  0.55066188964E+01  0.00000000000E+00 0. -1.
</event>
<event>
 8    1  0.1253703E-006  0.9118800E+02  0.7816164E-02  0.1184000E+00
        -11   -1    0    0    0    0  0.00000000000E+00  0.00000000000E+00  0.45593999997E+02  0.45594000000E+02  0.51100000000E-03 0. -1.
         11   -1    0    0    0    0 -0.00000000000E+00 -0.00000000000E+00 -0.45593999997E+02  0.45594000000E+02  0.51100000000E-03 0.  1.
         23    2    1    2    0    0  0.00000000000E+00 -0.17763568394E-14  0.00000000000E+00  0.91188000000E+02  0.91188000000E+02 0.  0.
    9900012    2    3    3    0    0 -0.33306678248E+02  0.14903798022E+02  0.49317053075E+01  0.54367085717E+02  0.40000003508E+02 0.  0.
        -12    1    3    3    0    0  0.33306678248E+02 -0.14903798022E+02 -0.49317053075E+01  0.36820914283E+02  0.00000000000E+00 0.  1.
         11    1    4    4    0    0 -0.20741958397E+02  0.50285063177E+01  0.61843613703E+01  0.22220734456E+02  0.51100000000E-03 0. -1.
        -11    1    4    4    0    0 -0.12524508213E+02 -0.42971582009E+01 -0.89848788320E+01  0.16001778728E+02  0.51100000000E-03 0.  1.
        -12    1    4    4    0    0 -0.40211637825E-01  0.14172449905E+02  0.77322227692E+01  0.16144572532E+02  0.00000000000E+00 0.  1.
</event>
<event>
 8    1  0.1253703E-006  0.9118800E+02  0.7816164E-02  0.1184000E+00
        -11   -1    0    0    0    0  0.00000000000E+00  0.00000000000E+00  0.45593999997E+02  0.45594000000E+02  0.51100000000E-03 0.  1.
         11   -1    0    0    0    0 -0.00000000000E+00 -0.00000000000E+00 -0.45593999997E+02  0.45594000000E+02  0.51100000000E-03 0. -1.
         23    2    1    2    0    0  0.00000000000E+00  0.17763568394E-14  0.00000000000E+00  0.91188000000E+02  0.91188000000E+02 0.  0.
    9900012    2    3    3    0    0  0.25173147653E+02 -0.77397027184E+01 -0.25733038249E+02  0.54367087214E+02  0.40000006921E+02 0.  0.
        -12    1    3    3    0    0 -0.25173147653E+02  0.77397027184E+01  0.25733038249E+02  0.36820912786E+02  0.00000000000E+00 0.  1.
         11    1    4    4    0    0  0.12171923269E+02 -0.60344742923E+01 -0.18584831810E+02  0.23021002795E+02  0.51100000000E-03 0. -1.
        -11    1    4    4    0    0  0.13860805996E+02  0.70009142518E+00 -0.16552622649E+02  0.21600958027E+02  0.51100000000E-03 0.  1.
        -12    1    4    4    0    0 -0.85958161215E+00 -0.24053198512E+01  0.94044162098E+01  0.97451263913E+01  0.00000000000E+00 0.  1.
</event>
<event>
 8    1  0.1253703E-006  0.9118800E+02  0.7816164E-02  0.1184000E+00
        -11   -1    0    0    0    0  0.00000000000E+00  0.00000000000E+00  0.45593999997E+02  0.45594000000E+02  0.51100000000E-03 0.  1.
         11   -1    0    0    0    0 -0.00000000000E+00 -0.00000000000E+00 -0.45593999997E+02  0.45594000000E+02  0.51100000000E-03 0. -1.
         23    2    1    2    0    0 -0.22204460493E-15  0.44408920985E-15 -0.71054273576E-14  0.91188000000E+02  0.91188000000E+02 0.  0.
    9900012    2    3    3    0    0 -0.10962401669E+01 -0.34186752427E+01 -0.36645480104E+02  0.54367078027E+02  0.39999985978E+02 0.  0.
        -12    1    3    3    0    0  0.10962401669E+01  0.34186752427E+01  0.36645480104E+02  0.36820921973E+02  0.00000000000E+00 0.  1.
         11    1    4    4    0    0  0.32981864186E+01  0.17529934823E+02 -0.11596278901E+02  0.21275580677E+02  0.51100000000E-03 0. -1.
        -11    1    4    4    0    0 -0.27072982757E+00 -0.82647165199E+01 -0.89505888928E+01  0.12185724253E+02  0.51100000000E-03 0.  1.
         12    1    4    4    0    0 -0.41236967579E+01 -0.12683893546E+02 -0.16098612310E+02  0.20905773096E+02  0.00000000000E+00 0. -1.
</event>
<event>
 8    1  0.1253703E-006  0.9118800E+02  0.7816164E-02  0.1184000E+00
        -11   -1    0    0    0    0  0.00000000000E+00  0.00000000000E+00  0.45593999997E+02  0.45594000000E+02  0.51100000000E-03 0.  1.
         11   -1    0    0    0    0 -0.00000000000E+00 -0.00000000000E+00 -0.45593999997E+02  0.45594000000E+02  0.51100000000E-03 0. -1.
         23    2    1    2    0    0  0.71054273576E-14 -0.17763568394E-14  0.00000000000E+00  0.91188000000E+02  0.91188000000E+02 0.  0.
    9900012    2    3    3    0    0  0.23962992686E+02 -0.83327253577E+01  0.26685582310E+02  0.54367087008E+02  0.40000006451E+02 0.  0.
         12    1    3    3    0    0 -0.23962992686E+02  0.83327253577E+01 -0.26685582310E+02  0.36820912992E+02  0.00000000000E+00 0. -1.
         11    1    4    4    0    0 -0.44782201941E+01 -0.52472692396E+01  0.11714749262E+02  0.13594985881E+02  0.51100000000E-03 0.  1.
        -11    1    4    4    0    0  0.97696553880E+00  0.59624425074E+01 -0.29802176026E+01  0.67369785170E+01  0.51100000000E-03 0. -1.
        -12    1    4    4    0    0  0.27464247341E+02 -0.90478986255E+01  0.17951050651E+02  0.34035122610E+02  0.00000000000E+00 0.  1.
</event>
<event>
 8    1  0.1253703E-006  0.9118800E+02  0.7816164E-02  0.1184000E+00
        -11   -1    0    0    0    0  0.00000000000E+00  0.00000000000E+00  0.45593999997E+02  0.45594000000E+02  0.51100000000E-03 0. -1.
         11   -1    0    0    0    0 -0.00000000000E+00 -0.00000000000E+00 -0.45593999997E+02  0.45594000000E+02  0.51100000000E-03 0.  1.
         23    2    1    2    0    0  0.17763568394E-14  0.00000000000E+00  0.00000000000E+00  0.91188000000E+02  0.91188000000E+02 0.  0.
    9900012    2    3    3    0    0 -0.59202139608E+01  0.63033664576E+01  0.35791037583E+02  0.54367085654E+02  0.40000003364E+02 0.  0.
        -12    1    3    3    0    0  0.59202139608E+01 -0.63033664576E+01 -0.35791037583E+02  0.36820914346E+02  0.00000000000E+00 0.  1.
         11    1    4    4    0    0 -0.11517332173E+02  0.60089216795E+01  0.33776687718E+02  0.36188682120E+02  0.51100000000E-03 0. -1.
        -11    1    4    4    0    0 -0.34595940745E+01  0.63084030136E+01  0.77572438175E+00  0.72364693269E+01  0.51100000000E-03 0.  1.
         12    1    4    4    0    0  0.90567122866E+01 -0.60139582354E+01  0.12386254836E+01  0.10941934207E+02  0.00000000000E+00 0. -1.
</event>
<event>
 8    1  0.1253703E-006  0.9118800E+02  0.7816164E-02  0.1184000E+00
        -11   -1    0    0    0    0  0.00000000000E+00  0.00000000000E+00  0.45593999997E+02  0.45594000000E+02  0.51100000000E-03 0. -1.
         11   -1    0    0    0    0 -0.00000000000E+00 -0.00000000000E+00 -0.45593999997E+02  0.45594000000E+02  0.51100000000E-03 0.  1.
         23    2    1    2    0    0  0.00000000000E+00  0.00000000000E+00  0.00000000000E+00  0.91188000000E+02  0.91188000000E+02 0.  0.
    9900012    2    3    3    0    0 -0.12678986784E+02  0.42849080794E+01  0.34302507013E+02  0.54367093839E+02  0.40000022026E+02 0.  0.
        -12    1    3    3    0    0  0.12678986784E+02 -0.42849080794E+01 -0.34302507013E+02  0.36820906161E+02  0.00000000000E+00 0.  1.
         11    1    4    4    0    0  0.11908373665E+02  0.83776988928E+01  0.14304391975E+02  0.20411046816E+02  0.51100000000E-03 0. -1.
        -11    1    4    4    0    0 -0.17944588764E+02 -0.51457782206E+01  0.82297871992E+01  0.20401389585E+02  0.51100000000E-03 0.  1.
         12    1    4    4    0    0 -0.66427716860E+01  0.10529874072E+01  0.11768327838E+02  0.13554657438E+02  0.00000000000E+00 0. -1.
</event>
<event>
 8    1  0.1253703E-006  0.9118800E+02  0.7816164E-02  0.1184000E+00
        -11   -1    0    0    0    0  0.00000000000E+00  0.00000000000E+00  0.45593999997E+02  0.45594000000E+02  0.51100000000E-03 0.  1.
         11   -1    0    0    0    0 -0.00000000000E+00 -0.00000000000E+00 -0.45593999997E+02  0.45594000000E+02  0.51100000000E-03 0. -1.
         23    2    1    2    0    0 -0.44408920985E-15  0.00000000000E+00  0.00000000000E+00  0.91188000000E+02  0.91188000000E+02 0.  0.
    9900012    2    3    3    0    0 -0.39023802330E+01  0.11437155435E+02  0.34781362806E+02  0.54367078032E+02  0.39999985990E+02 0.  0.
         12    1    3    3    0    0  0.39023802330E+01 -0.11437155435E+02 -0.34781362806E+02  0.36820921968E+02  0.00000000000E+00 0. -1.
         11    1    4    4    0    0  0.23878390914E+01  0.14640854620E+02  0.16565288684E+02  0.22236573230E+02  0.51100000000E-03 0. -1.
        -11    1    4    4    0    0 -0.14623602082E+02 -0.23677195180E+01  0.18561262284E+02  0.23748185013E+02  0.51100000000E-03 0.  1.
        -12    1    4    4    0    0  0.83333827577E+01 -0.83597966714E+00 -0.34518816227E+00  0.83823197897E+01  0.00000000000E+00 0.  1.
</event>
<event>
 8    1  0.1253703E-006  0.9118800E+02  0.7816164E-02  0.1184000E+00
        -11   -1    0    0    0    0  0.00000000000E+00  0.00000000000E+00  0.45593999997E+02  0.45594000000E+02  0.51100000000E-03 0.  1.
         11   -1    0    0    0    0 -0.00000000000E+00 -0.00000000000E+00 -0.45593999997E+02  0.45594000000E+02  0.51100000000E-03 0. -1.
         23    2    1    2    0    0 -0.17763568394E-14  0.00000000000E+00  0.71054273576E-14  0.91188000000E+02  0.91188000000E+02 0.  0.
    9900012    2    3    3    0    0  0.10701415920E+02 -0.13242947048E+02 -0.32648061257E+02  0.54366921077E+02  0.39999628177E+02 0.  0.
        -12    1    3    3    0    0 -0.10701415920E+02  0.13242947048E+02  0.32648061257E+02  0.36821078923E+02  0.00000000000E+00 0.  1.
         11    1    4    4    0    0  0.80299992662E+01 -0.94679076052E+01 -0.21688216725E+01  0.12602616805E+02  0.51100000000E-03 0. -1.
        -11    1    4    4    0    0  0.31579894322E+01 -0.11576320633E+02 -0.19165851324E+01  0.12151435943E+02  0.51100000000E-03 0.  1.
         12    1    4    4    0    0 -0.48657277866E+00  0.78012811896E+01 -0.28562654452E+02  0.29612868328E+02  0.00000000000E+00 0. -1.
</event>
<event>
 8    1  0.1253703E-006  0.9118800E+02  0.7816164E-02  0.1184000E+00
        -11   -1    0    0    0    0  0.00000000000E+00  0.00000000000E+00  0.45593999997E+02  0.45594000000E+02  0.51100000000E-03 0.  1.
         11   -1    0    0    0    0 -0.00000000000E+00 -0.00000000000E+00 -0.45593999997E+02  0.45594000000E+02  0.51100000000E-03 0. -1.
         23    2    1    2    0    0  0.17763568394E-14  0.00000000000E+00  0.00000000000E+00  0.91188000000E+02  0.91188000000E+02 0.  0.
    9900012    2    3    3    0    0  0.51495247233E+01  0.16674105264E+02 -0.32422703475E+02  0.54367148681E+02  0.40000147048E+02 0.  0.
        -12    1    3    3    0    0 -0.51495247233E+01 -0.16674105264E+02  0.32422703475E+02  0.36820851319E+02  0.00000000000E+00 0.  1.
         11    1    4    4    0    0 -0.32491646635E+01  0.10508838246E+02 -0.15446295944E+02  0.18962616142E+02  0.51100000000E-03 0. -1.
        -11    1    4    4    0    0 -0.50047000249E+01 -0.28511621575E+01  0.53404920243E+01  0.78547440003E+01  0.51100000000E-03 0.  1.
        -12    1    4    4    0    0  0.13403389412E+02  0.90164291755E+01 -0.22316899555E+02  0.27549788539E+02  0.00000000000E+00 0.  1.
</event>
<event>
 8    1  0.1253703E-006  0.9118800E+02  0.7816164E-02  0.1184000E+00
        -11   -1    0    0    0    0  0.00000000000E+00  0.00000000000E+00  0.45593999997E+02  0.45594000000E+02  0.51100000000E-03 0. -1.
         11   -1    0    0    0    0 -0.00000000000E+00 -0.00000000000E+00 -0.45593999997E+02  0.45594000000E+02  0.51100000000E-03 0.  1.
         23    2    1    2    0    0  0.26645352591E-14  0.00000000000E+00  0.71054273576E-14  0.91188000000E+02  0.91188000000E+02 0.  0.
    9900012    2    3    3    0    0  0.56468957983E+01 -0.11661696391E+02 -0.34465890077E+02  0.54367079674E+02  0.39999989733E+02 0.  0.
         12    1    3    3    0    0 -0.56468957983E+01  0.11661696391E+02  0.34465890077E+02  0.36820920326E+02  0.00000000000E+00 0. -1.
         11    1    4    4    0    0 -0.28616433170E+01  0.23872380843E+01  0.22675292142E+01  0.43622926476E+01  0.51100000000E-03 0. -1.
        -11    1    4    4    0    0  0.15713303801E+02 -0.11212998520E+01 -0.29698915023E+02  0.33618310242E+02  0.51100000000E-03 0.  1.
        -12    1    4    4    0    0 -0.72047646857E+01 -0.12927634623E+02 -0.70345042676E+01  0.16386476785E+02  0.00000000000E+00 0.  1.
</event>
<event>
 8    1  0.1253703E-006  0.9118800E+02  0.7816164E-02  0.1184000E+00
        -11   -1    0    0    0    0  0.00000000000E+00  0.00000000000E+00  0.45593999997E+02  0.45594000000E+02  0.51100000000E-03 0. -1.
         11   -1    0    0    0    0 -0.00000000000E+00 -0.00000000000E+00 -0.45593999997E+02  0.45594000000E+02  0.51100000000E-03 0.  1.
         23    2    1    2    0    0  0.17763568394E-14 -0.15543122345E-14  0.00000000000E+00  0.91188000000E+02  0.91188000000E+02 0.  0.
    9900012    2    3    3    0    0 -0.15857571529E+02 -0.77424570664E+00 -0.33222257104E+02  0.54367076624E+02  0.39999982779E+02 0.  0.
         12    1    3    3    0    0  0.15857571529E+02  0.77424570664E+00  0.33222257104E+02  0.36820923376E+02  0.00000000000E+00 0. -1.
         11    1    4    4    0    0 -0.45725180394E+01 -0.73651307441E+01 -0.67241688508E+01  0.10971213201E+02  0.51100000000E-03 0. -1.
        -11    1    4    4    0    0  0.75780448362E+01  0.12477262878E+02 -0.10797123965E+02  0.18157277843E+02  0.51100000000E-03 0.  1.
        -12    1    4    4    0    0 -0.18863098326E+02 -0.58863778410E+01 -0.15700964288E+02  0.25238585581E+02  0.00000000000E+00 0.  1.
</event>
<event>
 8    1  0.1253703E-006  0.9118800E+02  0.7816164E-02  0.1184000E+00
        -11   -1    0    0    0    0  0.00000000000E+00  0.00000000000E+00  0.45593999997E+02  0.45594000000E+02  0.51100000000E-03 0. -1.
         11   -1    0    0    0    0 -0.00000000000E+00 -0.00000000000E+00 -0.45593999997E+02  0.45594000000E+02  0.51100000000E-03 0.  1.
         23    2    1    2    0    0 -0.71054273576E-14  0.17763568394E-14  0.00000000000E+00  0.91188000000E+02  0.91188000000E+02 0.  0.
    9900012    2    3    3    0    0  0.32799723213E+02 -0.14129496556E+02 -0.89619342782E+01  0.54367071416E+02  0.39999970906E+02 0.  0.
         12    1    3    3    0    0 -0.32799723213E+02  0.14129496556E+02  0.89619342782E+01  0.36820928584E+02  0.00000000000E+00 0. -1.
         11    1    4    4    0    0  0.76079615027E+01  0.93873588083E+01  0.18623152422E+00  0.12084629331E+02  0.51100000000E-03 0. -1.
        -11    1    4    4    0    0 -0.15680716507E+01  0.14837740336E+01  0.30024755178E+01  0.36980121120E+01  0.51100000000E-03 0.  1.
        -12    1    4    4    0    0  0.26759833361E+02 -0.25000629398E+02 -0.12150641320E+02  0.38584429973E+02  0.00000000000E+00 0.  1.
</event>
<event>
 8    1  0.1253703E-006  0.9118800E+02  0.7816164E-02  0.1184000E+00
        -11   -1    0    0    0    0  0.00000000000E+00  0.00000000000E+00  0.45593999997E+02  0.45594000000E+02  0.51100000000E-03 0.  1.
         11   -1    0    0    0    0 -0.00000000000E+00 -0.00000000000E+00 -0.45593999997E+02  0.45594000000E+02  0.51100000000E-03 0. -1.
         23    2    1    2    0    0 -0.17763568394E-14  0.00000000000E+00 -0.35527136788E-14  0.91188000000E+02  0.91188000000E+02 0.  0.
    9900012    2    3    3    0    0 -0.10439640157E+02  0.27804476878E+02 -0.21764758284E+02  0.54367085776E+02  0.40000003644E+02 0.  0.
        -12    1    3    3    0    0  0.10439640157E+02 -0.27804476878E+02  0.21764758284E+02  0.36820914224E+02  0.00000000000E+00 0.  1.
         11    1    4    4    0    0 -0.51270595678E+01  0.13494916544E+02  0.80535797590E+00  0.14458496259E+02  0.51100000000E-03 0. -1.
        -11    1    4    4    0    0 -0.42463589061E+01  0.16581059639E+02  0.83554148707E-01  0.17116368898E+02  0.51100000000E-03 0.  1.
        -12    1    4    4    0    0 -0.10662216835E+01 -0.22714993040E+01 -0.22653670409E+02  0.22792220619E+02  0.00000000000E+00 0.  1.
</event>
<event>
 8    1  0.1253703E-006  0.9118800E+02  0.7816164E-02  0.1184000E+00
        -11   -1    0    0    0    0  0.00000000000E+00  0.00000000000E+00  0.45593999997E+02  0.45594000000E+02  0.51100000000E-03 0.  1.
         11   -1    0    0    0    0 -0.00000000000E+00 -0.00000000000E+00 -0.45593999997E+02  0.45594000000E+02  0.51100000000E-03 0. -1.
         23    2    1    2    0    0 -0.17763568394E-14  0.00000000000E+00 -0.44408920985E-15  0.91188000000E+02  0.91188000000E+02 0.  0.
    9900012    2    3    3    0    0 -0.94649295071E+01  0.35404698534E+02  0.35639392758E+01  0.54367092460E+02  0.40000018882E+02 0.  0.
         12    1    3    3    0    0  0.94649295071E+01 -0.35404698534E+02 -0.35639392758E+01  0.36820907540E+02  0.00000000000E+00 0. -1.
         11    1    4    4    0    0 -0.16601666415E+02  0.15078754406E+02  0.15573251679E+01  0.22481312775E+02  0.51100000000E-03 0.  1.
        -11    1    4    4    0    0  0.99782058523E+01  0.19364739286E+02  0.95365834090E+01  0.23780331012E+02  0.51100000000E-03 0. -1.
         12    1    4    4    0    0 -0.28414689448E+01  0.96120484209E+00 -0.75299693012E+01  0.81054486729E+01  0.00000000000E+00 0. -1.
</event>
<event>
 8    1  0.1253703E-006  0.9118800E+02  0.7816164E-02  0.1184000E+00
        -11   -1    0    0    0    0  0.00000000000E+00  0.00000000000E+00  0.45593999997E+02  0.45594000000E+02  0.51100000000E-03 0. -1.
         11   -1    0    0    0    0 -0.00000000000E+00 -0.00000000000E+00 -0.45593999997E+02  0.45594000000E+02  0.51100000000E-03 0.  1.
         23    2    1    2    0    0 -0.88817841970E-15  0.00000000000E+00 -0.35527136788E-14  0.91188000000E+02  0.91188000000E+02 0.  0.
    9900012    2    3    3    0    0 -0.54325234137E+01 -0.22905763803E+02  0.28312434866E+02  0.54367078039E+02  0.39999986005E+02 0.  0.
        -12    1    3    3    0    0  0.54325234137E+01  0.22905763803E+02 -0.28312434866E+02  0.36820921961E+02  0.00000000000E+00 0.  1.
         11    1    4    4    0    0 -0.36217189580E+01 -0.61998894544E+01  0.18025698806E+02  0.19403125912E+02  0.51100000000E-03 0. -1.
        -11    1    4    4    0    0  0.32450699569E+01 -0.31661731990E+01  0.18013501406E+02  0.18575289093E+02  0.51100000000E-03 0.  1.
        -12    1    4    4    0    0 -0.50558744125E+01 -0.13539701150E+02 -0.77267653461E+01  0.16388663033E+02  0.00000000000E+00 0.  1.
</event>
<event>
 8    1  0.1253703E-006  0.9118800E+02  0.7816164E-02  0.1184000E+00
        -11   -1    0    0    0    0  0.00000000000E+00  0.00000000000E+00  0.45593999997E+02  0.45594000000E+02  0.51100000000E-03 0.  1.
         11   -1    0    0    0    0 -0.00000000000E+00 -0.00000000000E+00 -0.45593999997E+02  0.45594000000E+02  0.51100000000E-03 0. -1.
         23    2    1    2    0    0 -0.71054273576E-14 -0.35527136788E-14  0.00000000000E+00  0.91188000000E+02  0.91188000000E+02 0.  0.
    9900012    2    3    3    0    0  0.34247881513E+02  0.11179747916E+02  0.76075905569E+01  0.54367087658E+02  0.40000007935E+02 0.  0.
         12    1    3    3    0    0 -0.34247881513E+02 -0.11179747916E+02 -0.76075905569E+01  0.36820912342E+02  0.00000000000E+00 0. -1.
         11    1    4    4    0    0  0.49844773144E+01  0.55840317846E+01  0.47797128805E+01  0.88809954707E+01  0.51100000000E-03 0.  1.
        -11    1    4    4    0    0  0.25764108538E+02  0.18636114296E+02  0.33539874250E+01  0.31974103219E+02  0.51100000000E-03 0. -1.
         12    1    4    4    0    0  0.34992956609E+01 -0.13040398165E+02 -0.52610974865E+00  0.13511988968E+02  0.00000000000E+00 0. -1.
</event>
<event>
 8    1  0.1253703E-006  0.9118800E+02  0.7816164E-02  0.1184000E+00
        -11   -1    0    0    0    0  0.00000000000E+00  0.00000000000E+00  0.45593999997E+02  0.45594000000E+02  0.51100000000E-03 0. -1.
         11   -1    0    0    0    0 -0.00000000000E+00 -0.00000000000E+00 -0.45593999997E+02  0.45594000000E+02  0.51100000000E-03 0.  1.
         23    2    1    2    0    0  0.35527136788E-14 -0.35527136788E-14  0.17763568394E-14  0.91188000000E+02  0.91188000000E+02 0.  0.
    9900012    2    3    3    0    0 -0.24255447303E+02  0.24622627418E+02 -0.12695636277E+02  0.54367086305E+02  0.40000004850E+02 0.  0.
         12    1    3    3    0    0  0.24255447303E+02 -0.24622627418E+02  0.12695636277E+02  0.36820913695E+02  0.00000000000E+00 0. -1.
         11    1    4    4    0    0 -0.12707830788E+02  0.18729828843E+02 -0.11548711082E+02  0.25410001569E+02  0.51100000000E-03 0. -1.
        -11    1    4    4    0    0 -0.11763308701E+02  0.15382585536E+02 -0.17622780904E+01  0.19444922054E+02  0.51100000000E-03 0.  1.
         12    1    4    4    0    0  0.21569218547E+00 -0.94897869613E+01  0.61535289570E+00  0.95121626814E+01  0.00000000000E+00 0. -1.
</event>
<event>
 8    1  0.1253703E-006  0.9118800E+02  0.7816164E-02  0.1184000E+00
        -11   -1    0    0    0    0  0.00000000000E+00  0.00000000000E+00  0.45593999997E+02  0.45594000000E+02  0.51100000000E-03 0. -1.
         11   -1    0    0    0    0 -0.00000000000E+00 -0.00000000000E+00 -0.45593999997E+02  0.45594000000E+02  0.51100000000E-03 0.  1.
         23    2    1    2    0    0  0.00000000000E+00  0.00000000000E+00  0.88817841970E-15  0.91188000000E+02  0.91188000000E+02 0.  0.
    9900012    2    3    3    0    0 -0.35083690008E+02 -0.10945904223E+02  0.22585704282E+01  0.54367092024E+02  0.40000017887E+02 0.  0.
        -12    1    3    3    0    0  0.35083690008E+02  0.10945904223E+02 -0.22585704282E+01  0.36820907976E+02  0.00000000000E+00 0.  1.
         11    1    4    4    0    0 -0.11481439020E+02 -0.14500717565E+02  0.66129873160E+01  0.19642450290E+02  0.51100000000E-03 0. -1.
        -11    1    4    4    0    0 -0.23092850451E+02 -0.15555625891E+01  0.53406209638E+01  0.23753352384E+02  0.51100000000E-03 0.  1.
        -12    1    4    4    0    0 -0.50940053718E+00  0.51103759318E+01 -0.96950378516E+01  0.10971289351E+02  0.00000000000E+00 0.  1.
</event>
<event>
 8    1  0.1253703E-006  0.9118800E+02  0.7816164E-02  0.1184000E+00
        -11   -1    0    0    0    0  0.00000000000E+00  0.00000000000E+00  0.45593999997E+02  0.45594000000E+02  0.51100000000E-03 0.  1.
         11   -1    0    0    0    0 -0.00000000000E+00 -0.00000000000E+00 -0.45593999997E+02  0.45594000000E+02  0.51100000000E-03 0. -1.
         23    2    1    2    0    0 -0.17763568394E-14  0.17763568394E-14  0.00000000000E+00  0.91188000000E+02  0.91188000000E+02 0.  0.
    9900012    2    3    3    0    0  0.78852193781E+01 -0.12697481407E+02  0.33650813414E+02  0.54367082546E+02  0.39999996280E+02 0.  0.
         12    1    3    3    0    0 -0.78852193781E+01  0.12697481407E+02 -0.33650813414E+02  0.36820917454E+02  0.00000000000E+00 0. -1.
         11    1    4    4    0    0 -0.10951083210E+02 -0.38447201083E+01  0.28465037857E+01  0.11950342264E+02  0.51100000000E-03 0. -1.
        -11    1    4    4    0    0  0.33430476127E+01  0.22425718516E+01  0.20222839177E+02  0.20619610095E+02  0.51100000000E-03 0.  1.
         12    1    4    4    0    0  0.15493254975E+02 -0.11095333150E+02  0.10581470452E+02  0.21797130186E+02  0.00000000000E+00 0. -1.
</event>
<event>
 8    1  0.1253703E-006  0.9118800E+02  0.7816164E-02  0.1184000E+00
        -11   -1    0    0    0    0  0.00000000000E+00  0.00000000000E+00  0.45593999997E+02  0.45594000000E+02  0.51100000000E-03 0. -1.
         11   -1    0    0    0    0 -0.00000000000E+00 -0.00000000000E+00 -0.45593999997E+02  0.45594000000E+02  0.51100000000E-03 0.  1.
         23    2    1    2    0    0 -0.88817841970E-15  0.33306690739E-15 -0.71054273576E-14  0.91188000000E+02  0.91188000000E+02 0.  0.
    9900012    2    3    3    0    0  0.47243264076E+01 -0.63977134663E+00 -0.36510973521E+02  0.54367085362E+02  0.40000002699E+02 0.  0.
         12    1    3    3    0    0 -0.47243264076E+01  0.63977134663E+00  0.36510973521E+02  0.36820914638E+02  0.00000000000E+00 0. -1.
         11    1    4    4    0    0  0.12807685968E+02 -0.39805181861E+01 -0.44380055488E+01  0.14127180837E+02  0.51100000000E-03 0. -1.
        -11    1    4    4    0    0 -0.88565762113E+01  0.64645465467E+01 -0.34505573545E+02  0.36205854640E+02  0.51100000000E-03 0.  1.
        -12    1    4    4    0    0  0.77321665119E+00 -0.31237997072E+01  0.24326055735E+01  0.40340498852E+01  0.00000000000E+00 0.  1.
</event>
<event>
 8    1  0.1253703E-006  0.9118800E+02  0.7816164E-02  0.1184000E+00
        -11   -1    0    0    0    0  0.00000000000E+00  0.00000000000E+00  0.45593999997E+02  0.45594000000E+02  0.51100000000E-03 0.  1.
         11   -1    0    0    0    0 -0.00000000000E+00 -0.00000000000E+00 -0.45593999997E+02  0.45594000000E+02  0.51100000000E-03 0. -1.
         23    2    1    2    0    0 -0.31086244690E-14 -0.17763568394E-14  0.00000000000E+00  0.91188000000E+02  0.91188000000E+02 0.  0.
    9900012    2    3    3    0    0  0.30133702593E+01 -0.88551901197E+01 -0.35612995967E+02  0.54367078309E+02  0.39999986622E+02 0.  0.
        -12    1    3    3    0    0 -0.30133702593E+01  0.88551901197E+01  0.35612995967E+02  0.36820921691E+02  0.00000000000E+00 0.  1.
         11    1    4    4    0    0 -0.44631220298E+01  0.11712777741E+01 -0.78149675501E+01  0.90755202576E+01  0.51100000000E-03 0. -1.
        -11    1    4    4    0    0 -0.10496055998E+02 -0.11776571299E+02 -0.57448976223E+01  0.16788647117E+02  0.51100000000E-03 0.  1.
        -12    1    4    4    0    0  0.17972548287E+02  0.17501034050E+01 -0.22053130795E+02  0.28502910934E+02  0.00000000000E+00 0.  1.
</event>
<event>
 8    1  0.1253703E-006  0.9118800E+02  0.7816164E-02  0.1184000E+00
        -11   -1    0    0    0    0  0.00000000000E+00  0.00000000000E+00  0.45593999997E+02  0.45594000000E+02  0.51100000000E-03 0. -1.
         11   -1    0    0    0    0 -0.00000000000E+00 -0.00000000000E+00 -0.45593999997E+02  0.45594000000E+02  0.51100000000E-03 0.  1.
         23    2    1    2    0    0  0.35527136788E-14 -0.17763568394E-14  0.35527136788E-14  0.91188000000E+02  0.91188000000E+02 0.  0.
    9900012    2    3    3    0    0  0.16917774856E+02 -0.10194042929E+02  0.31074870838E+02  0.54367119851E+02  0.40000081324E+02 0.  0.
        -12    1    3    3    0    0 -0.16917774856E+02  0.10194042929E+02 -0.31074870838E+02  0.36820880149E+02  0.00000000000E+00 0.  1.
         11    1    4    4    0    0 -0.43942507346E+01  0.72210762968E+01  0.17259063998E+02  0.19217925818E+02  0.51100000000E-03 0. -1.
        -11    1    4    4    0    0  0.28481896748E+01  0.22427052836E+01 -0.17336169264E+01  0.40183752091E+01  0.51100000000E-03 0.  1.
         12    1    4    4    0    0  0.18463835916E+02 -0.19657824509E+02  0.15549423767E+02  0.31130818824E+02  0.00000000000E+00 0. -1.
</event>
<event>
 8    1  0.1253703E-006  0.9118800E+02  0.7816164E-02  0.1184000E+00
        -11   -1    0    0    0    0  0.00000000000E+00  0.00000000000E+00  0.45593999997E+02  0.45594000000E+02  0.51100000000E-03 0.  1.
         11   -1    0    0    0    0 -0.00000000000E+00 -0.00000000000E+00 -0.45593999997E+02  0.45594000000E+02  0.51100000000E-03 0. -1.
         23    2    1    2    0    0  0.88817841970E-15 -0.63837823916E-15 -0.71054273576E-14  0.91188000000E+02  0.91188000000E+02 0.  0.
    9900012    2    3    3    0    0 -0.62403384168E+01  0.11030927474E-01  0.36288164324E+02  0.54367179596E+02  0.40000217524E+02 0.  0.
         12    1    3    3    0    0  0.62403384168E+01 -0.11030927474E-01 -0.36288164324E+02  0.36820820404E+02  0.00000000000E+00 0. -1.
         11    1    4    4    0    0 -0.67556356307E+01 -0.14230655550E+02  0.53996737377E+01  0.16652526742E+02  0.51100000000E-03 0. -1.
        -11    1    4    4    0    0  0.78865967230E+01  0.35977298246E+01  0.11514594290E+02  0.14412770368E+02  0.51100000000E-03 0.  1.
         12    1    4    4    0    0 -0.73712995091E+01  0.10643956653E+02  0.19373896296E+02  0.23301882486E+02  0.00000000000E+00 0. -1.
</event>
<event>
 8    1  0.1253703E-006  0.9118800E+02  0.7816164E-02  0.1184000E+00
        -11   -1    0    0    0    0  0.00000000000E+00  0.00000000000E+00  0.45593999997E+02  0.45594000000E+02  0.51100000000E-03 0.  1.
         11   -1    0    0    0    0 -0.00000000000E+00 -0.00000000000E+00 -0.45593999997E+02  0.45594000000E+02  0.51100000000E-03 0. -1.
         23    2    1    2    0    0  0.00000000000E+00 -0.22204460493E-15  0.00000000000E+00  0.91188000000E+02  0.91188000000E+02 0.  0.
    9900012    2    3    3    0    0  0.87303095872E+01 -0.99213138499E+00  0.35757227280E+02  0.54367055784E+02  0.39999935271E+02 0.  0.
         12    1    3    3    0    0 -0.87303095872E+01  0.99213138499E+00 -0.35757227280E+02  0.36820944216E+02  0.00000000000E+00 0. -1.
         11    1    4    4    0    0 -0.25438913723E+01 -0.12391246873E+02  0.24753716546E+01  0.12889602300E+02  0.51100000000E-03 0. -1.
        -11    1    4    4    0    0  0.97497455002E+01  0.16192150484E+02  0.30046886929E+02  0.35497305377E+02  0.51100000000E-03 0.  1.
        -12    1    4    4    0    0  0.15244554593E+01 -0.47930349959E+01  0.32349686961E+01  0.59801481072E+01  0.00000000000E+00 0.  1.
</event>
<event>
 8    1  0.1253703E-006  0.9118800E+02  0.7816164E-02  0.1184000E+00
        -11   -1    0    0    0    0  0.00000000000E+00  0.00000000000E+00  0.45593999997E+02  0.45594000000E+02  0.51100000000E-03 0.  1.
         11   -1    0    0    0    0 -0.00000000000E+00 -0.00000000000E+00 -0.45593999997E+02  0.45594000000E+02  0.51100000000E-03 0. -1.
         23    2    1    2    0    0  0.88817841970E-15  0.17763568394E-14  0.71054273576E-14  0.91188000000E+02  0.91188000000E+02 0.  0.
    9900012    2    3    3    0    0 -0.59938109221E+01 -0.10074321562E+02 -0.34905049308E+02  0.54367079431E+02  0.39999989179E+02 0.  0.
        -12    1    3    3    0    0  0.59938109221E+01  0.10074321562E+02  0.34905049308E+02  0.36820920569E+02  0.00000000000E+00 0.  1.
         11    1    4    4    0    0 -0.75957678749E+01  0.93527806560E+01 -0.12592471426E+02  0.17428153445E+02  0.51100000000E-03 0. -1.
        -11    1    4    4    0    0  0.21332319436E+00  0.46895566689E+01 -0.11730439156E+01  0.48387478571E+01  0.51100000000E-03 0.  1.
        -12    1    4    4    0    0  0.13886337585E+01 -0.24116658887E+02 -0.21139533966E+02  0.32100178129E+02  0.00000000000E+00 0.  1.
</event>
<event>
 8    1  0.1253703E-006  0.9118800E+02  0.7816164E-02  0.1184000E+00
        -11   -1    0    0    0    0  0.00000000000E+00  0.00000000000E+00  0.45593999997E+02  0.45594000000E+02  0.51100000000E-03 0.  1.
         11   -1    0    0    0    0 -0.00000000000E+00 -0.00000000000E+00 -0.45593999997E+02  0.45594000000E+02  0.51100000000E-03 0. -1.
         23    2    1    2    0    0  0.00000000000E+00  0.00000000000E+00 -0.88817841970E-15  0.91188000000E+02  0.91188000000E+02 0.  0.
    9900012    2    3    3    0    0 -0.17676451296E+02 -0.31978929220E+02 -0.45463644205E+01  0.54367105471E+02  0.40000048542E+02 0.  0.
        -12    1    3    3    0    0  0.17676451296E+02  0.31978929220E+02  0.45463644205E+01  0.36820894529E+02  0.00000000000E+00 0.  1.
         11    1    4    4    0    0 -0.62841108071E+01 -0.14881393260E+02 -0.68800627136E+01  0.17557937726E+02  0.51100000000E-03 0. -1.
        -11    1    4    4    0    0 -0.17385378015E+02 -0.10010528991E+02 -0.91451022309E+01  0.22047561191E+02  0.51100000000E-03 0.  1.
        -12    1    4    4    0    0  0.59930375260E+01 -0.70870069683E+01  0.11478800524E+02  0.14761606553E+02  0.00000000000E+00 0.  1.
</event>
<event>
 8    1  0.1253703E-006  0.9118800E+02  0.7816164E-02  0.1184000E+00
        -11   -1    0    0    0    0  0.00000000000E+00  0.00000000000E+00  0.45593999997E+02  0.45594000000E+02  0.51100000000E-03 0.  1.
         11   -1    0    0    0    0 -0.00000000000E+00 -0.00000000000E+00 -0.45593999997E+02  0.45594000000E+02  0.51100000000E-03 0. -1.
         23    2    1    2    0    0  0.00000000000E+00  0.00000000000E+00  0.35527136788E-14  0.91188000000E+02  0.91188000000E+02 0.  0.
    9900012    2    3    3    0    0 -0.19293134855E+02 -0.19493114370E+02  0.24567754359E+02  0.54367066896E+02  0.39999960604E+02 0.  0.
         12    1    3    3    0    0  0.19293134855E+02  0.19493114370E+02 -0.24567754359E+02  0.36820933104E+02  0.00000000000E+00 0. -1.
         11    1    4    4    0    0 -0.94060671006E+01  0.36710863414E+01 -0.49074746792E+01  0.11226499063E+02  0.51100000000E-03 0. -1.
        -11    1    4    4    0    0 -0.13057494676E+02 -0.18495059181E+02  0.13881077208E+02  0.26556537538E+02  0.51100000000E-03 0.  1.
         12    1    4    4    0    0  0.31704269221E+01 -0.46691415304E+01  0.15594151831E+02  0.16584030295E+02  0.00000000000E+00 0. -1.
</event>
<event>
 8    1  0.1253703E-006  0.9118800E+02  0.7816164E-02  0.1184000E+00
        -11   -1    0    0    0    0  0.00000000000E+00  0.00000000000E+00  0.45593999997E+02  0.45594000000E+02  0.51100000000E-03 0. -1.
         11   -1    0    0    0    0 -0.00000000000E+00 -0.00000000000E+00 -0.45593999997E+02  0.45594000000E+02  0.51100000000E-03 0.  1.
         23    2    1    2    0    0 -0.35527136788E-14  0.00000000000E+00  0.35527136788E-14  0.91188000000E+02  0.91188000000E+02 0.  0.
    9900012    2    3    3    0    0  0.24872591377E+02 -0.17040110566E+02 -0.21136911056E+02  0.54367079602E+02  0.39999989569E+02 0.  0.
         12    1    3    3    0    0 -0.24872591377E+02  0.17040110566E+02  0.21136911056E+02  0.36820920398E+02  0.00000000000E+00 0. -1.
         11    1    4    4    0    0  0.15454823413E+01 -0.16611379466E+01 -0.11439158556E+01  0.25409523196E+01  0.51100000000E-03 0. -1.
        -11    1    4    4    0    0  0.33260078125E+01 -0.24192532950E+02 -0.17024288557E+02  0.29768563614E+02  0.51100000000E-03 0.  1.
         12    1    4    4    0    0  0.20001101224E+02  0.88135603305E+01 -0.29687066433E+01  0.22057563668E+02  0.00000000000E+00 0. -1.
</event>
<event>
 8    1  0.1253703E-006  0.9118800E+02  0.7816164E-02  0.1184000E+00
        -11   -1    0    0    0    0  0.00000000000E+00  0.00000000000E+00  0.45593999997E+02  0.45594000000E+02  0.51100000000E-03 0.  1.
         11   -1    0    0    0    0 -0.00000000000E+00 -0.00000000000E+00 -0.45593999997E+02  0.45594000000E+02  0.51100000000E-03 0. -1.
         23    2    1    2    0    0  0.17763568394E-14  0.35527136788E-14  0.00000000000E+00  0.91188000000E+02  0.91188000000E+02 0.  0.
    9900012    2    3    3    0    0 -0.12513123878E+02 -0.20636735293E+02  0.27808745196E+02  0.54367089879E+02  0.40000012997E+02 0.  0.
         12    1    3    3    0    0  0.12513123878E+02  0.20636735293E+02 -0.27808745196E+02  0.36820910121E+02  0.00000000000E+00 0. -1.
         11    1    4    4    0    0 -0.30440602423E+01  0.54476300069E+01  0.50816986458E+01  0.80477721662E+01  0.51100000000E-03 0.  1.
        -11    1    4    4    0    0  0.98602508056E+01 -0.13330357038E+02  0.55450544497E+01  0.17483437700E+02  0.51100000000E-03 0. -1.
        -12    1    4    4    0    0 -0.19329314442E+02 -0.12754008263E+02  0.17181992101E+02  0.28835880012E+02  0.00000000000E+00 0.  1.
</event>
<event>
 8    1  0.1253703E-006  0.9118800E+02  0.7816164E-02  0.1184000E+00
        -11   -1    0    0    0    0  0.00000000000E+00  0.00000000000E+00  0.45593999997E+02  0.45594000000E+02  0.51100000000E-03 0. -1.
         11   -1    0    0    0    0 -0.00000000000E+00 -0.00000000000E+00 -0.45593999997E+02  0.45594000000E+02  0.51100000000E-03 0.  1.
         23    2    1    2    0    0  0.00000000000E+00  0.71054273576E-14  0.00000000000E+00  0.91188000000E+02  0.91188000000E+02 0.  0.
    9900012    2    3    3    0    0 -0.16959582975E+02  0.21275446426E+02 -0.24809425453E+02  0.54367086559E+02  0.40000005429E+02 0.  0.
         12    1    3    3    0    0  0.16959582975E+02 -0.21275446426E+02  0.24809425453E+02  0.36820913441E+02  0.00000000000E+00 0. -1.
         11    1    4    4    0    0 -0.10954894754E+02  0.38006329402E+01 -0.39619308829E+01  0.12253629111E+02  0.51100000000E-03 0. -1.
        -11    1    4    4    0    0 -0.10047833174E+02 -0.52445906472E+01 -0.14060033009E+02  0.18059601630E+02  0.51100000000E-03 0.  1.
         12    1    4    4    0    0  0.40431449528E+01  0.22719404133E+02 -0.67874615610E+01  0.24053855818E+02  0.00000000000E+00 0. -1.
</event>
<event>
 8    1  0.1253703E-006  0.9118800E+02  0.7816164E-02  0.1184000E+00
        -11   -1    0    0    0    0  0.00000000000E+00  0.00000000000E+00  0.45593999997E+02  0.45594000000E+02  0.51100000000E-03 0.  1.
         11   -1    0    0    0    0 -0.00000000000E+00 -0.00000000000E+00 -0.45593999997E+02  0.45594000000E+02  0.51100000000E-03 0. -1.
         23    2    1    2    0    0  0.00000000000E+00  0.35527136788E-14  0.00000000000E+00  0.91188000000E+02  0.91188000000E+02 0.  0.
    9900012    2    3    3    0    0  0.97193883094E+01  0.23373712111E+02  0.26739163549E+02  0.54367084826E+02  0.40000001477E+02 0.  0.
         12    1    3    3    0    0 -0.97193883094E+01 -0.23373712111E+02 -0.26739163549E+02  0.36820915174E+02  0.00000000000E+00 0. -1.
         11    1    4    4    0    0  0.67508363064E+01  0.75390198938E+01  0.28111428631E+01  0.10503006058E+02  0.51100000000E-03 0.  1.
        -11    1    4    4    0    0 -0.43369236107E+01  0.96227132380E+01 -0.62038347718E+01  0.12243083051E+02  0.51100000000E-03 0. -1.
        -12    1    4    4    0    0  0.73054756137E+01  0.62119789794E+01  0.30131855458E+02  0.31620995716E+02  0.00000000000E+00 0.  1.
</event>
<event>
 8    1  0.1253703E-006  0.9118800E+02  0.7816164E-02  0.1184000E+00
        -11   -1    0    0    0    0  0.00000000000E+00  0.00000000000E+00  0.45593999997E+02  0.45594000000E+02  0.51100000000E-03 0. -1.
         11   -1    0    0    0    0 -0.00000000000E+00 -0.00000000000E+00 -0.45593999997E+02  0.45594000000E+02  0.51100000000E-03 0.  1.
         23    2    1    2    0    0  0.35527136788E-14  0.88817841970E-15  0.35527136788E-14  0.91188000000E+02  0.91188000000E+02 0.  0.
    9900012    2    3    3    0    0 -0.31229410880E+02 -0.61572104560E+01 -0.18509266698E+02  0.54367077982E+02  0.39999985877E+02 0.  0.
         12    1    3    3    0    0  0.31229410880E+02  0.61572104560E+01  0.18509266698E+02  0.36820922018E+02  0.00000000000E+00 0. -1.
         11    1    4    4    0    0  0.64304872894E+01 -0.49118102975E+01 -0.20127890198E+01  0.83383671709E+01  0.51100000000E-03 0. -1.
        -11    1    4    4    0    0 -0.96103828066E+01 -0.29724233993E+01  0.44287124675E+01  0.10991280769E+02  0.51100000000E-03 0.  1.
        -12    1    4    4    0    0 -0.28049515363E+02  0.17270232408E+01 -0.20925190146E+02  0.35037430043E+02  0.00000000000E+00 0.  1.
</event>
<event>
 8    1  0.1253703E-006  0.9118800E+02  0.7816164E-02  0.1184000E+00
        -11   -1    0    0    0    0  0.00000000000E+00  0.00000000000E+00  0.45593999997E+02  0.45594000000E+02  0.51100000000E-03 0.  1.
         11   -1    0    0    0    0 -0.00000000000E+00 -0.00000000000E+00 -0.45593999997E+02  0.45594000000E+02  0.51100000000E-03 0. -1.
         23    2    1    2    0    0 -0.35527136788E-14  0.00000000000E+00 -0.35527136788E-14  0.91188000000E+02  0.91188000000E+02 0.  0.
    9900012    2    3    3    0    0 -0.31240260283E+02 -0.50726700576E+01 -0.18817396298E+02  0.54367078671E+02  0.39999987446E+02 0.  0.
        -12    1    3    3    0    0  0.31240260283E+02  0.50726700576E+01  0.18817396298E+02  0.36820921329E+02  0.00000000000E+00 0.  1.
         11    1    4    4    0    0 -0.19962710722E+02 -0.81953423130E-01 -0.21677083375E+02  0.29468839129E+02  0.51100000000E-03 0. -1.
        -11    1    4    4    0    0 -0.14703777249E+02  0.33945978794E+01 -0.83918549611E+00  0.15113854330E+02  0.51100000000E-03 0.  1.
        -12    1    4    4    0    0  0.34262276869E+01 -0.83853145139E+01  0.36988725731E+01  0.97843852117E+01  0.00000000000E+00 0.  1.
</event>
<event>
 8    1  0.1253703E-006  0.9118800E+02  0.7816164E-02  0.1184000E+00
        -11   -1    0    0    0    0  0.00000000000E+00  0.00000000000E+00  0.45593999997E+02  0.45594000000E+02  0.51100000000E-03 0. -1.
         11   -1    0    0    0    0 -0.00000000000E+00 -0.00000000000E+00 -0.45593999997E+02  0.45594000000E+02  0.51100000000E-03 0.  1.
         23    2    1    2    0    0  0.88817841970E-15  0.00000000000E+00  0.00000000000E+00  0.91188000000E+02  0.91188000000E+02 0.  0.
    9900012    2    3    3    0    0 -0.65948480520E+01 -0.46580508381E+01 -0.35924793986E+02  0.54367078211E+02  0.39999986398E+02 0.  0.
         12    1    3    3    0    0  0.65948480520E+01  0.46580508381E+01  0.35924793986E+02  0.36820921789E+02  0.00000000000E+00 0. -1.
         11    1    4    4    0    0 -0.35174068891E+01 -0.10368683768E+02 -0.66922389539E+01  0.12832295850E+02  0.51100000000E-03 0. -1.
        -11    1    4    4    0    0  0.32313535157E+01  0.14955700180E+00 -0.32390416718E+02  0.32551545405E+02  0.51100000000E-03 0.  1.
        -12    1    4    4    0    0 -0.63087946786E+01  0.55610759286E+01  0.31578616853E+01  0.89832369558E+01  0.00000000000E+00 0.  1.
</event>
<event>
 8    1  0.1253703E-006  0.9118800E+02  0.7816164E-02  0.1184000E+00
        -11   -1    0    0    0    0  0.00000000000E+00  0.00000000000E+00  0.45593999997E+02  0.45594000000E+02  0.51100000000E-03 0.  1.
         11   -1    0    0    0    0 -0.00000000000E+00 -0.00000000000E+00 -0.45593999997E+02  0.45594000000E+02  0.51100000000E-03 0. -1.
         23    2    1    2    0    0  0.00000000000E+00 -0.35527136788E-14 -0.35527136788E-14  0.91188000000E+02  0.91188000000E+02 0.  0.
    9900012    2    3    3    0    0 -0.11130676162E+02  0.18459070025E+02  0.29852130523E+02  0.54367096769E+02  0.40000028704E+02 0.  0.
         12    1    3    3    0    0  0.11130676162E+02 -0.18459070025E+02 -0.29852130523E+02  0.36820903231E+02  0.00000000000E+00 0. -1.
         11    1    4    4    0    0 -0.25693956826E+01 -0.68409092505E+01  0.10828522852E+01  0.73873136444E+01  0.51100000000E-03 0.  1.
        -11    1    4    4    0    0 -0.38420408165E+01 -0.50920402689E+01  0.52507639337E+01  0.82620018085E+01  0.51100000000E-03 0. -1.
         12    1    4    4    0    0 -0.47192396624E+01  0.30392019544E+02  0.23518514304E+02  0.38717781316E+02  0.00000000000E+00 0. -1.
</event>
<event>
 8    1  0.1253703E-006  0.9118800E+02  0.7816164E-02  0.1184000E+00
        -11   -1    0    0    0    0  0.00000000000E+00  0.00000000000E+00  0.45593999997E+02  0.45594000000E+02  0.51100000000E-03 0.  1.
         11   -1    0    0    0    0 -0.00000000000E+00 -0.00000000000E+00 -0.45593999997E+02  0.45594000000E+02  0.51100000000E-03 0. -1.
         23    2    1    2    0    0 -0.35527136788E-14  0.00000000000E+00 -0.35527136788E-14  0.91188000000E+02  0.91188000000E+02 0.  0.
    9900012    2    3    3    0    0  0.26250598622E+02  0.13583560493E+02  0.21958420253E+02  0.54367092031E+02  0.40000017902E+02 0.  0.
         12    1    3    3    0    0 -0.26250598622E+02 -0.13583560493E+02 -0.21958420253E+02  0.36820907969E+02  0.00000000000E+00 0. -1.
         11    1    4    4    0    0  0.42943348116E+01  0.27285759305E+01 -0.77376742678E+01  0.92605637743E+01  0.51100000000E-03 0. -1.
        -11    1    4    4    0    0  0.15247925559E+02  0.18023023454E+02  0.17169074825E+02  0.29190850260E+02  0.51100000000E-03 0.  1.
        -12    1    4    4    0    0  0.67083382518E+01 -0.71680388911E+01  0.12527019695E+02  0.15915677997E+02  0.00000000000E+00 0.  1.
</event>
<event>
 8    1  0.1253703E-006  0.9118800E+02  0.7816164E-02  0.1184000E+00
        -11   -1    0    0    0    0  0.00000000000E+00  0.00000000000E+00  0.45593999997E+02  0.45594000000E+02  0.51100000000E-03 0. -1.
         11   -1    0    0    0    0 -0.00000000000E+00 -0.00000000000E+00 -0.45593999997E+02  0.45594000000E+02  0.51100000000E-03 0.  1.
         23    2    1    2    0    0 -0.44408920985E-15  0.35527136788E-14 -0.35527136788E-14  0.91188000000E+02  0.91188000000E+02 0.  0.
    9900012    2    3    3    0    0  0.52177965784E+00 -0.24122761984E+02 -0.27813750003E+02  0.54367019718E+02  0.39999853051E+02 0.  0.
         12    1    3    3    0    0 -0.52177965784E+00  0.24122761984E+02  0.27813750003E+02  0.36820980282E+02  0.00000000000E+00 0. -1.
         11    1    4    4    0    0 -0.72560976042E+01 -0.19596252749E+01 -0.10069931272E+01  0.75832129786E+01  0.51100000000E-03 0. -1.
        -11    1    4    4    0    0 -0.26120033222E+00  0.75088879843E+01 -0.40489138829E+01  0.85349474671E+01  0.51100000000E-03 0.  1.
        -12    1    4    4    0    0  0.80390775943E+01 -0.29672024693E+02 -0.22757842993E+02  0.38248859272E+02  0.00000000000E+00 0.  1.
</event>
<event>
 8    1  0.1253703E-006  0.9118800E+02  0.7816164E-02  0.1184000E+00
        -11   -1    0    0    0    0  0.00000000000E+00  0.00000000000E+00  0.45593999997E+02  0.45594000000E+02  0.51100000000E-03 0. -1.
         11   -1    0    0    0    0 -0.00000000000E+00 -0.00000000000E+00 -0.45593999997E+02  0.45594000000E+02  0.51100000000E-03 0.  1.
         23    2    1    2    0    0  0.35527136788E-14  0.00000000000E+00  0.00000000000E+00  0.91188000000E+02  0.91188000000E+02 0.  0.
    9900012    2    3    3    0    0 -0.22617467106E+02 -0.18219606291E+02  0.22633497784E+02  0.54367094340E+02  0.40000023167E+02 0.  0.
        -12    1    3    3    0    0  0.22617467106E+02  0.18219606291E+02 -0.22633497784E+02  0.36820905660E+02  0.00000000000E+00 0.  1.
         11    1    4    4    0    0 -0.10454949260E+02  0.65279315880E+01  0.40583593688E+01  0.12976522488E+02  0.51100000000E-03 0. -1.
        -11    1    4    4    0    0  0.72990240139E+01 -0.10187978902E+02  0.81126193681E+01  0.14929342214E+02  0.51100000000E-03 0.  1.
         12    1    4    4    0    0 -0.19461541860E+02 -0.14559558977E+02  0.10462519047E+02  0.26461229639E+02  0.00000000000E+00 0. -1.
</event>
<event>
 8    1  0.1253703E-006  0.9118800E+02  0.7816164E-02  0.1184000E+00
        -11   -1    0    0    0    0  0.00000000000E+00  0.00000000000E+00  0.45593999997E+02  0.45594000000E+02  0.51100000000E-03 0. -1.
         11   -1    0    0    0    0 -0.00000000000E+00 -0.00000000000E+00 -0.45593999997E+02  0.45594000000E+02  0.51100000000E-03 0.  1.
         23    2    1    2    0    0  0.35527136788E-14  0.44408920985E-15  0.00000000000E+00  0.91188000000E+02  0.91188000000E+02 0.  0.
    9900012    2    3    3    0    0  0.16428686396E+02  0.17442248471E+01 -0.32906402011E+02  0.54367145171E+02  0.40000139046E+02 0.  0.
         12    1    3    3    0    0 -0.16428686396E+02 -0.17442248471E+01  0.32906402011E+02  0.36820854829E+02  0.00000000000E+00 0. -1.
         11    1    4    4    0    0  0.15489082744E+02  0.67603841046E+01 -0.90568904623E+01  0.19173986090E+02  0.51100000000E-03 0.  1.
        -11    1    4    4    0    0 -0.18791974720E+00 -0.13929309254E+02 -0.59152954416E+01  0.15134453757E+02  0.51100000000E-03 0. -1.
         12    1    4    4    0    0  0.11275233995E+01  0.89131499961E+01 -0.17934216107E+02  0.20058705323E+02  0.00000000000E+00 0. -1.
</event>
<event>
 8    1  0.1253703E-006  0.9118800E+02  0.7816164E-02  0.1184000E+00
        -11   -1    0    0    0    0  0.00000000000E+00  0.00000000000E+00  0.45593999997E+02  0.45594000000E+02  0.51100000000E-03 0. -1.
         11   -1    0    0    0    0 -0.00000000000E+00 -0.00000000000E+00 -0.45593999997E+02  0.45594000000E+02  0.51100000000E-03 0.  1.
         23    2    1    2    0    0  0.00000000000E+00  0.00000000000E+00  0.00000000000E+00  0.91188000000E+02  0.91188000000E+02 0.  0.
    9900012    2    3    3    0    0 -0.18973852022E+02 -0.18606191710E+02 -0.25487223565E+02  0.54366864826E+02  0.39999499940E+02 0.  0.
         12    1    3    3    0    0  0.18973852022E+02  0.18606191710E+02  0.25487223565E+02  0.36821135174E+02  0.00000000000E+00 0. -1.
         11    1    4    4    0    0 -0.40233593555E+01 -0.20960558819E+01 -0.67021935451E+01  0.80932236680E+01  0.51100000000E-03 0. -1.
        -11    1    4    4    0    0 -0.18086235558E+02 -0.36375168466E+01 -0.25457486184E+02  0.31439259669E+02  0.51100000000E-03 0.  1.
         12    1    4    4    0    0  0.31357428913E+01 -0.12872618981E+02  0.66724561636E+01  0.14834381489E+02  0.00000000000E+00 0. -1.
</event>
<event>
 8    1  0.1253703E-006  0.9118800E+02  0.7816164E-02  0.1184000E+00
        -11   -1    0    0    0    0  0.00000000000E+00  0.00000000000E+00  0.45593999997E+02  0.45594000000E+02  0.51100000000E-03 0. -1.
         11   -1    0    0    0    0 -0.00000000000E+00 -0.00000000000E+00 -0.45593999997E+02  0.45594000000E+02  0.51100000000E-03 0.  1.
         23    2    1    2    0    0  0.00000000000E+00  0.00000000000E+00 -0.35527136788E-14  0.91188000000E+02  0.91188000000E+02 0.  0.
    9900012    2    3    3    0    0  0.26884487347E+02 -0.19338565013E+02  0.16094209813E+02  0.54367090911E+02  0.40000015349E+02 0.  0.
        -12    1    3    3    0    0 -0.26884487347E+02  0.19338565013E+02 -0.16094209813E+02  0.36820909089E+02  0.00000000000E+00 0.  1.
         11    1    4    4    0    0  0.78487668050E+01 -0.11956299576E+02  0.10813272650E+02  0.17929949961E+02  0.51100000000E-03 0. -1.
        -11    1    4    4    0    0  0.48420127905E+01 -0.11558347452E+01 -0.12139020306E+02  0.13120093600E+02  0.51100000000E-03 0.  1.
         12    1    4    4    0    0  0.14193707751E+02 -0.62264306910E+01  0.17419957469E+02  0.23317047350E+02  0.00000000000E+00 0. -1.
</event>
<event>
 8    1  0.1253703E-006  0.9118800E+02  0.7816164E-02  0.1184000E+00
        -11   -1    0    0    0    0  0.00000000000E+00  0.00000000000E+00  0.45593999997E+02  0.45594000000E+02  0.51100000000E-03 0.  1.
         11   -1    0    0    0    0 -0.00000000000E+00 -0.00000000000E+00 -0.45593999997E+02  0.45594000000E+02  0.51100000000E-03 0. -1.
         23    2    1    2    0    0  0.00000000000E+00  0.00000000000E+00 -0.35527136788E-14  0.91188000000E+02  0.91188000000E+02 0.  0.
    9900012    2    3    3    0    0 -0.26088055785E+02  0.65620479808E+01  0.25142246338E+02  0.54367086387E+02  0.40000005036E+02 0.  0.
         12    1    3    3    0    0  0.26088055785E+02 -0.65620479808E+01 -0.25142246338E+02  0.36820913613E+02  0.00000000000E+00 0. -1.
         11    1    4    4    0    0 -0.45549227941E+00  0.49812191728E+00  0.10886796951E+02  0.10907701260E+02  0.51100000000E-03 0. -1.
        -11    1    4    4    0    0 -0.12625618756E+02 -0.87254672717E+00  0.23048922403E+02  0.26294874234E+02  0.51100000000E-03 0.  1.
         12    1    4    4    0    0 -0.13006944750E+02  0.69364727907E+01 -0.87934730162E+01  0.17164510893E+02  0.00000000000E+00 0. -1.
</event>
<event>
 8    1  0.1253703E-006  0.9118800E+02  0.7816164E-02  0.1184000E+00
        -11   -1    0    0    0    0  0.00000000000E+00  0.00000000000E+00  0.45593999997E+02  0.45594000000E+02  0.51100000000E-03 0.  1.
         11   -1    0    0    0    0 -0.00000000000E+00 -0.00000000000E+00 -0.45593999997E+02  0.45594000000E+02  0.51100000000E-03 0. -1.
         23    2    1    2    0    0  0.00000000000E+00 -0.35527136788E-14  0.00000000000E+00  0.91188000000E+02  0.91188000000E+02 0.  0.
    9900012    2    3    3    0    0  0.16382544230E+02 -0.23905741162E+02  0.22713619544E+02  0.54367072137E+02  0.39999972550E+02 0.  0.
         12    1    3    3    0    0 -0.16382544230E+02  0.23905741162E+02 -0.22713619544E+02  0.36820927863E+02  0.00000000000E+00 0. -1.
         11    1    4    4    0    0  0.16150053138E+01 -0.22423660543E+01 -0.18901385572E+01  0.33479951779E+01  0.51100000000E-03 0. -1.
        -11    1    4    4    0    0  0.26879793515E+02 -0.13678892342E+02  0.15774513202E+02  0.34036313874E+02  0.51100000000E-03 0.  1.
        -12    1    4    4    0    0 -0.12112254599E+02 -0.79844827658E+01  0.88292448984E+01  0.16982763085E+02  0.00000000000E+00 0.  1.
</event>
<event>
 8    1  0.1253703E-006  0.9118800E+02  0.7816164E-02  0.1184000E+00
        -11   -1    0    0    0    0  0.00000000000E+00  0.00000000000E+00  0.45593999997E+02  0.45594000000E+02  0.51100000000E-03 0.  1.
         11   -1    0    0    0    0 -0.00000000000E+00 -0.00000000000E+00 -0.45593999997E+02  0.45594000000E+02  0.51100000000E-03 0. -1.
         23    2    1    2    0    0  0.00000000000E+00  0.00000000000E+00  0.17763568394E-14  0.91188000000E+02  0.91188000000E+02 0.  0.
    9900012    2    3    3    0    0 -0.30909185120E+02 -0.16853266445E+02  0.10787509165E+02  0.54367072952E+02  0.39999974410E+02 0.  0.
         12    1    3    3    0    0  0.30909185120E+02  0.16853266445E+02 -0.10787509165E+02  0.36820927048E+02  0.00000000000E+00 0. -1.
         11    1    4    4    0    0 -0.20624543298E+02 -0.11190672983E+02  0.14005309155E+02  0.27326756721E+02  0.51100000000E-03 0.  1.
        -11    1    4    4    0    0 -0.28342986973E+01  0.94310870173E+01  0.26553794230E+00  0.98513533128E+01  0.51100000000E-03 0. -1.
         12    1    4    4    0    0 -0.74503431243E+01 -0.15093680479E+02 -0.34833379322E+01  0.17188962919E+02  0.00000000000E+00 0. -1.
</event>
<event>
 8    1  0.1253703E-006  0.9118800E+02  0.7816164E-02  0.1184000E+00
        -11   -1    0    0    0    0  0.00000000000E+00  0.00000000000E+00  0.45593999997E+02  0.45594000000E+02  0.51100000000E-03 0.  1.
         11   -1    0    0    0    0 -0.00000000000E+00 -0.00000000000E+00 -0.45593999997E+02  0.45594000000E+02  0.51100000000E-03 0. -1.
         23    2    1    2    0    0  0.35527136788E-14 -0.88817841970E-15  0.35527136788E-14  0.91188000000E+02  0.91188000000E+02 0.  0.
    9900012    2    3    3    0    0  0.21621229850E+02 -0.52301059373E+01  0.29341927377E+02  0.54367078087E+02  0.39999986116E+02 0.  0.
         12    1    3    3    0    0 -0.21621229850E+02  0.52301059373E+01 -0.29341927377E+02  0.36820921913E+02  0.00000000000E+00 0. -1.
         11    1    4    4    0    0  0.36491374101E+00 -0.74350181911E+01 -0.26531697832E+01  0.79026557372E+01  0.51100000000E-03 0. -1.
        -11    1    4    4    0    0  0.57044073945E+01 -0.77387697016E+01  0.10190316414E+00  0.96145309159E+01  0.51100000000E-03 0.  1.
        -12    1    4    4    0    0  0.15551908714E+02  0.99436819554E+01  0.31893193996E+02  0.36849891434E+02  0.00000000000E+00 0.  1.
</event>
<event>
 8    1  0.1253703E-006  0.9118800E+02  0.7816164E-02  0.1184000E+00
        -11   -1    0    0    0    0  0.00000000000E+00  0.00000000000E+00  0.45593999997E+02  0.45594000000E+02  0.51100000000E-03 0.  1.
         11   -1    0    0    0    0 -0.00000000000E+00 -0.00000000000E+00 -0.45593999997E+02  0.45594000000E+02  0.51100000000E-03 0. -1.
         23    2    1    2    0    0  0.00000000000E+00  0.00000000000E+00  0.00000000000E+00  0.91188000000E+02  0.91188000000E+02 0.  0.
    9900012    2    3    3    0    0 -0.53099618320E+01 -0.36264175703E+02 -0.35349344517E+01  0.54367056291E+02  0.39999936426E+02 0.  0.
        -12    1    3    3    0    0  0.53099618320E+01  0.36264175703E+02  0.35349344517E+01  0.36820943709E+02  0.00000000000E+00 0.  1.
         11    1    4    4    0    0 -0.12916168357E+02 -0.44367318432E+01 -0.61018577445E+01  0.14958096894E+02  0.51100000000E-03 0.  1.
        -11    1    4    4    0    0  0.72390010385E+01 -0.18488575309E+02 -0.89529056917E+01  0.21780382769E+02  0.51100000000E-03 0. -1.
         12    1    4    4    0    0  0.36720548668E+00 -0.13338868551E+02  0.11519828985E+02  0.17628576628E+02  0.00000000000E+00 0. -1.
</event>
<event>
 8    1  0.1253703E-006  0.9118800E+02  0.7816164E-02  0.1184000E+00
        -11   -1    0    0    0    0  0.00000000000E+00  0.00000000000E+00  0.45593999997E+02  0.45594000000E+02  0.51100000000E-03 0. -1.
         11   -1    0    0    0    0 -0.00000000000E+00 -0.00000000000E+00 -0.45593999997E+02  0.45594000000E+02  0.51100000000E-03 0.  1.
         23    2    1    2    0    0  0.00000000000E+00 -0.53290705182E-14 -0.35527136788E-14  0.91188000000E+02  0.91188000000E+02 0.  0.
    9900012    2    3    3    0    0  0.20091637118E+02 -0.96881430616E+01  0.29295809026E+02  0.54367103426E+02  0.40000043880E+02 0.  0.
        -12    1    3    3    0    0 -0.20091637118E+02  0.96881430616E+01 -0.29295809026E+02  0.36820896574E+02  0.00000000000E+00 0.  1.
         11    1    4    4    0    0  0.27405426290E+01  0.33151503985E+00 -0.14171333094E+01  0.31030216243E+01  0.51100000000E-03 0. -1.
        -11    1    4    4    0    0  0.38373034635E-01  0.12530881347E+02  0.10936410651E+02  0.16632183802E+02  0.51100000000E-03 0.  1.
        -12    1    4    4    0    0  0.17312721454E+02 -0.22550539449E+02  0.19776531685E+02  0.34631898000E+02  0.00000000000E+00 0.  1.
</event>
<event>
 8    1  0.1253703E-006  0.9118800E+02  0.7816164E-02  0.1184000E+00
        -11   -1    0    0    0    0  0.00000000000E+00  0.00000000000E+00  0.45593999997E+02  0.45594000000E+02  0.51100000000E-03 0. -1.
         11   -1    0    0    0    0 -0.00000000000E+00 -0.00000000000E+00 -0.45593999997E+02  0.45594000000E+02  0.51100000000E-03 0.  1.
         23    2    1    2    0    0  0.00000000000E+00 -0.17763568394E-14  0.00000000000E+00  0.91188000000E+02  0.91188000000E+02 0.  0.
    9900012    2    3    3    0    0  0.33519572961E+02  0.11727042077E+02  0.97310832261E+01  0.54367091970E+02  0.40000017764E+02 0.  0.
        -12    1    3    3    0    0 -0.33519572961E+02 -0.11727042077E+02 -0.97310832261E+01  0.36820908030E+02  0.00000000000E+00 0.  1.
         11    1    4    4    0    0  0.11616356589E+02 -0.24873898361E+01 -0.54852076769E+01  0.13084890222E+02  0.51100000000E-03 0. -1.
        -11    1    4    4    0    0 -0.41659849440E+01 -0.45105637721E+01  0.37701824162E+01  0.72051989430E+01  0.51100000000E-03 0.  1.
         12    1    4    4    0    0  0.26069201316E+02  0.18724995686E+02  0.11446108487E+02  0.34077002805E+02  0.00000000000E+00 0. -1.
</event>
<event>
 8    1  0.1253703E-006  0.9118800E+02  0.7816164E-02  0.1184000E+00
        -11   -1    0    0    0    0  0.00000000000E+00  0.00000000000E+00  0.45593999997E+02  0.45594000000E+02  0.51100000000E-03 0.  1.
         11   -1    0    0    0    0 -0.00000000000E+00 -0.00000000000E+00 -0.45593999997E+02  0.45594000000E+02  0.51100000000E-03 0. -1.
         23    2    1    2    0    0  0.00000000000E+00  0.00000000000E+00  0.00000000000E+00  0.91188000000E+02  0.91188000000E+02 0.  0.
    9900012    2    3    3    0    0 -0.26705506700E+02  0.18739228030E+02 -0.17071367591E+02  0.54367158800E+02  0.40000170115E+02 0.  0.
        -12    1    3    3    0    0  0.26705506700E+02 -0.18739228030E+02  0.17071367591E+02  0.36820841200E+02  0.00000000000E+00 0.  1.
         11    1    4    4    0    0 -0.45255765753E+01  0.63424749466E+01 -0.20458621795E+02  0.21892077056E+02  0.51100000000E-03 0. -1.
        -11    1    4    4    0    0  0.15338001049E+01  0.37340592597E+01 -0.44807706593E+01  0.60310071530E+01  0.51100000000E-03 0.  1.
         12    1    4    4    0    0 -0.23713730230E+02  0.86626938242E+01  0.78680248641E+01  0.26444074591E+02  0.00000000000E+00 0. -1.
</event>
<event>
 8    1  0.1253703E-006  0.9118800E+02  0.7816164E-02  0.1184000E+00
        -11   -1    0    0    0    0  0.00000000000E+00  0.00000000000E+00  0.45593999997E+02  0.45594000000E+02  0.51100000000E-03 0. -1.
         11   -1    0    0    0    0 -0.00000000000E+00 -0.00000000000E+00 -0.45593999997E+02  0.45594000000E+02  0.51100000000E-03 0.  1.
         23    2    1    2    0    0  0.35527136788E-14  0.00000000000E+00 -0.35527136788E-14  0.91188000000E+02  0.91188000000E+02 0.  0.
    9900012    2    3    3    0    0  0.17235978688E+02 -0.88849739566E+01  0.31301080477E+02  0.54367090688E+02  0.40000014841E+02 0.  0.
        -12    1    3    3    0    0 -0.17235978688E+02  0.88849739566E+01 -0.31301080477E+02  0.36820909312E+02  0.00000000000E+00 0.  1.
         11    1    4    4    0    0 -0.51206297285E+01 -0.19814968599E+00  0.61399707649E+01  0.79974591821E+01  0.51100000000E-03 0. -1.
        -11    1    4    4    0    0 -0.76889971069E+01 -0.10434325909E+01  0.32863530031E+01  0.84267161103E+01  0.51100000000E-03 0.  1.
        -12    1    4    4    0    0  0.30045605524E+02 -0.76433916797E+01  0.21874756709E+02  0.37942915396E+02  0.00000000000E+00 0.  1.
</event>
<event>
 8    1  0.1253703E-006  0.9118800E+02  0.7816164E-02  0.1184000E+00
        -11   -1    0    0    0    0  0.00000000000E+00  0.00000000000E+00  0.45593999997E+02  0.45594000000E+02  0.51100000000E-03 0. -1.
         11   -1    0    0    0    0 -0.00000000000E+00 -0.00000000000E+00 -0.45593999997E+02  0.45594000000E+02  0.51100000000E-03 0.  1.
         23    2    1    2    0    0  0.00000000000E+00  0.00000000000E+00  0.44408920985E-15  0.91188000000E+02  0.91188000000E+02 0.  0.
    9900012    2    3    3    0    0  0.15327287142E+02  0.33413509617E+02 -0.20956275082E+01  0.54367081887E+02  0.39999994778E+02 0.  0.
        -12    1    3    3    0    0 -0.15327287142E+02 -0.33413509617E+02  0.20956275082E+01  0.36820918113E+02  0.00000000000E+00 0.  1.
         11    1    4    4    0    0  0.18757251330E+02  0.41396081111E+02 -0.43582908004E+00  0.45449531968E+02  0.51100000000E-03 0. -1.
        -11    1    4    4    0    0 -0.24310113162E+01 -0.42485014155E+01 -0.10089426279E+01  0.49977540740E+01  0.51100000000E-03 0.  1.
         12    1    4    4    0    0 -0.99895287247E+00 -0.37340700792E+01 -0.65085580027E+00  0.39197958455E+01  0.00000000000E+00 0. -1.
</event>
<event>
 8    1  0.1253703E-006  0.9118800E+02  0.7816164E-02  0.1184000E+00
        -11   -1    0    0    0    0  0.00000000000E+00  0.00000000000E+00  0.45593999997E+02  0.45594000000E+02  0.51100000000E-03 0. -1.
         11   -1    0    0    0    0 -0.00000000000E+00 -0.00000000000E+00 -0.45593999997E+02  0.45594000000E+02  0.51100000000E-03 0.  1.
         23    2    1    2    0    0 -0.35527136788E-14  0.00000000000E+00  0.00000000000E+00  0.91188000000E+02  0.91188000000E+02 0.  0.
    9900012    2    3    3    0    0  0.22013112228E+02  0.29358987958E+02 -0.30418621208E+01  0.54367079193E+02  0.39999988636E+02 0.  0.
         12    1    3    3    0    0 -0.22013112228E+02 -0.29358987958E+02  0.30418621208E+01  0.36820920807E+02  0.00000000000E+00 0. -1.
         11    1    4    4    0    0  0.17675621096E+00  0.14396870543E+02  0.23283187713E+01  0.14584998895E+02  0.51100000000E-03 0. -1.
        -11    1    4    4    0    0  0.90643850790E+01  0.14425001399E+02  0.10028325173E+02  0.19768941506E+02  0.51100000000E-03 0.  1.
        -12    1    4    4    0    0  0.12771970938E+02  0.53711601570E+00 -0.15398506065E+02  0.20013138792E+02  0.00000000000E+00 0.  1.
</event>
<event>
 8    1  0.1253703E-006  0.9118800E+02  0.7816164E-02  0.1184000E+00
        -11   -1    0    0    0    0  0.00000000000E+00  0.00000000000E+00  0.45593999997E+02  0.45594000000E+02  0.51100000000E-03 0. -1.
         11   -1    0    0    0    0 -0.00000000000E+00 -0.00000000000E+00 -0.45593999997E+02  0.45594000000E+02  0.51100000000E-03 0.  1.
         23    2    1    2    0    0  0.00000000000E+00  0.00000000000E+00  0.35527136788E-14  0.91188000000E+02  0.91188000000E+02 0.  0.
    9900012    2    3    3    0    0  0.65713757268E+01  0.28316616194E+02 -0.22600139143E+02  0.54367081748E+02  0.39999994461E+02 0.  0.
         12    1    3    3    0    0 -0.65713757268E+01 -0.28316616194E+02  0.22600139143E+02  0.36820918252E+02  0.00000000000E+00 0. -1.
         11    1    4    4    0    0 -0.10663703663E+02  0.15276715916E+02 -0.53954670438E+01  0.19395970970E+02  0.51100000000E-03 0. -1.
        -11    1    4    4    0    0  0.88044809614E+01 -0.51797810794E+01 -0.75005307033E+01  0.12673080846E+02  0.51100000000E-03 0.  1.
        -12    1    4    4    0    0  0.84305984283E+01  0.18219681358E+02 -0.97041413962E+01  0.22298029933E+02  0.00000000000E+00 0.  1.
</event>
<event>
 8    1  0.1253703E-006  0.9118800E+02  0.7816164E-02  0.1184000E+00
        -11   -1    0    0    0    0  0.00000000000E+00  0.00000000000E+00  0.45593999997E+02  0.45594000000E+02  0.51100000000E-03 0.  1.
         11   -1    0    0    0    0 -0.00000000000E+00 -0.00000000000E+00 -0.45593999997E+02  0.45594000000E+02  0.51100000000E-03 0. -1.
         23    2    1    2    0    0  0.00000000000E+00  0.88817841970E-15  0.71054273576E-14  0.91188000000E+02  0.91188000000E+02 0.  0.
    9900012    2    3    3    0    0 -0.74905636792E+01  0.72911691038E+01 -0.35305931884E+02  0.54367102166E+02  0.40000041008E+02 0.  0.
        -12    1    3    3    0    0  0.74905636792E+01 -0.72911691038E+01  0.35305931884E+02  0.36820897834E+02  0.00000000000E+00 0.  1.
         11    1    4    4    0    0 -0.50287531041E+01 -0.45727290329E+01  0.23234776755E+01  0.71830882885E+01  0.51100000000E-03 0. -1.
        -11    1    4    4    0    0  0.74228419824E+01  0.11959758323E+02 -0.85474195755E+01  0.16467931986E+02  0.51100000000E-03 0.  1.
         12    1    4    4    0    0 -0.98846525575E+01 -0.95860186397E-01 -0.29081989984E+02  0.30716081891E+02  0.00000000000E+00 0. -1.
</event>
<event>
 8    1  0.1253703E-006  0.9118800E+02  0.7816164E-02  0.1184000E+00
        -11   -1    0    0    0    0  0.00000000000E+00  0.00000000000E+00  0.45593999997E+02  0.45594000000E+02  0.51100000000E-03 0.  1.
         11   -1    0    0    0    0 -0.00000000000E+00 -0.00000000000E+00 -0.45593999997E+02  0.45594000000E+02  0.51100000000E-03 0. -1.
         23    2    1    2    0    0  0.00000000000E+00  0.00000000000E+00  0.00000000000E+00  0.91188000000E+02  0.91188000000E+02 0.  0.
    9900012    2    3    3    0    0 -0.17863339597E+02 -0.25558041933E+02  0.19582316047E+02  0.54367088675E+02  0.40000010253E+02 0.  0.
         12    1    3    3    0    0  0.17863339597E+02  0.25558041933E+02 -0.19582316047E+02  0.36820911325E+02  0.00000000000E+00 0. -1.
         11    1    4    4    0    0 -0.44661687884E+01 -0.93544812464E+01 -0.81879759771E+01  0.13209690909E+02  0.51100000000E-03 0. -1.
        -11    1    4    4    0    0 -0.18103567858E+02 -0.59374079417E+01  0.18323591866E+02  0.26433804141E+02  0.51100000000E-03 0.  1.
        -12    1    4    4    0    0  0.47063970496E+01 -0.10266152745E+02  0.94467001577E+01  0.14723593625E+02  0.00000000000E+00 0.  1.
</event>
<event>
 8    1  0.1253703E-006  0.9118800E+02  0.7816164E-02  0.1184000E+00
        -11   -1    0    0    0    0  0.00000000000E+00  0.00000000000E+00  0.45593999997E+02  0.45594000000E+02  0.51100000000E-03 0. -1.
         11   -1    0    0    0    0 -0.00000000000E+00 -0.00000000000E+00 -0.45593999997E+02  0.45594000000E+02  0.51100000000E-03 0.  1.
         23    2    1    2    0    0 -0.13322676296E-14  0.00000000000E+00  0.00000000000E+00  0.91188000000E+02  0.91188000000E+02 0.  0.
    9900012    2    3    3    0    0 -0.21024757766E+01 -0.17529951109E+02 -0.32311902334E+02  0.54367100735E+02  0.40000037745E+02 0.  0.
         12    1    3    3    0    0  0.21024757766E+01  0.17529951109E+02  0.32311902334E+02  0.36820899265E+02  0.00000000000E+00 0. -1.
         11    1    4    4    0    0 -0.36902115796E+01 -0.45234884858E+01  0.18475413711E+01  0.61231543311E+01  0.51100000000E-03 0.  1.
        -11    1    4    4    0    0 -0.11630609092E+02  0.11193544992E+01 -0.23282674632E+02  0.26050085617E+02  0.51100000000E-03 0. -1.
         12    1    4    4    0    0  0.13218344895E+02 -0.14125817123E+02 -0.10876769073E+02  0.22193860787E+02  0.00000000000E+00 0. -1.
</event>
<event>
 8    1  0.1253703E-006  0.9118800E+02  0.7816164E-02  0.1184000E+00
        -11   -1    0    0    0    0  0.00000000000E+00  0.00000000000E+00  0.45593999997E+02  0.45594000000E+02  0.51100000000E-03 0. -1.
         11   -1    0    0    0    0 -0.00000000000E+00 -0.00000000000E+00 -0.45593999997E+02  0.45594000000E+02  0.51100000000E-03 0.  1.
         23    2    1    2    0    0  0.00000000000E+00  0.88817841970E-15  0.00000000000E+00  0.91188000000E+02  0.91188000000E+02 0.  0.
    9900012    2    3    3    0    0  0.10241570700E+02 -0.65835006567E+01 -0.34749830935E+02  0.54367041276E+02  0.39999902198E+02 0.  0.
         12    1    3    3    0    0 -0.10241570700E+02  0.65835006567E+01  0.34749830935E+02  0.36820958724E+02  0.00000000000E+00 0. -1.
         11    1    4    4    0    0 -0.31631863578E+01 -0.75972821672E+00  0.82441902090E+00  0.33559800179E+01  0.51100000000E-03 0. -1.
        -11    1    4    4    0    0  0.20068069476E+02 -0.14959585422E+02 -0.21824127264E+02  0.33208570274E+02  0.51100000000E-03 0.  1.
        -12    1    4    4    0    0 -0.66633124182E+01  0.91358129823E+01 -0.13750122692E+02  0.17802490985E+02  0.00000000000E+00 0.  1.
</event>
<event>
 8    1  0.1253703E-006  0.9118800E+02  0.7816164E-02  0.1184000E+00
        -11   -1    0    0    0    0  0.00000000000E+00  0.00000000000E+00  0.45593999997E+02  0.45594000000E+02  0.51100000000E-03 0.  1.
         11   -1    0    0    0    0 -0.00000000000E+00 -0.00000000000E+00 -0.45593999997E+02  0.45594000000E+02  0.51100000000E-03 0. -1.
         23    2    1    2    0    0  0.00000000000E+00 -0.17763568394E-14  0.00000000000E+00  0.91188000000E+02  0.91188000000E+02 0.  0.
    9900012    2    3    3    0    0 -0.27814130889E+02 -0.11674750945E+02 -0.21115278336E+02  0.54367072989E+02  0.39999974493E+02 0.  0.
        -12    1    3    3    0    0  0.27814130889E+02  0.11674750945E+02  0.21115278336E+02  0.36820927011E+02  0.00000000000E+00 0.  1.
         11    1    4    4    0    0 -0.64022684018E+01 -0.47087239937E+01  0.27393472533E+01  0.84062563589E+01  0.51100000000E-03 0. -1.
        -11    1    4    4    0    0 -0.23357966235E+02  0.59403494720E+01 -0.79341963064E+01  0.25373880464E+02  0.51100000000E-03 0.  1.
         12    1    4    4    0    0  0.19461037479E+01 -0.12906376423E+02 -0.15920429283E+02  0.20586936167E+02  0.00000000000E+00 0. -1.
</event>
<event>
 8    1  0.1253703E-006  0.9118800E+02  0.7816164E-02  0.1184000E+00
        -11   -1    0    0    0    0  0.00000000000E+00  0.00000000000E+00  0.45593999997E+02  0.45594000000E+02  0.51100000000E-03 0. -1.
         11   -1    0    0    0    0 -0.00000000000E+00 -0.00000000000E+00 -0.45593999997E+02  0.45594000000E+02  0.51100000000E-03 0.  1.
         23    2    1    2    0    0  0.00000000000E+00  0.00000000000E+00  0.00000000000E+00  0.91188000000E+02  0.91188000000E+02 0.  0.
    9900012    2    3    3    0    0  0.95758252562E+01 -0.82773293772E+01 -0.34576991700E+02  0.54367096074E+02  0.40000027119E+02 0.  0.
         12    1    3    3    0    0 -0.95758252562E+01  0.82773293772E+01  0.34576991700E+02  0.36820903926E+02  0.00000000000E+00 0. -1.
         11    1    4    4    0    0  0.70304521364E+01 -0.20488812965E+01 -0.10722222282E+02  0.12984268279E+02  0.51100000000E-03 0. -1.
        -11    1    4    4    0    0  0.14771665366E+02 -0.38812216244E+01 -0.93685703742E+00  0.15301754159E+02  0.51100000000E-03 0.  1.
         12    1    4    4    0    0 -0.12226292246E+02 -0.23472264562E+01 -0.22917912380E+02  0.26081073636E+02  0.00000000000E+00 0. -1.
</event>
<event>
 8    1  0.1253703E-006  0.9118800E+02  0.7816164E-02  0.1184000E+00
        -11   -1    0    0    0    0  0.00000000000E+00  0.00000000000E+00  0.45593999997E+02  0.45594000000E+02  0.51100000000E-03 0. -1.
         11   -1    0    0    0    0 -0.00000000000E+00 -0.00000000000E+00 -0.45593999997E+02  0.45594000000E+02  0.51100000000E-03 0.  1.
         23    2    1    2    0    0  0.11102230246E-14  0.00000000000E+00 -0.17763568394E-14  0.91188000000E+02  0.91188000000E+02 0.  0.
    9900012    2    3    3    0    0  0.14796216931E+01  0.35885781510E+02 -0.81113536006E+01  0.54367181810E+02  0.40000222571E+02 0.  0.
         12    1    3    3    0    0 -0.14796216931E+01 -0.35885781510E+02  0.81113536006E+01  0.36820818190E+02  0.00000000000E+00 0. -1.
         11    1    4    4    0    0 -0.15755365635E+02  0.21274902397E+02 -0.25085005988E+01  0.26592209269E+02  0.51100000000E-03 0. -1.
        -11    1    4    4    0    0  0.17874183723E+02  0.14787210472E+02 -0.11005546541E+01  0.23224109415E+02  0.51100000000E-03 0.  1.
        -12    1    4    4    0    0 -0.63919639459E+00 -0.17633135941E+00 -0.45022983476E+01  0.45508631258E+01  0.00000000000E+00 0.  1.
</event>
<event>
 8    1  0.1253703E-006  0.9118800E+02  0.7816164E-02  0.1184000E+00
        -11   -1    0    0    0    0  0.00000000000E+00  0.00000000000E+00  0.45593999997E+02  0.45594000000E+02  0.51100000000E-03 0.  1.
         11   -1    0    0    0    0 -0.00000000000E+00 -0.00000000000E+00 -0.45593999997E+02  0.45594000000E+02  0.51100000000E-03 0. -1.
         23    2    1    2    0    0 -0.35527136788E-14  0.71054273576E-14  0.00000000000E+00  0.91188000000E+02  0.91188000000E+02 0.  0.
    9900012    2    3    3    0    0  0.27749840087E+02 -0.24133877040E+02  0.18117778574E+01  0.54367079522E+02  0.39999989387E+02 0.  0.
        -12    1    3    3    0    0 -0.27749840087E+02  0.24133877040E+02 -0.18117778574E+01  0.36820920478E+02  0.00000000000E+00 0.  1.
         11    1    4    4    0    0  0.14875053919E+02 -0.18847937936E+02  0.60176602636E+01  0.24753267034E+02  0.51100000000E-03 0. -1.
        -11    1    4    4    0    0 -0.37814715933E+01  0.40460256384E+01  0.58328806030E+01  0.80431553054E+01  0.51100000000E-03 0.  1.
        -12    1    4    4    0    0  0.16656257761E+02 -0.93319647424E+01 -0.10038763009E+02  0.21570657183E+02  0.00000000000E+00 0.  1.
</event>
<event>
 8    1  0.1253703E-006  0.9118800E+02  0.7816164E-02  0.1184000E+00
        -11   -1    0    0    0    0  0.00000000000E+00  0.00000000000E+00  0.45593999997E+02  0.45594000000E+02  0.51100000000E-03 0.  1.
         11   -1    0    0    0    0 -0.00000000000E+00 -0.00000000000E+00 -0.45593999997E+02  0.45594000000E+02  0.51100000000E-03 0. -1.
         23    2    1    2    0    0  0.00000000000E+00  0.17763568394E-14 -0.35527136788E-14  0.91188000000E+02  0.91188000000E+02 0.  0.
    9900012    2    3    3    0    0  0.11147706663E+02  0.14634939416E+02 -0.31895537823E+02  0.54367107173E+02  0.40000052422E+02 0.  0.
        -12    1    3    3    0    0 -0.11147706663E+02 -0.14634939416E+02  0.31895537823E+02  0.36820892827E+02  0.00000000000E+00 0.  1.
         11    1    4    4    0    0 -0.13041160906E+01  0.12567939546E+02 -0.11333867753E+02  0.16973814589E+02  0.51100000000E-03 0. -1.
        -11    1    4    4    0    0  0.97939983285E+01  0.15063264242E+02 -0.11796600574E+02  0.21493815814E+02  0.51100000000E-03 0.  1.
        -12    1    4    4    0    0  0.26578244253E+01 -0.12996264371E+02 -0.87650694960E+01  0.15899476770E+02  0.00000000000E+00 0.  1.
</event>
<event>
 8    1  0.1253703E-006  0.9118800E+02  0.7816164E-02  0.1184000E+00
        -11   -1    0    0    0    0  0.00000000000E+00  0.00000000000E+00  0.45593999997E+02  0.45594000000E+02  0.51100000000E-03 0. -1.
         11   -1    0    0    0    0 -0.00000000000E+00 -0.00000000000E+00 -0.45593999997E+02  0.45594000000E+02  0.51100000000E-03 0.  1.
         23    2    1    2    0    0  0.35527136788E-14  0.00000000000E+00  0.00000000000E+00  0.91188000000E+02  0.91188000000E+02 0.  0.
    9900012    2    3    3    0    0  0.27270169553E+02 -0.19599268650E+02 -0.15099162091E+02  0.54367106815E+02  0.40000051606E+02 0.  0.
         12    1    3    3    0    0 -0.27270169553E+02  0.19599268650E+02  0.15099162091E+02  0.36820893185E+02  0.00000000000E+00 0. -1.
         11    1    4    4    0    0  0.90383457499E+01 -0.23183182033E+02  0.17677393717E+01  0.24945471048E+02  0.51100000000E-03 0. -1.
        -11    1    4    4    0    0 -0.17670941853E+01 -0.26026760451E+01 -0.17475879061E+01  0.35986953478E+01  0.51100000000E-03 0.  1.
         12    1    4    4    0    0  0.19998917989E+02  0.61865894280E+01 -0.15119313557E+02  0.25822940419E+02  0.00000000000E+00 0. -1.
</event>
<event>
 8    1  0.1253703E-006  0.9118800E+02  0.7816164E-02  0.1184000E+00
        -11   -1    0    0    0    0  0.00000000000E+00  0.00000000000E+00  0.45593999997E+02  0.45594000000E+02  0.51100000000E-03 0.  1.
         11   -1    0    0    0    0 -0.00000000000E+00 -0.00000000000E+00 -0.45593999997E+02  0.45594000000E+02  0.51100000000E-03 0. -1.
         23    2    1    2    0    0  0.00000000000E+00  0.00000000000E+00  0.00000000000E+00  0.91188000000E+02  0.91188000000E+02 0.  0.
    9900012    2    3    3    0    0  0.10156200190E+02  0.17566987642E+02  0.30725099660E+02  0.54367092811E+02  0.40000019680E+02 0.  0.
         12    1    3    3    0    0 -0.10156200190E+02 -0.17566987642E+02 -0.30725099660E+02  0.36820907189E+02  0.00000000000E+00 0. -1.
         11    1    4    4    0    0  0.11000912727E+02  0.13395515213E+02  0.18055807962E+02  0.25029424885E+02  0.51100000000E-03 0. -1.
        -11    1    4    4    0    0 -0.57442222269E+01  0.11266586461E+02  0.15734362696E+02  0.20186684452E+02  0.51100000000E-03 0.  1.
         12    1    4    4    0    0  0.48995096897E+01 -0.70951140313E+01 -0.30650709974E+01  0.91509834737E+01  0.00000000000E+00 0. -1.
</event>
<event>
 8    1  0.1253703E-006  0.9118800E+02  0.7816164E-02  0.1184000E+00
        -11   -1    0    0    0    0  0.00000000000E+00  0.00000000000E+00  0.45593999997E+02  0.45594000000E+02  0.51100000000E-03 0.  1.
         11   -1    0    0    0    0 -0.00000000000E+00 -0.00000000000E+00 -0.45593999997E+02  0.45594000000E+02  0.51100000000E-03 0. -1.
         23    2    1    2    0    0  0.00000000000E+00 -0.35527136788E-14  0.00000000000E+00  0.91188000000E+02  0.91188000000E+02 0.  0.
    9900012    2    3    3    0    0 -0.18762550545E+02  0.25002107576E+02  0.19458728592E+02  0.54367071106E+02  0.39999970200E+02 0.  0.
         12    1    3    3    0    0  0.18762550545E+02 -0.25002107576E+02 -0.19458728592E+02  0.36820928894E+02  0.00000000000E+00 0. -1.
         11    1    4    4    0    0  0.47425493986E+01 -0.46903039530E+01  0.12406678530E+02  0.14086035581E+02  0.51100000000E-03 0. -1.
        -11    1    4    4    0    0 -0.13393118030E+02  0.25079522742E+02  0.36954431223E+01  0.28670793007E+02  0.51100000000E-03 0.  1.
        -12    1    4    4    0    0 -0.10111981913E+02  0.46128887866E+01  0.33566069402E+01  0.11610242518E+02  0.00000000000E+00 0.  1.
</event>
<event>
 8    1  0.1253703E-006  0.9118800E+02  0.7816164E-02  0.1184000E+00
        -11   -1    0    0    0    0  0.00000000000E+00  0.00000000000E+00  0.45593999997E+02  0.45594000000E+02  0.51100000000E-03 0. -1.
         11   -1    0    0    0    0 -0.00000000000E+00 -0.00000000000E+00 -0.45593999997E+02  0.45594000000E+02  0.51100000000E-03 0.  1.
         23    2    1    2    0    0  0.00000000000E+00 -0.17763568394E-14  0.00000000000E+00  0.91188000000E+02  0.91188000000E+02 0.  0.
    9900012    2    3    3    0    0  0.35012268293E+02 -0.11284918128E+02  0.16039354594E+01  0.54367069578E+02  0.39999966718E+02 0.  0.
        -12    1    3    3    0    0 -0.35012268293E+02  0.11284918128E+02 -0.16039354594E+01  0.36820930422E+02  0.00000000000E+00 0.  1.
         11    1    4    4    0    0 -0.29745404496E+01 -0.42214234485E+01  0.23798626676E+01  0.56861281551E+01  0.51100000000E-03 0. -1.
        -11    1    4    4    0    0  0.13493227154E+02 -0.49068368283E+01 -0.14596686847E+02  0.20474557232E+02  0.51100000000E-03 0.  1.
         12    1    4    4    0    0  0.24493581588E+02 -0.21566578511E+01  0.13820759639E+02  0.28206384191E+02  0.00000000000E+00 0. -1.
</event>
<event>
 8    1  0.1253703E-006  0.9118800E+02  0.7816164E-02  0.1184000E+00
        -11   -1    0    0    0    0  0.00000000000E+00  0.00000000000E+00  0.45593999997E+02  0.45594000000E+02  0.51100000000E-03 0.  1.
         11   -1    0    0    0    0 -0.00000000000E+00 -0.00000000000E+00 -0.45593999997E+02  0.45594000000E+02  0.51100000000E-03 0. -1.
         23    2    1    2    0    0  0.00000000000E+00 -0.35527136788E-14 -0.88817841970E-15  0.91188000000E+02  0.91188000000E+02 0.  0.
    9900012    2    3    3    0    0  0.21393386998E+02  0.29958530318E+02  0.76774749251E+00  0.54367082272E+02  0.39999995656E+02 0.  0.
         12    1    3    3    0    0 -0.21393386998E+02 -0.29958530318E+02 -0.76774749251E+00  0.36820917728E+02  0.00000000000E+00 0. -1.
         11    1    4    4    0    0  0.14452972587E+02  0.44725875777E+01  0.12556855725E+02  0.19661309270E+02  0.51100000000E-03 0. -1.
        -11    1    4    4    0    0  0.73799124839E+01  0.13085459479E+01  0.63044787538E+00  0.75214935719E+01  0.51100000000E-03 0.  1.
        -12    1    4    4    0    0 -0.43949807276E+00  0.24177396793E+02 -0.12419556108E+02  0.27184279430E+02  0.00000000000E+00 0.  1.
</event>
<event>
 8    1  0.1253703E-006  0.9118800E+02  0.7816164E-02  0.1184000E+00
        -11   -1    0    0    0    0  0.00000000000E+00  0.00000000000E+00  0.45593999997E+02  0.45594000000E+02  0.51100000000E-03 0.  1.
         11   -1    0    0    0    0 -0.00000000000E+00 -0.00000000000E+00 -0.45593999997E+02  0.45594000000E+02  0.51100000000E-03 0. -1.
         23    2    1    2    0    0  0.00000000000E+00 -0.35527136788E-14  0.71054273576E-14  0.91188000000E+02  0.91188000000E+02 0.  0.
    9900012    2    3    3    0    0 -0.60974058486E+01 -0.12452326177E+02 -0.34110714142E+02  0.54367087402E+02  0.40000007351E+02 0.  0.
        -12    1    3    3    0    0  0.60974058486E+01  0.12452326177E+02  0.34110714142E+02  0.36820912598E+02  0.00000000000E+00 0.  1.
         11    1    4    4    0    0 -0.56190600504E+01 -0.24385585450E+02 -0.10645396790E+02  0.27194762118E+02  0.51100000000E-03 0. -1.
        -11    1    4    4    0    0  0.27738778503E+01  0.42553261668E+01 -0.11667846104E+02  0.12725597514E+02  0.51100000000E-03 0.  1.
         12    1    4    4    0    0 -0.32522236486E+01  0.76779331060E+01 -0.11797471247E+02  0.14446727770E+02  0.00000000000E+00 0. -1.
</event>
<event>
 8    1  0.1253703E-006  0.9118800E+02  0.7816164E-02  0.1184000E+00
        -11   -1    0    0    0    0  0.00000000000E+00  0.00000000000E+00  0.45593999997E+02  0.45594000000E+02  0.51100000000E-03 0.  1.
         11   -1    0    0    0    0 -0.00000000000E+00 -0.00000000000E+00 -0.45593999997E+02  0.45594000000E+02  0.51100000000E-03 0. -1.
         23    2    1    2    0    0  0.00000000000E+00 -0.17763568394E-14  0.71054273576E-14  0.91188000000E+02  0.91188000000E+02 0.  0.
    9900012    2    3    3    0    0  0.79164809598E+01  0.71251834033E+01 -0.35246857666E+02  0.54367083599E+02  0.39999998680E+02 0.  0.
        -12    1    3    3    0    0 -0.79164809598E+01 -0.71251834033E+01  0.35246857666E+02  0.36820916401E+02  0.00000000000E+00 0.  1.
         11    1    4    4    0    0  0.11818013384E+02 -0.47301602082E+01 -0.19054541074E+02  0.22915396390E+02  0.51100000000E-03 0. -1.
        -11    1    4    4    0    0 -0.83937408293E+01  0.17457872896E+02 -0.14141041840E+02  0.23983354139E+02  0.51100000000E-03 0.  1.
        -12    1    4    4    0    0  0.44922084051E+01 -0.56025292841E+01 -0.20512747516E+01  0.74683330697E+01  0.00000000000E+00 0.  1.
</event>
<event>
 8    1  0.1253703E-006  0.9118800E+02  0.7816164E-02  0.1184000E+00
        -11   -1    0    0    0    0  0.00000000000E+00  0.00000000000E+00  0.45593999997E+02  0.45594000000E+02  0.51100000000E-03 0.  1.
         11   -1    0    0    0    0 -0.00000000000E+00 -0.00000000000E+00 -0.45593999997E+02  0.45594000000E+02  0.51100000000E-03 0. -1.
         23    2    1    2    0    0 -0.35527136788E-14 -0.44408920985E-15  0.00000000000E+00  0.91188000000E+02  0.91188000000E+02 0.  0.
    9900012    2    3    3    0    0  0.21760904841E+02 -0.16449718591E+01  0.29656993377E+02  0.54367079750E+02  0.39999989906E+02 0.  0.
         12    1    3    3    0    0 -0.21760904841E+02  0.16449718591E+01 -0.29656993377E+02  0.36820920250E+02  0.00000000000E+00 0. -1.
         11    1    4    4    0    0  0.72123441536E+01 -0.17645859235E+02  0.17874697249E+02  0.26132337407E+02  0.51100000000E-03 0. -1.
        -11    1    4    4    0    0  0.75668158580E+00  0.63897596504E+01  0.92004975492E+01  0.11227232554E+02  0.51100000000E-03 0.  1.
         12    1    4    4    0    0  0.13791879101E+02  0.96111277260E+01  0.25817985787E+01  0.17007509789E+02  0.00000000000E+00 0. -1.
</event>
<event>
 8    1  0.1253703E-006  0.9118800E+02  0.7816164E-02  0.1184000E+00
        -11   -1    0    0    0    0  0.00000000000E+00  0.00000000000E+00  0.45593999997E+02  0.45594000000E+02  0.51100000000E-03 0. -1.
         11   -1    0    0    0    0 -0.00000000000E+00 -0.00000000000E+00 -0.45593999997E+02  0.45594000000E+02  0.51100000000E-03 0.  1.
         23    2    1    2    0    0  0.11934897515E-14  0.00000000000E+00 -0.11102230246E-14  0.91188000000E+02  0.91188000000E+02 0.  0.
    9900012    2    3    3    0    0 -0.46986331083E-02  0.36817074173E+02 -0.53165257922E+00  0.54367087095E+02  0.40000006650E+02 0.  0.
         12    1    3    3    0    0  0.46986331083E-02 -0.36817074173E+02  0.53165257922E+00  0.36820912905E+02  0.00000000000E+00 0. -1.
         11    1    4    4    0    0  0.10246323373E+02  0.49440073531E+01  0.33146917971E+01  0.11849790434E+02  0.51100000000E-03 0. -1.
        -11    1    4    4    0    0 -0.42550733818E+01  0.30590655370E+02  0.54684525496E+01  0.31365551470E+02  0.51100000000E-03 0.  1.
         12    1    4    4    0    0 -0.59959486240E+01  0.12824114495E+01 -0.93147969259E+01  0.11151745191E+02  0.00000000000E+00 0. -1.
</event>
<event>
 8    1  0.1253703E-006  0.9118800E+02  0.7816164E-02  0.1184000E+00
        -11   -1    0    0    0    0  0.00000000000E+00  0.00000000000E+00  0.45593999997E+02  0.45594000000E+02  0.51100000000E-03 0.  1.
         11   -1    0    0    0    0 -0.00000000000E+00 -0.00000000000E+00 -0.45593999997E+02  0.45594000000E+02  0.51100000000E-03 0. -1.
         23    2    1    2    0    0  0.00000000000E+00  0.00000000000E+00  0.35527136788E-14  0.91188000000E+02  0.91188000000E+02 0.  0.
    9900012    2    3    3    0    0  0.19004869628E+02  0.25150335663E+02  0.19027759675E+02  0.54367080786E+02  0.39999992267E+02 0.  0.
         12    1    3    3    0    0 -0.19004869628E+02 -0.25150335663E+02 -0.19027759675E+02  0.36820919214E+02  0.00000000000E+00 0. -1.
         11    1    4    4    0    0  0.58623777396E+00 -0.76034390880E+01 -0.13838079395E+00  0.76272609892E+01  0.51100000000E-03 0. -1.
        -11    1    4    4    0    0  0.61202471348E+01  0.90541375907E+01 -0.37494465232E+01  0.11553924961E+02  0.51100000000E-03 0.  1.
        -12    1    4    4    0    0  0.12298384720E+02  0.23699637160E+02  0.22915586992E+02  0.35185894836E+02  0.00000000000E+00 0.  1.
</event>
<event>
 8    1  0.1253703E-006  0.9118800E+02  0.7816164E-02  0.1184000E+00
        -11   -1    0    0    0    0  0.00000000000E+00  0.00000000000E+00  0.45593999997E+02  0.45594000000E+02  0.51100000000E-03 0.  1.
         11   -1    0    0    0    0 -0.00000000000E+00 -0.00000000000E+00 -0.45593999997E+02  0.45594000000E+02  0.51100000000E-03 0. -1.
         23    2    1    2    0    0  0.17763568394E-14 -0.71054273576E-14  0.00000000000E+00  0.91188000000E+02  0.91188000000E+02 0.  0.
    9900012    2    3    3    0    0  0.92279596550E+01  0.35212466271E+02  0.55414128756E+01  0.54367078271E+02  0.39999986535E+02 0.  0.
        -12    1    3    3    0    0 -0.92279596550E+01 -0.35212466271E+02 -0.55414128756E+01  0.36820921729E+02  0.00000000000E+00 0.  1.
         11    1    4    4    0    0 -0.83163562851E+01  0.15466985970E+01 -0.24055741222E+01  0.87943644187E+01  0.51100000000E-03 0. -1.
        -11    1    4    4    0    0  0.76221848308E+01  0.30740201189E+01 -0.63415437766E+01  0.10380870822E+02  0.51100000000E-03 0.  1.
        -12    1    4    4    0    0  0.99221311093E+01  0.30591747555E+02  0.14288530774E+02  0.35191843031E+02  0.00000000000E+00 0.  1.
</event>
<event>
 8    1  0.1253703E-006  0.9118800E+02  0.7816164E-02  0.1184000E+00
        -11   -1    0    0    0    0  0.00000000000E+00  0.00000000000E+00  0.45593999997E+02  0.45594000000E+02  0.51100000000E-03 0. -1.
         11   -1    0    0    0    0 -0.00000000000E+00 -0.00000000000E+00 -0.45593999997E+02  0.45594000000E+02  0.51100000000E-03 0.  1.
         23    2    1    2    0    0 -0.17763568394E-14 -0.71054273576E-14  0.00000000000E+00  0.91188000000E+02  0.91188000000E+02 0.  0.
    9900012    2    3    3    0    0  0.10667078468E+02  0.35139276754E+02 -0.26882660674E+01  0.54367053403E+02  0.39999929844E+02 0.  0.
         12    1    3    3    0    0 -0.10667078468E+02 -0.35139276754E+02  0.26882660674E+01  0.36820946597E+02  0.00000000000E+00 0. -1.
         11    1    4    4    0    0 -0.12359474240E+01  0.11083125936E+02  0.10373039962E+02  0.15230338304E+02  0.51100000000E-03 0. -1.
        -11    1    4    4    0    0  0.15427111471E+01  0.19223755912E+02  0.29014759625E+01  0.19502597572E+02  0.51100000000E-03 0.  1.
         12    1    4    4    0    0  0.10360314745E+02  0.48323949063E+01 -0.15962781992E+02  0.19634117527E+02  0.00000000000E+00 0. -1.
</event>
<event>
 8    1  0.1253703E-006  0.9118800E+02  0.7816164E-02  0.1184000E+00
        -11   -1    0    0    0    0  0.00000000000E+00  0.00000000000E+00  0.45593999997E+02  0.45594000000E+02  0.51100000000E-03 0.  1.
         11   -1    0    0    0    0 -0.00000000000E+00 -0.00000000000E+00 -0.45593999997E+02  0.45594000000E+02  0.51100000000E-03 0. -1.
         23    2    1    2    0    0  0.00000000000E+00  0.17763568394E-14  0.35527136788E-14  0.91188000000E+02  0.91188000000E+02 0.  0.
    9900012    2    3    3    0    0  0.13413999802E+02 -0.12448021666E+02 -0.31951383575E+02  0.54367088191E+02  0.40000009150E+02 0.  0.
        -12    1    3    3    0    0 -0.13413999802E+02  0.12448021666E+02  0.31951383575E+02  0.36820911809E+02  0.00000000000E+00 0.  1.
         11    1    4    4    0    0  0.10487318738E+02 -0.98321094969E+01 -0.17036337335E+02  0.22291052499E+02  0.51100000000E-03 0. -1.
        -11    1    4    4    0    0  0.52569043233E+01 -0.56153949678E+01  0.66566813141E+01  0.10172468240E+02  0.51100000000E-03 0.  1.
         12    1    4    4    0    0 -0.23302232598E+01  0.29994827983E+01 -0.21571727554E+02  0.21903567452E+02  0.00000000000E+00 0. -1.
</event>
<event>
 8    1  0.1253703E-006  0.9118800E+02  0.7816164E-02  0.1184000E+00
        -11   -1    0    0    0    0  0.00000000000E+00  0.00000000000E+00  0.45593999997E+02  0.45594000000E+02  0.51100000000E-03 0. -1.
         11   -1    0    0    0    0 -0.00000000000E+00 -0.00000000000E+00 -0.45593999997E+02  0.45594000000E+02  0.51100000000E-03 0.  1.
         23    2    1    2    0    0  0.00000000000E+00  0.00000000000E+00  0.00000000000E+00  0.91188000000E+02  0.91188000000E+02 0.  0.
    9900012    2    3    3    0    0  0.15718625333E+02 -0.70426207313E+01  0.32543904946E+02  0.54367089660E+02  0.40000012498E+02 0.  0.
        -12    1    3    3    0    0 -0.15718625333E+02  0.70426207313E+01 -0.32543904946E+02  0.36820910340E+02  0.00000000000E+00 0.  1.
         11    1    4    4    0    0 -0.58617233035E+01  0.19064948211E+01  0.13897737129E+02  0.15203342401E+02  0.51100000000E-03 0. -1.
        -11    1    4    4    0    0  0.23828190187E+01 -0.15820955511E+01  0.18378222134E+02  0.18599459720E+02  0.51100000000E-03 0.  1.
        -12    1    4    4    0    0  0.19197529617E+02 -0.73670200014E+01  0.26794568316E+00  0.20564287539E+02  0.00000000000E+00 0.  1.
</event>
<event>
 8    1  0.1253703E-006  0.9118800E+02  0.7816164E-02  0.1184000E+00
        -11   -1    0    0    0    0  0.00000000000E+00  0.00000000000E+00  0.45593999997E+02  0.45594000000E+02  0.51100000000E-03 0.  1.
         11   -1    0    0    0    0 -0.00000000000E+00 -0.00000000000E+00 -0.45593999997E+02  0.45594000000E+02  0.51100000000E-03 0. -1.
         23    2    1    2    0    0 -0.35527136788E-14  0.00000000000E+00  0.00000000000E+00  0.91188000000E+02  0.91188000000E+02 0.  0.
    9900012    2    3    3    0    0  0.17213738113E+02 -0.29550774155E+02  0.13646137999E+02  0.54367107625E+02  0.40000053453E+02 0.  0.
         12    1    3    3    0    0 -0.17213738113E+02  0.29550774155E+02 -0.13646137999E+02  0.36820892375E+02  0.00000000000E+00 0. -1.
         11    1    4    4    0    0 -0.12232205048E+01 -0.18851150185E+02  0.18652260096E+02  0.26547484601E+02  0.51100000000E-03 0. -1.
        -11    1    4    4    0    0  0.15546361739E+02 -0.10679002435E+02  0.31900013396E+01  0.19128684355E+02  0.51100000000E-03 0.  1.
         12    1    4    4    0    0  0.28905968787E+01 -0.20621535696E-01 -0.81961234367E+01  0.86909386692E+01  0.00000000000E+00 0. -1.
</event>
<event>
 8    1  0.1253703E-006  0.9118800E+02  0.7816164E-02  0.1184000E+00
        -11   -1    0    0    0    0  0.00000000000E+00  0.00000000000E+00  0.45593999997E+02  0.45594000000E+02  0.51100000000E-03 0.  1.
         11   -1    0    0    0    0 -0.00000000000E+00 -0.00000000000E+00 -0.45593999997E+02  0.45594000000E+02  0.51100000000E-03 0. -1.
         23    2    1    2    0    0  0.00000000000E+00 -0.17763568394E-14  0.00000000000E+00  0.91188000000E+02  0.91188000000E+02 0.  0.
    9900012    2    3    3    0    0  0.33266450787E+02  0.12518604497E+02 -0.96128570167E+01  0.54367092535E+02  0.40000019051E+02 0.  0.
        -12    1    3    3    0    0 -0.33266450787E+02 -0.12518604497E+02  0.96128570167E+01  0.36820907465E+02  0.00000000000E+00 0.  1.
         11    1    4    4    0    0  0.62923094030E+01  0.30669197953E+01  0.41908340710E+01  0.81585688160E+01  0.51100000000E-03 0.  1.
        -11    1    4    4    0    0  0.27519278326E+02 -0.58636128586E+01 -0.51353363107E+01  0.28601823625E+02  0.51100000000E-03 0. -1.
        -12    1    4    4    0    0 -0.54513694210E+00  0.15315297561E+02 -0.86683547770E+01  0.17606700094E+02  0.00000000000E+00 0.  1.
</event>
<event>
 8    1  0.1253703E-006  0.9118800E+02  0.7816164E-02  0.1184000E+00
        -11   -1    0    0    0    0  0.00000000000E+00  0.00000000000E+00  0.45593999997E+02  0.45594000000E+02  0.51100000000E-03 0. -1.
         11   -1    0    0    0    0 -0.00000000000E+00 -0.00000000000E+00 -0.45593999997E+02  0.45594000000E+02  0.51100000000E-03 0.  1.
         23    2    1    2    0    0  0.35527136788E-14 -0.17763568394E-14  0.00000000000E+00  0.91188000000E+02  0.91188000000E+02 0.  0.
    9900012    2    3    3    0    0 -0.27057881199E+02  0.10628238187E+02  0.22598371650E+02  0.54367152873E+02  0.40000156605E+02 0.  0.
        -12    1    3    3    0    0  0.27057881199E+02 -0.10628238187E+02 -0.22598371650E+02  0.36820847127E+02  0.00000000000E+00 0.  1.
         11    1    4    4    0    0 -0.26875110966E+02 -0.12848184040E+00  0.13459579780E+02  0.30057418138E+02  0.51100000000E-03 0. -1.
        -11    1    4    4    0    0 -0.65202544769E+01  0.13657724074E+02  0.40110746871E+01  0.15656815312E+02  0.51100000000E-03 0.  1.
         12    1    4    4    0    0  0.63374842444E+01 -0.29010040466E+01  0.51277171828E+01  0.86529194226E+01  0.00000000000E+00 0. -1.
</event>
<event>
 8    1  0.1253703E-006  0.9118800E+02  0.7816164E-02  0.1184000E+00
        -11   -1    0    0    0    0  0.00000000000E+00  0.00000000000E+00  0.45593999997E+02  0.45594000000E+02  0.51100000000E-03 0. -1.
         11   -1    0    0    0    0 -0.00000000000E+00 -0.00000000000E+00 -0.45593999997E+02  0.45594000000E+02  0.51100000000E-03 0.  1.
         23    2    1    2    0    0  0.00000000000E+00 -0.33306690739E-15  0.00000000000E+00  0.91188000000E+02  0.91188000000E+02 0.  0.
    9900012    2    3    3    0    0  0.21139609732E+02  0.55498130048E+00  0.30142785786E+02  0.54367100516E+02  0.40000037247E+02 0.  0.
        -12    1    3    3    0    0 -0.21139609732E+02 -0.55498130048E+00 -0.30142785786E+02  0.36820899484E+02  0.00000000000E+00 0.  1.
         11    1    4    4    0    0  0.30207462437E+02  0.47503082007E+01  0.30393296548E+02  0.43113903677E+02  0.51100000000E-03 0. -1.
        -11    1    4    4    0    0 -0.48436896664E+01 -0.74750134144E+00  0.20790697747E+01  0.53237786608E+01  0.51100000000E-03 0.  1.
         12    1    4    4    0    0 -0.42241630387E+01 -0.34478255587E+01 -0.23295805374E+01  0.59294181790E+01  0.00000000000E+00 0. -1.
</event>
<event>
 8    1  0.1253703E-006  0.9118800E+02  0.7816164E-02  0.1184000E+00
        -11   -1    0    0    0    0  0.00000000000E+00  0.00000000000E+00  0.45593999997E+02  0.45594000000E+02  0.51100000000E-03 0.  1.
         11   -1    0    0    0    0 -0.00000000000E+00 -0.00000000000E+00 -0.45593999997E+02  0.45594000000E+02  0.51100000000E-03 0. -1.
         23    2    1    2    0    0  0.35527136788E-14  0.00000000000E+00  0.88817841970E-15  0.91188000000E+02  0.91188000000E+02 0.  0.
    9900012    2    3    3    0    0 -0.29149128530E+02 -0.22424734289E+02 -0.17997408031E+01  0.54367089243E+02  0.40000011547E+02 0.  0.
        -12    1    3    3    0    0  0.29149128530E+02  0.22424734289E+02  0.17997408031E+01  0.36820910757E+02  0.00000000000E+00 0.  1.
         11    1    4    4    0    0 -0.46429096884E+01 -0.19425502536E+02 -0.89079311557E+00  0.19992505390E+02  0.51100000000E-03 0. -1.
        -11    1    4    4    0    0  0.95642039708E+00 -0.71237870347E+01  0.38359885420E+01  0.81472627334E+01  0.51100000000E-03 0.  1.
        -12    1    4    4    0    0 -0.25462639239E+02  0.41245552810E+01 -0.47449362295E+01  0.26227321119E+02  0.00000000000E+00 0.  1.
</event>
<event>
 8    1  0.1253703E-006  0.9118800E+02  0.7816164E-02  0.1184000E+00
        -11   -1    0    0    0    0  0.00000000000E+00  0.00000000000E+00  0.45593999997E+02  0.45594000000E+02  0.51100000000E-03 0.  1.
         11   -1    0    0    0    0 -0.00000000000E+00 -0.00000000000E+00 -0.45593999997E+02  0.45594000000E+02  0.51100000000E-03 0. -1.
         23    2    1    2    0    0  0.00000000000E+00  0.00000000000E+00  0.00000000000E+00  0.91188000000E+02  0.91188000000E+02 0.  0.
    9900012    2    3    3    0    0 -0.92902029166E+01  0.87251393754E+01 -0.34544776741E+02  0.54367115608E+02  0.40000071650E+02 0.  0.
        -12    1    3    3    0    0  0.92902029166E+01 -0.87251393754E+01  0.34544776741E+02  0.36820884392E+02  0.00000000000E+00 0.  1.
         11    1    4    4    0    0 -0.92836531062E+01 -0.36725262276E+01 -0.23944481613E+02  0.25942472201E+02  0.51100000000E-03 0. -1.
        -11    1    4    4    0    0 -0.19755883016E+01 -0.44285858490E+01  0.38232703168E+01  0.61751694661E+01  0.51100000000E-03 0.  1.
        -12    1    4    4    0    0  0.19690384912E+01  0.16826251452E+02 -0.14423565445E+02  0.22249473941E+02  0.00000000000E+00 0.  1.
</event>
<event>
 8    1  0.1253703E-006  0.9118800E+02  0.7816164E-02  0.1184000E+00
        -11   -1    0    0    0    0  0.00000000000E+00  0.00000000000E+00  0.45593999997E+02  0.45594000000E+02  0.51100000000E-03 0. -1.
         11   -1    0    0    0    0 -0.00000000000E+00 -0.00000000000E+00 -0.45593999997E+02  0.45594000000E+02  0.51100000000E-03 0.  1.
         23    2    1    2    0    0  0.00000000000E+00  0.00000000000E+00  0.35527136788E-14  0.91188000000E+02  0.91188000000E+02 0.  0.
    9900012    2    3    3    0    0 -0.17859374568E+02 -0.19147706747E+02 -0.25888101324E+02  0.54367004307E+02  0.39999817919E+02 0.  0.
         12    1    3    3    0    0  0.17859374568E+02  0.19147706747E+02  0.25888101324E+02  0.36820995693E+02  0.00000000000E+00 0. -1.
         11    1    4    4    0    0  0.46459741691E+01 -0.16972659051E+02 -0.22844813097E+02  0.28836465056E+02  0.51100000000E-03 0. -1.
        -11    1    4    4    0    0 -0.11407763270E+02 -0.68274107925E+01 -0.10855943980E+01  0.13339007325E+02  0.51100000000E-03 0.  1.
         12    1    4    4    0    0 -0.11097585467E+02  0.46523630963E+01 -0.19576938293E+01  0.12191531926E+02  0.00000000000E+00 0. -1.
</event>
<event>
 8    1  0.1253703E-006  0.9118800E+02  0.7816164E-02  0.1184000E+00
        -11   -1    0    0    0    0  0.00000000000E+00  0.00000000000E+00  0.45593999997E+02  0.45594000000E+02  0.51100000000E-03 0. -1.
         11   -1    0    0    0    0 -0.00000000000E+00 -0.00000000000E+00 -0.45593999997E+02  0.45594000000E+02  0.51100000000E-03 0.  1.
         23    2    1    2    0    0  0.00000000000E+00  0.00000000000E+00 -0.17763568394E-14  0.91188000000E+02  0.91188000000E+02 0.  0.
    9900012    2    3    3    0    0  0.32859605291E+02 -0.16115437535E+02 -0.40397680555E+01  0.54367072353E+02  0.39999973044E+02 0.  0.
         12    1    3    3    0    0 -0.32859605291E+02  0.16115437535E+02  0.40397680555E+01  0.36820927647E+02  0.00000000000E+00 0. -1.
         11    1    4    4    0    0  0.63299521001E+01  0.24340282323E+01  0.64139204072E+01  0.93344074411E+01  0.51100000000E-03 0. -1.
        -11    1    4    4    0    0  0.24367509797E+02 -0.20624927370E+02  0.22276669959E+01  0.32001963427E+02  0.51100000000E-03 0.  1.
        -12    1    4    4    0    0  0.21621433941E+01  0.20754616021E+01 -0.12681355459E+02  0.13030701485E+02  0.00000000000E+00 0.  1.
</event>
<event>
 8    1  0.1253703E-006  0.9118800E+02  0.7816164E-02  0.1184000E+00
        -11   -1    0    0    0    0  0.00000000000E+00  0.00000000000E+00  0.45593999997E+02  0.45594000000E+02  0.51100000000E-03 0.  1.
         11   -1    0    0    0    0 -0.00000000000E+00 -0.00000000000E+00 -0.45593999997E+02  0.45594000000E+02  0.51100000000E-03 0. -1.
         23    2    1    2    0    0  0.00000000000E+00  0.00000000000E+00  0.00000000000E+00  0.91188000000E+02  0.91188000000E+02 0.  0.
    9900012    2    3    3    0    0  0.20568770954E+02 -0.20985274778E+02 -0.22188313298E+02  0.54367118111E+02  0.40000077358E+02 0.  0.
         12    1    3    3    0    0 -0.20568770954E+02  0.20985274778E+02  0.22188313298E+02  0.36820881889E+02  0.00000000000E+00 0. -1.
         11    1    4    4    0    0  0.55563842067E+01 -0.85702357647E+01 -0.55755872243E+01  0.11636559615E+02  0.51100000000E-03 0. -1.
        -11    1    4    4    0    0  0.21593185810E+02  0.30097287808E+01 -0.13589116204E+02  0.25690235892E+02  0.51100000000E-03 0.  1.
        -12    1    4    4    0    0 -0.65807990625E+01 -0.15424767794E+02 -0.30236098701E+01  0.17040322604E+02  0.00000000000E+00 0.  1.
</event>
<event>
 8    1  0.1253703E-006  0.9118800E+02  0.7816164E-02  0.1184000E+00
        -11   -1    0    0    0    0  0.00000000000E+00  0.00000000000E+00  0.45593999997E+02  0.45594000000E+02  0.51100000000E-03 0.  1.
         11   -1    0    0    0    0 -0.00000000000E+00 -0.00000000000E+00 -0.45593999997E+02  0.45594000000E+02  0.51100000000E-03 0. -1.
         23    2    1    2    0    0  0.17763568394E-14 -0.71054273576E-14  0.00000000000E+00  0.91188000000E+02  0.91188000000E+02 0.  0.
    9900012    2    3    3    0    0  0.77195521277E+01 -0.33509707656E+02  0.13163850203E+02  0.54367096367E+02  0.40000027787E+02 0.  0.
         12    1    3    3    0    0 -0.77195521277E+01  0.33509707656E+02 -0.13163850203E+02  0.36820903633E+02  0.00000000000E+00 0. -1.
         11    1    4    4    0    0 -0.44548314200E+01 -0.60461358578E+00 -0.84743437585E+01  0.95929965583E+01  0.51100000000E-03 0. -1.
        -11    1    4    4    0    0  0.16681695106E+02 -0.24590523544E+02  0.15711683083E+02  0.33612940742E+02  0.51100000000E-03 0.  1.
        -12    1    4    4    0    0 -0.45073115579E+01 -0.83145705256E+01  0.59265108786E+01  0.11161159066E+02  0.00000000000E+00 0.  1.
</event>
<event>
 8    1  0.1253703E-006  0.9118800E+02  0.7816164E-02  0.1184000E+00
        -11   -1    0    0    0    0  0.00000000000E+00  0.00000000000E+00  0.45593999997E+02  0.45594000000E+02  0.51100000000E-03 0.  1.
         11   -1    0    0    0    0 -0.00000000000E+00 -0.00000000000E+00 -0.45593999997E+02  0.45594000000E+02  0.51100000000E-03 0. -1.
         23    2    1    2    0    0 -0.35527136788E-14  0.00000000000E+00  0.35527136788E-14  0.91188000000E+02  0.91188000000E+02 0.  0.
    9900012    2    3    3    0    0  0.25548456344E+02  0.61286814251E+01  0.25797233215E+02  0.54367060317E+02  0.39999945605E+02 0.  0.
         12    1    3    3    0    0 -0.25548456344E+02 -0.61286814251E+01 -0.25797233215E+02  0.36820939683E+02  0.00000000000E+00 0. -1.
         11    1    4    4    0    0 -0.16275425866E+01 -0.36063000870E+01 -0.35238883178E+01  0.52983095726E+01  0.51100000000E-03 0. -1.
        -11    1    4    4    0    0  0.27517828978E+02 -0.19408319339E+01  0.21986025931E+02  0.35275814331E+02  0.51100000000E-03 0.  1.
         12    1    4    4    0    0 -0.34183004771E+00  0.11675813446E+02  0.73350956027E+01  0.13792936414E+02  0.00000000000E+00 0. -1.
</event>
<event>
 8    1  0.1253703E-006  0.9118800E+02  0.7816164E-02  0.1184000E+00
        -11   -1    0    0    0    0  0.00000000000E+00  0.00000000000E+00  0.45593999997E+02  0.45594000000E+02  0.51100000000E-03 0.  1.
         11   -1    0    0    0    0 -0.00000000000E+00 -0.00000000000E+00 -0.45593999997E+02  0.45594000000E+02  0.51100000000E-03 0. -1.
         23    2    1    2    0    0  0.00000000000E+00  0.17763568394E-14  0.00000000000E+00  0.91188000000E+02  0.91188000000E+02 0.  0.
    9900012    2    3    3    0    0  0.51256716686E+01 -0.73293159482E+01  0.35718199729E+02  0.54367066087E+02  0.39999958759E+02 0.  0.
         12    1    3    3    0    0 -0.51256716686E+01  0.73293159482E+01 -0.35718199729E+02  0.36820933913E+02  0.00000000000E+00 0. -1.
         11    1    4    4    0    0 -0.68331974326E+01  0.57856085135E+01 -0.26905922320E+00  0.89575803737E+01  0.51100000000E-03 0. -1.
        -11    1    4    4    0    0  0.36013087282E+01  0.44095723469E+01  0.18229949275E+02  0.19098293214E+02  0.51100000000E-03 0.  1.
         12    1    4    4    0    0  0.83575603730E+01 -0.17524496809E+02  0.17757309677E+02  0.26311192500E+02  0.00000000000E+00 0. -1.
</event>
<event>
 8    1  0.1253703E-006  0.9118800E+02  0.7816164E-02  0.1184000E+00
        -11   -1    0    0    0    0  0.00000000000E+00  0.00000000000E+00  0.45593999997E+02  0.45594000000E+02  0.51100000000E-03 0. -1.
         11   -1    0    0    0    0 -0.00000000000E+00 -0.00000000000E+00 -0.45593999997E+02  0.45594000000E+02  0.51100000000E-03 0.  1.
         23    2    1    2    0    0 -0.71054273576E-14  0.00000000000E+00  0.00000000000E+00  0.91188000000E+02  0.91188000000E+02 0.  0.
    9900012    2    3    3    0    0  0.35663996266E+02 -0.58969985546E+01  0.70057170237E+01  0.54367145955E+02  0.40000140832E+02 0.  0.
         12    1    3    3    0    0 -0.35663996266E+02  0.58969985546E+01 -0.70057170237E+01  0.36820854045E+02  0.00000000000E+00 0. -1.
         11    1    4    4    0    0  0.38991279114E+01 -0.10490596514E+02  0.67249891751E+01  0.13056848523E+02  0.51100000000E-03 0. -1.
        -11    1    4    4    0    0  0.11312114260E+01 -0.76873268812E+01 -0.25690977322E+01  0.81838192359E+01  0.51100000000E-03 0.  1.
         12    1    4    4    0    0  0.30633656929E+02  0.12280924841E+02  0.28498255807E+01  0.33126478195E+02  0.00000000000E+00 0. -1.
</event>
<event>
 8    1  0.1253703E-006  0.9118800E+02  0.7816164E-02  0.1184000E+00
        -11   -1    0    0    0    0  0.00000000000E+00  0.00000000000E+00  0.45593999997E+02  0.45594000000E+02  0.51100000000E-03 0. -1.
         11   -1    0    0    0    0 -0.00000000000E+00 -0.00000000000E+00 -0.45593999997E+02  0.45594000000E+02  0.51100000000E-03 0.  1.
         23    2    1    2    0    0 -0.17763568394E-14  0.00000000000E+00 -0.44408920985E-15  0.91188000000E+02  0.91188000000E+02 0.  0.
    9900012    2    3    3    0    0  0.13679277587E+02  0.34012203787E+02 -0.34391197125E+01  0.54367079504E+02  0.39999989346E+02 0.  0.
        -12    1    3    3    0    0 -0.13679277587E+02 -0.34012203787E+02  0.34391197125E+01  0.36820920496E+02  0.00000000000E+00 0.  1.
         11    1    4    4    0    0  0.13847146918E+01 -0.32493738201E+00  0.63323288831E+01  0.64901008024E+01  0.51100000000E-03 0. -1.
        -11    1    4    4    0    0 -0.75761738972E+01  0.22210019529E+02 -0.66422043359E+01  0.24388568164E+02  0.51100000000E-03 0.  1.
        -12    1    4    4    0    0  0.19870736792E+02  0.12127121640E+02 -0.31292442597E+01  0.23488410538E+02  0.00000000000E+00 0.  1.
</event>
<event>
 8    1  0.1253703E-006  0.9118800E+02  0.7816164E-02  0.1184000E+00
        -11   -1    0    0    0    0  0.00000000000E+00  0.00000000000E+00  0.45593999997E+02  0.45594000000E+02  0.51100000000E-03 0.  1.
         11   -1    0    0    0    0 -0.00000000000E+00 -0.00000000000E+00 -0.45593999997E+02  0.45594000000E+02  0.51100000000E-03 0. -1.
         23    2    1    2    0    0  0.00000000000E+00  0.35527136788E-14  0.33306690739E-15  0.91188000000E+02  0.91188000000E+02 0.  0.
    9900012    2    3    3    0    0  0.32620522748E+02 -0.17063385876E+02  0.72205986178E+00  0.54367095444E+02  0.40000025684E+02 0.  0.
        -12    1    3    3    0    0 -0.32620522748E+02  0.17063385876E+02 -0.72205986178E+00  0.36820904556E+02  0.00000000000E+00 0.  1.
         11    1    4    4    0    0 -0.79538591590E+00 -0.48955469268E+01 -0.67001847857E+01  0.83361558821E+01  0.51100000000E-03 0. -1.
        -11    1    4    4    0    0  0.39958420514E+01 -0.25702937689E+01 -0.96006463174E+01  0.10711936040E+02  0.51100000000E-03 0.  1.
         12    1    4    4    0    0  0.29420066612E+02 -0.95975451798E+01  0.17022890965E+02  0.35319003522E+02  0.00000000000E+00 0. -1.
</event>
<event>
 8    1  0.1253703E-006  0.9118800E+02  0.7816164E-02  0.1184000E+00
        -11   -1    0    0    0    0  0.00000000000E+00  0.00000000000E+00  0.45593999997E+02  0.45594000000E+02  0.51100000000E-03 0. -1.
         11   -1    0    0    0    0 -0.00000000000E+00 -0.00000000000E+00 -0.45593999997E+02  0.45594000000E+02  0.51100000000E-03 0.  1.
         23    2    1    2    0    0 -0.71054273576E-14  0.53290705182E-14  0.17763568394E-14  0.91188000000E+02  0.91188000000E+02 0.  0.
    9900012    2    3    3    0    0  0.31628023070E+02 -0.14140673672E+02 -0.12469549392E+02  0.54367079897E+02  0.39999990240E+02 0.  0.
        -12    1    3    3    0    0 -0.31628023070E+02  0.14140673672E+02  0.12469549392E+02  0.36820920103E+02  0.00000000000E+00 0.  1.
         11    1    4    4    0    0  0.11951425770E+02  0.32278817025E+01  0.77921054964E+01  0.14627805937E+02  0.51100000000E-03 0. -1.
        -11    1    4    4    0    0  0.87129292605E+01  0.11447651797E+01  0.17479172591E+01  0.89599575122E+01  0.51100000000E-03 0.  1.
        -12    1    4    4    0    0  0.10963668040E+02 -0.18513320554E+02 -0.22009572147E+02  0.30779316447E+02  0.00000000000E+00 0.  1.
</event>
<event>
 8    1  0.1253703E-006  0.9118800E+02  0.7816164E-02  0.1184000E+00
        -11   -1    0    0    0    0  0.00000000000E+00  0.00000000000E+00  0.45593999997E+02  0.45594000000E+02  0.51100000000E-03 0.  1.
         11   -1    0    0    0    0 -0.00000000000E+00 -0.00000000000E+00 -0.45593999997E+02  0.45594000000E+02  0.51100000000E-03 0. -1.
         23    2    1    2    0    0  0.35527136788E-14  0.00000000000E+00  0.00000000000E+00  0.91188000000E+02  0.91188000000E+02 0.  0.
    9900012    2    3    3    0    0  0.31429623320E+02  0.18691681416E+02  0.43100059791E+01  0.54367131898E+02  0.40000108788E+02 0.  0.
        -12    1    3    3    0    0 -0.31429623320E+02 -0.18691681416E+02 -0.43100059791E+01  0.36820868102E+02  0.00000000000E+00 0.  1.
         11    1    4    4    0    0 -0.18863767978E+01 -0.46404248224E+01 -0.34805399927E+01  0.60996818653E+01  0.51100000000E-03 0. -1.
        -11    1    4    4    0    0  0.88778934814E+01  0.17146197909E+02 -0.50767853628E+01  0.19964539696E+02  0.51100000000E-03 0.  1.
        -12    1    4    4    0    0  0.24438106637E+02  0.61859083296E+01  0.12867331335E+02  0.28302910337E+02  0.00000000000E+00 0.  1.
</event>
<event>
 8    1  0.1253703E-006  0.9118800E+02  0.7816164E-02  0.1184000E+00
        -11   -1    0    0    0    0  0.00000000000E+00  0.00000000000E+00  0.45593999997E+02  0.45594000000E+02  0.51100000000E-03 0.  1.
         11   -1    0    0    0    0 -0.00000000000E+00 -0.00000000000E+00 -0.45593999997E+02  0.45594000000E+02  0.51100000000E-03 0. -1.
         23    2    1    2    0    0 -0.88817841970E-15  0.71054273576E-14  0.00000000000E+00  0.91188000000E+02  0.91188000000E+02 0.  0.
    9900012    2    3    3    0    0 -0.64294381155E+01  0.36184101442E+02  0.22663945974E+01  0.54367307229E+02  0.40000508487E+02 0.  0.
         12    1    3    3    0    0  0.64294381155E+01 -0.36184101442E+02 -0.22663945974E+01  0.36820692771E+02  0.00000000000E+00 0. -1.
         11    1    4    4    0    0  0.73924218948E+01  0.15060921535E+01  0.45532097653E+01  0.88118065386E+01  0.51100000000E-03 0.  1.
        -11    1    4    4    0    0 -0.72248398710E+01  0.24960818121E+02  0.10649422648E+02  0.28082929966E+02  0.51100000000E-03 0. -1.
         12    1    4    4    0    0 -0.65970201392E+01  0.97171911674E+01 -0.12936237816E+02  0.17472570725E+02  0.00000000000E+00 0. -1.
</event>
<event>
 8    1  0.1253703E-006  0.9118800E+02  0.7816164E-02  0.1184000E+00
        -11   -1    0    0    0    0  0.00000000000E+00  0.00000000000E+00  0.45593999997E+02  0.45594000000E+02  0.51100000000E-03 0. -1.
         11   -1    0    0    0    0 -0.00000000000E+00 -0.00000000000E+00 -0.45593999997E+02  0.45594000000E+02  0.51100000000E-03 0.  1.
         23    2    1    2    0    0  0.00000000000E+00  0.17763568394E-14  0.00000000000E+00  0.91188000000E+02  0.91188000000E+02 0.  0.
    9900012    2    3    3    0    0  0.11776824516E+02  0.13168334895E+02  0.32306044862E+02  0.54367093246E+02  0.40000020673E+02 0.  0.
        -12    1    3    3    0    0 -0.11776824516E+02 -0.13168334895E+02 -0.32306044862E+02  0.36820906754E+02  0.00000000000E+00 0.  1.
         11    1    4    4    0    0  0.69488174884E+01  0.33188656886E+01  0.52429747192E+01  0.93160999411E+01  0.51100000000E-03 0. -1.
        -11    1    4    4    0    0 -0.59017087583E+01  0.16115507001E+02  0.22608878649E+01  0.17310440386E+02  0.51100000000E-03 0.  1.
         12    1    4    4    0    0  0.10729715786E+02 -0.62660377950E+01  0.24802182278E+02  0.27740552919E+02  0.00000000000E+00 0. -1.
</event>
<event>
 8    1  0.1253703E-006  0.9118800E+02  0.7816164E-02  0.1184000E+00
        -11   -1    0    0    0    0  0.00000000000E+00  0.00000000000E+00  0.45593999997E+02  0.45594000000E+02  0.51100000000E-03 0.  1.
         11   -1    0    0    0    0 -0.00000000000E+00 -0.00000000000E+00 -0.45593999997E+02  0.45594000000E+02  0.51100000000E-03 0. -1.
         23    2    1    2    0    0 -0.71054273576E-14  0.00000000000E+00  0.00000000000E+00  0.91188000000E+02  0.91188000000E+02 0.  0.
    9900012    2    3    3    0    0  0.31485748367E+02  0.25230521228E+01 -0.18922526190E+02  0.54367080136E+02  0.39999990786E+02 0.  0.
        -12    1    3    3    0    0 -0.31485748367E+02 -0.25230521228E+01  0.18922526190E+02  0.36820919864E+02  0.00000000000E+00 0.  1.
         11    1    4    4    0    0  0.28917382382E+01 -0.68173772960E+00 -0.62316983210E+01  0.69036932576E+01  0.51100000000E-03 0. -1.
        -11    1    4    4    0    0  0.36608953711E+02 -0.35751651355E+00 -0.78411631602E+01  0.37440982223E+02  0.51100000000E-03 0.  1.
        -12    1    4    4    0    0 -0.80149435827E+01  0.35623063659E+01 -0.48496647089E+01  0.10022404655E+02  0.00000000000E+00 0.  1.
</event>
<event>
 8    1  0.1253703E-006  0.9118800E+02  0.7816164E-02  0.1184000E+00
        -11   -1    0    0    0    0  0.00000000000E+00  0.00000000000E+00  0.45593999997E+02  0.45594000000E+02  0.51100000000E-03 0.  1.
         11   -1    0    0    0    0 -0.00000000000E+00 -0.00000000000E+00 -0.45593999997E+02  0.45594000000E+02  0.51100000000E-03 0. -1.
         23    2    1    2    0    0  0.00000000000E+00 -0.35527136788E-14  0.00000000000E+00  0.91188000000E+02  0.91188000000E+02 0.  0.
    9900012    2    3    3    0    0  0.10299608080E+01  0.17072007989E+02 -0.32607731286E+02  0.54367103546E+02  0.40000044155E+02 0.  0.
        -12    1    3    3    0    0 -0.10299608080E+01 -0.17072007989E+02  0.32607731286E+02  0.36820896454E+02  0.00000000000E+00 0.  1.
         11    1    4    4    0    0 -0.11513179183E+02  0.36261068430E+01 -0.68653091206E+01  0.13886483187E+02  0.51100000000E-03 0. -1.
        -11    1    4    4    0    0 -0.28977361269E+01  0.14080669907E+02 -0.18458588300E+02  0.23396188193E+02  0.51100000000E-03 0.  1.
        -12    1    4    4    0    0  0.15440876118E+02 -0.63476876064E+00 -0.72838338647E+01  0.17084432166E+02  0.00000000000E+00 0.  1.
</event>
<event>
 8    1  0.1253703E-006  0.9118800E+02  0.7816164E-02  0.1184000E+00
        -11   -1    0    0    0    0  0.00000000000E+00  0.00000000000E+00  0.45593999997E+02  0.45594000000E+02  0.51100000000E-03 0.  1.
         11   -1    0    0    0    0 -0.00000000000E+00 -0.00000000000E+00 -0.45593999997E+02  0.45594000000E+02  0.51100000000E-03 0. -1.
         23    2    1    2    0    0  0.17763568394E-14 -0.35527136788E-14  0.35527136788E-14  0.91188000000E+02  0.91188000000E+02 0.  0.
    9900012    2    3    3    0    0 -0.10369421872E+02  0.19880763143E+02 -0.29206339834E+02  0.54367082852E+02  0.39999996979E+02 0.  0.
        -12    1    3    3    0    0  0.10369421872E+02 -0.19880763143E+02  0.29206339834E+02  0.36820917148E+02  0.00000000000E+00 0.  1.
         11    1    4    4    0    0 -0.54582696165E+01  0.17717902091E+02 -0.12699235880E+02  0.22471923680E+02  0.51100000000E-03 0. -1.
        -11    1    4    4    0    0 -0.91798613245E+01  0.12559015569E+02 -0.12525930705E+02  0.19972422645E+02  0.51100000000E-03 0.  1.
        -12    1    4    4    0    0  0.42687090692E+01 -0.10396154517E+02 -0.39811732494E+01  0.11922736528E+02  0.00000000000E+00 0.  1.
</event>
<event>
 8    1  0.1253703E-006  0.9118800E+02  0.7816164E-02  0.1184000E+00
        -11   -1    0    0    0    0  0.00000000000E+00  0.00000000000E+00  0.45593999997E+02  0.45594000000E+02  0.51100000000E-03 0.  1.
         11   -1    0    0    0    0 -0.00000000000E+00 -0.00000000000E+00 -0.45593999997E+02  0.45594000000E+02  0.51100000000E-03 0. -1.
         23    2    1    2    0    0  0.00000000000E+00  0.00000000000E+00  0.00000000000E+00  0.91188000000E+02  0.91188000000E+02 0.  0.
    9900012    2    3    3    0    0 -0.11486588372E+02  0.32773028776E+02 -0.12238090744E+02  0.54367027815E+02  0.39999871510E+02 0.  0.
        -12    1    3    3    0    0  0.11486588372E+02 -0.32773028776E+02  0.12238090744E+02  0.36820972185E+02  0.00000000000E+00 0.  1.
         11    1    4    4    0    0 -0.12081902707E+02  0.14010918362E+02 -0.86704896558E+01  0.20431730164E+02  0.51100000000E-03 0. -1.
        -11    1    4    4    0    0  0.56038190475E+01  0.18633532957E+02 -0.12898169822E+02  0.23344680837E+02  0.51100000000E-03 0.  1.
        -12    1    4    4    0    0 -0.50085047119E+01  0.12857745797E+00  0.93305687335E+01  0.10590616814E+02  0.00000000000E+00 0.  1.
</event>
<event>
 8    1  0.1253703E-006  0.9118800E+02  0.7816164E-02  0.1184000E+00
        -11   -1    0    0    0    0  0.00000000000E+00  0.00000000000E+00  0.45593999997E+02  0.45594000000E+02  0.51100000000E-03 0.  1.
         11   -1    0    0    0    0 -0.00000000000E+00 -0.00000000000E+00 -0.45593999997E+02  0.45594000000E+02  0.51100000000E-03 0. -1.
         23    2    1    2    0    0  0.17763568394E-14  0.00000000000E+00  0.00000000000E+00  0.91188000000E+02  0.91188000000E+02 0.  0.
    9900012    2    3    3    0    0  0.12042679508E+02 -0.33003723520E+02  0.11023069520E+02  0.54367082609E+02  0.39999996423E+02 0.  0.
         12    1    3    3    0    0 -0.12042679508E+02  0.33003723520E+02 -0.11023069520E+02  0.36820917391E+02  0.00000000000E+00 0. -1.
         11    1    4    4    0    0  0.70544970887E+01 -0.13166932275E+00 -0.38130682256E+01  0.80201468527E+01  0.51100000000E-03 0. -1.
        -11    1    4    4    0    0  0.16973057592E+02 -0.20913413626E+02  0.10107798908E+02  0.28768440218E+02  0.51100000000E-03 0.  1.
         12    1    4    4    0    0 -0.11984875173E+02 -0.11958640570E+02  0.47283388376E+01  0.17578495538E+02  0.00000000000E+00 0. -1.
</event>
<event>
 8    1  0.1253703E-006  0.9118800E+02  0.7816164E-02  0.1184000E+00
        -11   -1    0    0    0    0  0.00000000000E+00  0.00000000000E+00  0.45593999997E+02  0.45594000000E+02  0.51100000000E-03 0.  1.
         11   -1    0    0    0    0 -0.00000000000E+00 -0.00000000000E+00 -0.45593999997E+02  0.45594000000E+02  0.51100000000E-03 0. -1.
         23    2    1    2    0    0 -0.17763568394E-14  0.00000000000E+00  0.00000000000E+00  0.91188000000E+02  0.91188000000E+02 0.  0.
    9900012    2    3    3    0    0  0.13085576543E+02  0.12373808162E+02 -0.32115945495E+02  0.54367117380E+02  0.40000075690E+02 0.  0.
        -12    1    3    3    0    0 -0.13085576543E+02 -0.12373808162E+02  0.32115945495E+02  0.36820882620E+02  0.00000000000E+00 0.  1.
         11    1    4    4    0    0  0.73046269285E+01 -0.32627740967E+01 -0.28624690863E+02  0.29721645254E+02  0.51100000000E-03 0. -1.
        -11    1    4    4    0    0  0.12185713127E+00  0.13611567333E+02 -0.91409393298E+01  0.16396535808E+02  0.51100000000E-03 0.  1.
         12    1    4    4    0    0  0.56590924832E+01  0.20250149257E+01  0.56496846975E+01  0.82489363171E+01  0.00000000000E+00 0. -1.
</event>
<event>
 8    1  0.1253703E-006  0.9118800E+02  0.7816164E-02  0.1184000E+00
        -11   -1    0    0    0    0  0.00000000000E+00  0.00000000000E+00  0.45593999997E+02  0.45594000000E+02  0.51100000000E-03 0.  1.
         11   -1    0    0    0    0 -0.00000000000E+00 -0.00000000000E+00 -0.45593999997E+02  0.45594000000E+02  0.51100000000E-03 0. -1.
         23    2    1    2    0    0 -0.88817841970E-15 -0.88817841970E-15 -0.71054273576E-14  0.91188000000E+02  0.91188000000E+02 0.  0.
    9900012    2    3    3    0    0  0.56164935314E+01 -0.48817350226E+01 -0.36061101316E+02  0.54367090661E+02  0.40000014780E+02 0.  0.
        -12    1    3    3    0    0 -0.56164935314E+01  0.48817350226E+01  0.36061101316E+02  0.36820909339E+02  0.00000000000E+00 0.  1.
         11    1    4    4    0    0 -0.62867591079E+01 -0.30969873095E+01 -0.65877507086E+01  0.96183746099E+01  0.51100000000E-03 0. -1.
        -11    1    4    4    0    0 -0.41640730571E+01 -0.11535072075E+02 -0.36217344958E+01  0.12787273096E+02  0.51100000000E-03 0.  1.
         12    1    4    4    0    0  0.16067325696E+02  0.97503243619E+01 -0.25851616112E+02  0.31961442955E+02  0.00000000000E+00 0. -1.
</event>
<event>
 8    1  0.1253703E-006  0.9118800E+02  0.7816164E-02  0.1184000E+00
        -11   -1    0    0    0    0  0.00000000000E+00  0.00000000000E+00  0.45593999997E+02  0.45594000000E+02  0.51100000000E-03 0. -1.
         11   -1    0    0    0    0 -0.00000000000E+00 -0.00000000000E+00 -0.45593999997E+02  0.45594000000E+02  0.51100000000E-03 0.  1.
         23    2    1    2    0    0 -0.35527136788E-14  0.00000000000E+00  0.00000000000E+00  0.91188000000E+02  0.91188000000E+02 0.  0.
    9900012    2    3    3    0    0  0.23143345783E+02 -0.18955801299E+02  0.21467231503E+02  0.54367097168E+02  0.40000029614E+02 0.  0.
        -12    1    3    3    0    0 -0.23143345783E+02  0.18955801299E+02 -0.21467231503E+02  0.36820902832E+02  0.00000000000E+00 0.  1.
         11    1    4    4    0    0  0.41129800326E+01 -0.34169036160E+01  0.92967851737E+01  0.10724833327E+02  0.51100000000E-03 0. -1.
        -11    1    4    4    0    0 -0.50171276514E+00 -0.20484280982E+02  0.11468613326E+02  0.23481622068E+02  0.51100000000E-03 0.  1.
         12    1    4    4    0    0  0.19532078516E+02  0.49453832991E+01  0.70183300278E+00  0.20160641773E+02  0.00000000000E+00 0. -1.
</event>
<event>
 8    1  0.1253703E-006  0.9118800E+02  0.7816164E-02  0.1184000E+00
        -11   -1    0    0    0    0  0.00000000000E+00  0.00000000000E+00  0.45593999997E+02  0.45594000000E+02  0.51100000000E-03 0. -1.
         11   -1    0    0    0    0 -0.00000000000E+00 -0.00000000000E+00 -0.45593999997E+02  0.45594000000E+02  0.51100000000E-03 0.  1.
         23    2    1    2    0    0  0.00000000000E+00  0.00000000000E+00 -0.44408920985E-15  0.91188000000E+02  0.91188000000E+02 0.  0.
    9900012    2    3    3    0    0 -0.10352824508E+02 -0.35331040073E+02 -0.56110988802E+00  0.54367106308E+02  0.40000050451E+02 0.  0.
        -12    1    3    3    0    0  0.10352824508E+02  0.35331040073E+02  0.56110988802E+00  0.36820893692E+02  0.00000000000E+00 0.  1.
         11    1    4    4    0    0  0.14426714867E+01 -0.30839003288E+02  0.10515765016E+02  0.32614517303E+02  0.51100000000E-03 0. -1.
        -11    1    4    4    0    0 -0.20203075121E+01  0.12561390782E+01  0.29019824470E+01  0.37524698814E+01  0.51100000000E-03 0.  1.
         12    1    4    4    0    0 -0.97751884823E+01 -0.57481758639E+01 -0.13978857351E+02  0.18000119124E+02  0.00000000000E+00 0. -1.
</event>
<event>
 8    1  0.1253703E-006  0.9118800E+02  0.7816164E-02  0.1184000E+00
        -11   -1    0    0    0    0  0.00000000000E+00  0.00000000000E+00  0.45593999997E+02  0.45594000000E+02  0.51100000000E-03 0.  1.
         11   -1    0    0    0    0 -0.00000000000E+00 -0.00000000000E+00 -0.45593999997E+02  0.45594000000E+02  0.51100000000E-03 0. -1.
         23    2    1    2    0    0  0.00000000000E+00  0.00000000000E+00  0.00000000000E+00  0.91188000000E+02  0.91188000000E+02 0.  0.
    9900012    2    3    3    0    0  0.21807246198E+02  0.26769853607E+01  0.29547504336E+02  0.54367119377E+02  0.40000080243E+02 0.  0.
         12    1    3    3    0    0 -0.21807246198E+02 -0.26769853607E+01 -0.29547504336E+02  0.36820880623E+02  0.00000000000E+00 0. -1.
         11    1    4    4    0    0  0.22949173738E+02  0.25345902026E+01 -0.83202047338E+00  0.23103700593E+02  0.51100000000E-03 0. -1.
        -11    1    4    4    0    0 -0.35303657549E+01 -0.20832236479E+01  0.15830869604E+02  0.16352973302E+02  0.51100000000E-03 0.  1.
         12    1    4    4    0    0  0.23884382151E+01  0.22256188060E+01  0.14548655206E+02  0.14910445482E+02  0.00000000000E+00 0. -1.
</event>
<event>
 8    1  0.1253703E-006  0.9118800E+02  0.7816164E-02  0.1184000E+00
        -11   -1    0    0    0    0  0.00000000000E+00  0.00000000000E+00  0.45593999997E+02  0.45594000000E+02  0.51100000000E-03 0.  1.
         11   -1    0    0    0    0 -0.00000000000E+00 -0.00000000000E+00 -0.45593999997E+02  0.45594000000E+02  0.51100000000E-03 0. -1.
         23    2    1    2    0    0  0.35527136788E-14 -0.44408920985E-15  0.00000000000E+00  0.91188000000E+02  0.91188000000E+02 0.  0.
    9900012    2    3    3    0    0  0.24850032529E+02  0.38859966372E+01  0.26891536522E+02  0.54367084435E+02  0.40000000586E+02 0.  0.
         12    1    3    3    0    0 -0.24850032529E+02 -0.38859966372E+01 -0.26891536522E+02  0.36820915565E+02  0.00000000000E+00 0. -1.
         11    1    4    4    0    0  0.40474198816E+01  0.68518126620E+01 -0.12865593170E+01  0.80612765484E+01  0.51100000000E-03 0. -1.
        -11    1    4    4    0    0  0.22964122275E+02  0.33599774985E+01  0.72174478045E+01  0.24304977139E+02  0.51100000000E-03 0.  1.
        -12    1    4    4    0    0 -0.21615096270E+01 -0.63257935233E+01  0.20960648034E+02  0.22000830747E+02  0.00000000000E+00 0.  1.
</event>
<event>
 8    1  0.1253703E-006  0.9118800E+02  0.7816164E-02  0.1184000E+00
        -11   -1    0    0    0    0  0.00000000000E+00  0.00000000000E+00  0.45593999997E+02  0.45594000000E+02  0.51100000000E-03 0. -1.
         11   -1    0    0    0    0 -0.00000000000E+00 -0.00000000000E+00 -0.45593999997E+02  0.45594000000E+02  0.51100000000E-03 0.  1.
         23    2    1    2    0    0  0.35527136788E-14 -0.35527136788E-14  0.00000000000E+00  0.91188000000E+02  0.91188000000E+02 0.  0.
    9900012    2    3    3    0    0  0.20425601649E+02 -0.30124673124E+02  0.55747665959E+01  0.54367093490E+02  0.40000021230E+02 0.  0.
         12    1    3    3    0    0 -0.20425601649E+02  0.30124673124E+02 -0.55747665959E+01  0.36820906510E+02  0.00000000000E+00 0. -1.
         11    1    4    4    0    0  0.47366055090E+00  0.46016029177E+01  0.60006078563E+01  0.75767010391E+01  0.51100000000E-03 0. -1.
        -11    1    4    4    0    0  0.71903158718E+01  0.23580771217E+01  0.11341759238E+00  0.75679610107E+01  0.51100000000E-03 0.  1.
        -12    1    4    4    0    0  0.12761625227E+02 -0.37084353164E+02 -0.53925885276E+00  0.39222431441E+02  0.00000000000E+00 0.  1.
</event>
<event>
 8    1  0.1253703E-006  0.9118800E+02  0.7816164E-02  0.1184000E+00
        -11   -1    0    0    0    0  0.00000000000E+00  0.00000000000E+00  0.45593999997E+02  0.45594000000E+02  0.51100000000E-03 0.  1.
         11   -1    0    0    0    0 -0.00000000000E+00 -0.00000000000E+00 -0.45593999997E+02  0.45594000000E+02  0.51100000000E-03 0. -1.
         23    2    1    2    0    0  0.00000000000E+00  0.00000000000E+00  0.00000000000E+00  0.91188000000E+02  0.91188000000E+02 0.  0.
    9900012    2    3    3    0    0 -0.18397755660E+02  0.25964154239E+02  0.18524766236E+02  0.54367059182E+02  0.39999943016E+02 0.  0.
         12    1    3    3    0    0  0.18397755660E+02 -0.25964154239E+02 -0.18524766236E+02  0.36820940818E+02  0.00000000000E+00 0. -1.
         11    1    4    4    0    0 -0.34054438211E+01 -0.34983138811E+01 -0.54910862085E+00  0.49129184980E+01  0.51100000000E-03 0. -1.
        -11    1    4    4    0    0 -0.21458470652E+02  0.18851883903E+02  0.24060269115E+01  0.28664410951E+02  0.51100000000E-03 0.  1.
        -12    1    4    4    0    0  0.64661588130E+01  0.10610584217E+02  0.16667847946E+02  0.20789729733E+02  0.00000000000E+00 0.  1.
</event>
<event>
 8    1  0.1253703E-006  0.9118800E+02  0.7816164E-02  0.1184000E+00
        -11   -1    0    0    0    0  0.00000000000E+00  0.00000000000E+00  0.45593999997E+02  0.45594000000E+02  0.51100000000E-03 0.  1.
         11   -1    0    0    0    0 -0.00000000000E+00 -0.00000000000E+00 -0.45593999997E+02  0.45594000000E+02  0.51100000000E-03 0. -1.
         23    2    1    2    0    0  0.88817841970E-15  0.00000000000E+00 -0.17763568394E-14  0.91188000000E+02  0.91188000000E+02 0.  0.
    9900012    2    3    3    0    0 -0.45122084361E+01 -0.33504366061E+02 -0.14590303534E+02  0.54367088450E+02  0.40000009740E+02 0.  0.
        -12    1    3    3    0    0  0.45122084361E+01  0.33504366061E+02  0.14590303534E+02  0.36820911550E+02  0.00000000000E+00 0.  1.
         11    1    4    4    0    0 -0.60031253793E+01 -0.33257701394E+02 -0.80990589775E+01  0.34752078685E+02  0.51100000000E-03 0. -1.
        -11    1    4    4    0    0 -0.84754202090E+01  0.19166621948E+00 -0.22222955797E+01  0.87640219970E+01  0.51100000000E-03 0.  1.
         12    1    4    4    0    0  0.99663371521E+01 -0.43833088689E+00 -0.42689489765E+01  0.10850987769E+02  0.00000000000E+00 0. -1.
</event>
<event>
 8    1  0.1253703E-006  0.9118800E+02  0.7816164E-02  0.1184000E+00
        -11   -1    0    0    0    0  0.00000000000E+00  0.00000000000E+00  0.45593999997E+02  0.45594000000E+02  0.51100000000E-03 0. -1.
         11   -1    0    0    0    0 -0.00000000000E+00 -0.00000000000E+00 -0.45593999997E+02  0.45594000000E+02  0.51100000000E-03 0.  1.
         23    2    1    2    0    0 -0.35527136788E-14  0.00000000000E+00  0.00000000000E+00  0.91188000000E+02  0.91188000000E+02 0.  0.
    9900012    2    3    3    0    0 -0.30965072414E+02  0.18685166811E+02  0.69142598994E+01  0.54367107041E+02  0.40000052122E+02 0.  0.
        -12    1    3    3    0    0  0.30965072414E+02 -0.18685166811E+02 -0.69142598994E+01  0.36820892959E+02  0.00000000000E+00 0.  1.
         11    1    4    4    0    0 -0.34282249891E+01  0.84162939088E+01  0.13072949421E+01  0.91812717018E+01  0.51100000000E-03 0. -1.
        -11    1    4    4    0    0 -0.61603130869E+01  0.20120127391E+02  0.23536397734E+00  0.21043392787E+02  0.51100000000E-03 0.  1.
         12    1    4    4    0    0 -0.21376534338E+02 -0.98512544887E+01  0.53716009799E+01  0.24142442552E+02  0.00000000000E+00 0. -1.
</event>
<event>
 8    1  0.1253703E-006  0.9118800E+02  0.7816164E-02  0.1184000E+00
        -11   -1    0    0    0    0  0.00000000000E+00  0.00000000000E+00  0.45593999997E+02  0.45594000000E+02  0.51100000000E-03 0. -1.
         11   -1    0    0    0    0 -0.00000000000E+00 -0.00000000000E+00 -0.45593999997E+02  0.45594000000E+02  0.51100000000E-03 0.  1.
         23    2    1    2    0    0  0.44408920985E-15  0.00000000000E+00  0.00000000000E+00  0.91188000000E+02  0.91188000000E+02 0.  0.
    9900012    2    3    3    0    0 -0.34162183865E+01 -0.36506200981E+02 -0.33773430930E+01  0.54367086044E+02  0.40000004255E+02 0.  0.
         12    1    3    3    0    0  0.34162183865E+01  0.36506200981E+02  0.33773430930E+01  0.36820913956E+02  0.00000000000E+00 0. -1.
         11    1    4    4    0    0  0.16298387504E+01 -0.92181406414E+01  0.30605678162E+01  0.98487342769E+01  0.51100000000E-03 0. -1.
        -11    1    4    4    0    0 -0.45686799917E+01 -0.35515648146E+02 -0.53290585323E+01  0.36202665167E+02  0.51100000000E-03 0.  1.
        -12    1    4    4    0    0 -0.47737714520E+00  0.82275878059E+01 -0.11088523769E+01  0.83156866004E+01  0.00000000000E+00 0.  1.
</event>
<event>
 8    1  0.1253703E-006  0.9118800E+02  0.7816164E-02  0.1184000E+00
        -11   -1    0    0    0    0  0.00000000000E+00  0.00000000000E+00  0.45593999997E+02  0.45594000000E+02  0.51100000000E-03 0. -1.
         11   -1    0    0    0    0 -0.00000000000E+00 -0.00000000000E+00 -0.45593999997E+02  0.45594000000E+02  0.51100000000E-03 0.  1.
         23    2    1    2    0    0  0.88817841970E-15 -0.17763568394E-14  0.00000000000E+00  0.91188000000E+02  0.91188000000E+02 0.  0.
    9900012    2    3    3    0    0  0.63625573870E+01 -0.90701943842E+01  0.35114682873E+02  0.54366925655E+02  0.39999638614E+02 0.  0.
        -12    1    3    3    0    0 -0.63625573870E+01  0.90701943842E+01 -0.35114682873E+02  0.36821074345E+02  0.00000000000E+00 0.  1.
         11    1    4    4    0    0  0.47104705282E+01 -0.63611160535E+01  0.76110427148E+01  0.10980906224E+02  0.51100000000E-03 0. -1.
        -11    1    4    4    0    0 -0.14007849758E+02 -0.20260754216E+01  0.23122534616E+02  0.27110448978E+02  0.51100000000E-03 0.  1.
        -12    1    4    4    0    0  0.15659936616E+02 -0.68300290915E+00  0.43811055418E+01  0.16275570453E+02  0.00000000000E+00 0.  1.
</event>
<event>
 8    1  0.1253703E-006  0.9118800E+02  0.7816164E-02  0.1184000E+00
        -11   -1    0    0    0    0  0.00000000000E+00  0.00000000000E+00  0.45593999997E+02  0.45594000000E+02  0.51100000000E-03 0.  1.
         11   -1    0    0    0    0 -0.00000000000E+00 -0.00000000000E+00 -0.45593999997E+02  0.45594000000E+02  0.51100000000E-03 0. -1.
         23    2    1    2    0    0  0.43021142204E-15 -0.35527136788E-14 -0.35527136788E-14  0.91188000000E+02  0.91188000000E+02 0.  0.
    9900012    2    3    3    0    0 -0.89588792243E-01  0.23758290977E+02  0.28130316681E+02  0.54367093807E+02  0.40000021952E+02 0.  0.
         12    1    3    3    0    0  0.89588792243E-01 -0.23758290977E+02 -0.28130316681E+02  0.36820906193E+02  0.00000000000E+00 0. -1.
         11    1    4    4    0    0  0.44694028970E+01  0.12694727614E+01  0.19913466575E-01  0.46462372039E+01  0.51100000000E-03 0. -1.
        -11    1    4    4    0    0  0.97418244066E+01 -0.42079695070E+01  0.57048645431E+01  0.12048055024E+02  0.51100000000E-03 0.  1.
         12    1    4    4    0    0 -0.14300816096E+02  0.26696787722E+02  0.22405538671E+02  0.37672801579E+02  0.00000000000E+00 0. -1.
</event>
<event>
 8    1  0.1253703E-006  0.9118800E+02  0.7816164E-02  0.1184000E+00
        -11   -1    0    0    0    0  0.00000000000E+00  0.00000000000E+00  0.45593999997E+02  0.45594000000E+02  0.51100000000E-03 0. -1.
         11   -1    0    0    0    0 -0.00000000000E+00 -0.00000000000E+00 -0.45593999997E+02  0.45594000000E+02  0.51100000000E-03 0.  1.
         23    2    1    2    0    0 -0.71054273576E-14  0.00000000000E+00 -0.35527136788E-14  0.91188000000E+02  0.91188000000E+02 0.  0.
    9900012    2    3    3    0    0 -0.27584444038E+02  0.10223949229E+02 -0.22143866962E+02  0.54367061192E+02  0.39999947598E+02 0.  0.
         12    1    3    3    0    0  0.27584444038E+02 -0.10223949229E+02  0.22143866962E+02  0.36820938808E+02  0.00000000000E+00 0. -1.
         11    1    4    4    0    0 -0.79826675555E+01  0.96451450101E+01 -0.86194894197E+00  0.12549691622E+02  0.51100000000E-03 0. -1.
        -11    1    4    4    0    0 -0.19190566125E+02  0.12528453906E+02 -0.88466327805E+01  0.24566295962E+02  0.51100000000E-03 0.  1.
         12    1    4    4    0    0 -0.41121035762E+00 -0.11949649688E+02 -0.12435285239E+02  0.17251073608E+02  0.00000000000E+00 0. -1.
</event>
<event>
 8    1  0.1253703E-006  0.9118800E+02  0.7816164E-02  0.1184000E+00
        -11   -1    0    0    0    0  0.00000000000E+00  0.00000000000E+00  0.45593999997E+02  0.45594000000E+02  0.51100000000E-03 0. -1.
         11   -1    0    0    0    0 -0.00000000000E+00 -0.00000000000E+00 -0.45593999997E+02  0.45594000000E+02  0.51100000000E-03 0.  1.
         23    2    1    2    0    0  0.17763568394E-14 -0.35527136788E-14  0.00000000000E+00  0.91188000000E+02  0.91188000000E+02 0.  0.
    9900012    2    3    3    0    0  0.11358522436E+01 -0.30061515286E+02  0.21231892158E+02  0.54367107748E+02  0.40000053733E+02 0.  0.
        -12    1    3    3    0    0 -0.11358522436E+01  0.30061515286E+02 -0.21231892158E+02  0.36820892252E+02  0.00000000000E+00 0.  1.
         11    1    4    4    0    0 -0.75604442020E+01 -0.21483528256E+02  0.22505589069E+02  0.32018804513E+02  0.51100000000E-03 0. -1.
        -11    1    4    4    0    0  0.12617975915E+02 -0.69891491957E+01  0.45723083168E+01  0.15131672951E+02  0.51100000000E-03 0.  1.
         12    1    4    4    0    0 -0.39216794698E+01 -0.15888378346E+01 -0.58460052280E+01  0.72166302839E+01  0.00000000000E+00 0. -1.
</event>
<event>
 8    1  0.1253703E-006  0.9118800E+02  0.7816164E-02  0.1184000E+00
        -11   -1    0    0    0    0  0.00000000000E+00  0.00000000000E+00  0.45593999997E+02  0.45594000000E+02  0.51100000000E-03 0. -1.
         11   -1    0    0    0    0 -0.00000000000E+00 -0.00000000000E+00 -0.45593999997E+02  0.45594000000E+02  0.51100000000E-03 0.  1.
         23    2    1    2    0    0  0.88817841970E-15  0.71054273576E-14  0.33306690739E-15  0.91188000000E+02  0.91188000000E+02 0.  0.
    9900012    2    3    3    0    0  0.36786343375E+01  0.36624409715E+02 -0.94855520257E+00  0.54367088896E+02  0.40000010756E+02 0.  0.
         12    1    3    3    0    0 -0.36786343375E+01 -0.36624409715E+02  0.94855520257E+00  0.36820911104E+02  0.00000000000E+00 0. -1.
         11    1    4    4    0    0  0.77449074484E+01  0.19007268317E+02  0.50225679627E+01  0.21130216029E+02  0.51100000000E-03 0. -1.
        -11    1    4    4    0    0  0.77695842134E+01  0.18880735389E+02 -0.13273013931E+01  0.20459969133E+02  0.51100000000E-03 0.  1.
         12    1    4    4    0    0 -0.11835857324E+02 -0.12635939906E+01 -0.46438217722E+01  0.12776903734E+02  0.00000000000E+00 0. -1.
</event>
<event>
 8    1  0.1253703E-006  0.9118800E+02  0.7816164E-02  0.1184000E+00
        -11   -1    0    0    0    0  0.00000000000E+00  0.00000000000E+00  0.45593999997E+02  0.45594000000E+02  0.51100000000E-03 0. -1.
         11   -1    0    0    0    0 -0.00000000000E+00 -0.00000000000E+00 -0.45593999997E+02  0.45594000000E+02  0.51100000000E-03 0.  1.
         23    2    1    2    0    0  0.17763568394E-14  0.00000000000E+00  0.17763568394E-14  0.91188000000E+02  0.91188000000E+02 0.  0.
    9900012    2    3    3    0    0  0.13226233016E+02 -0.34345700794E+02  0.11048364678E+01  0.54367067551E+02  0.39999962096E+02 0.  0.
         12    1    3    3    0    0 -0.13226233016E+02  0.34345700794E+02 -0.11048364678E+01  0.36820932449E+02  0.00000000000E+00 0. -1.
         11    1    4    4    0    0  0.29733310082E+01 -0.40856844397E+01  0.99872663671E+01  0.11192810388E+02  0.51100000000E-03 0. -1.
        -11    1    4    4    0    0 -0.15686207797E+01 -0.29115095695E+02 -0.10898378054E+02  0.31127544281E+02  0.51100000000E-03 0.  1.
        -12    1    4    4    0    0  0.11821522787E+02 -0.11449206593E+01  0.20159481549E+01  0.12046712883E+02  0.00000000000E+00 0.  1.
</event>
<event>
 8    1  0.1253703E-006  0.9118800E+02  0.7816164E-02  0.1184000E+00
        -11   -1    0    0    0    0  0.00000000000E+00  0.00000000000E+00  0.45593999997E+02  0.45594000000E+02  0.51100000000E-03 0.  1.
         11   -1    0    0    0    0 -0.00000000000E+00 -0.00000000000E+00 -0.45593999997E+02  0.45594000000E+02  0.51100000000E-03 0. -1.
         23    2    1    2    0    0  0.00000000000E+00  0.17763568394E-14  0.35527136788E-14  0.91188000000E+02  0.91188000000E+02 0.  0.
    9900012    2    3    3    0    0 -0.17722769096E+02  0.93975377911E+01 -0.30876705859E+02  0.54367065388E+02  0.39999957166E+02 0.  0.
        -12    1    3    3    0    0  0.17722769096E+02 -0.93975377911E+01  0.30876705859E+02  0.36820934612E+02  0.00000000000E+00 0.  1.
         11    1    4    4    0    0  0.25564045597E+01  0.17437738325E+02 -0.12884826703E+02  0.21831827262E+02  0.51100000000E-03 0. -1.
        -11    1    4    4    0    0 -0.57979816163E+01 -0.29547022764E+01  0.24668587067E+01  0.69593281648E+01  0.51100000000E-03 0.  1.
         12    1    4    4    0    0 -0.14481192040E+02 -0.50854982579E+01 -0.20458737862E+02  0.25575909961E+02  0.00000000000E+00 0. -1.
</event>
<event>
 8    1  0.1253703E-006  0.9118800E+02  0.7816164E-02  0.1184000E+00
        -11   -1    0    0    0    0  0.00000000000E+00  0.00000000000E+00  0.45593999997E+02  0.45594000000E+02  0.51100000000E-03 0.  1.
         11   -1    0    0    0    0 -0.00000000000E+00 -0.00000000000E+00 -0.45593999997E+02  0.45594000000E+02  0.51100000000E-03 0. -1.
         23    2    1    2    0    0  0.00000000000E+00  0.44408920985E-15  0.71054273576E-14  0.91188000000E+02  0.91188000000E+02 0.  0.
    9900012    2    3    3    0    0  0.44881754556E+01  0.16682683926E+01  0.36508238329E+02  0.54367105059E+02  0.40000047603E+02 0.  0.
         12    1    3    3    0    0 -0.44881754556E+01 -0.16682683926E+01 -0.36508238329E+02  0.36820894941E+02  0.00000000000E+00 0. -1.
         11    1    4    4    0    0  0.50058462760E+01  0.13716333230E+01 -0.31030031479E+01  0.60471897364E+01  0.51100000000E-03 0. -1.
        -11    1    4    4    0    0  0.13515109794E+01 -0.10814348246E+02  0.51318185508E+01  0.12046255510E+02  0.51100000000E-03 0.  1.
        -12    1    4    4    0    0 -0.18691817997E+01  0.11110983316E+02  0.34479422926E+02  0.36273659812E+02  0.00000000000E+00 0.  1.
</event>
<event>
 8    1  0.1253703E-006  0.9118800E+02  0.7816164E-02  0.1184000E+00
        -11   -1    0    0    0    0  0.00000000000E+00  0.00000000000E+00  0.45593999997E+02  0.45594000000E+02  0.51100000000E-03 0.  1.
         11   -1    0    0    0    0 -0.00000000000E+00 -0.00000000000E+00 -0.45593999997E+02  0.45594000000E+02  0.51100000000E-03 0. -1.
         23    2    1    2    0    0 -0.71054273576E-14  0.55511151231E-15  0.35527136788E-14  0.91188000000E+02  0.91188000000E+02 0.  0.
    9900012    2    3    3    0    0  0.30439077351E+02  0.30929286520E+00 -0.20715854887E+02  0.54367085620E+02  0.40000003289E+02 0.  0.
         12    1    3    3    0    0 -0.30439077351E+02 -0.30929286520E+00  0.20715854887E+02  0.36820914380E+02  0.00000000000E+00 0. -1.
         11    1    4    4    0    0  0.89859771615E+01  0.13635997520E+02 -0.11894606239E+02  0.20203214392E+02  0.51100000000E-03 0. -1.
        -11    1    4    4    0    0  0.63579779962E+01  0.26631038033E+01 -0.99968244584E+01  0.12143002330E+02  0.51100000000E-03 0.  1.
        -12    1    4    4    0    0  0.15095122193E+02 -0.15989808458E+02  0.11755758110E+01  0.22020868899E+02  0.00000000000E+00 0.  1.
</event>
<event>
 8    1  0.1253703E-006  0.9118800E+02  0.7816164E-02  0.1184000E+00
        -11   -1    0    0    0    0  0.00000000000E+00  0.00000000000E+00  0.45593999997E+02  0.45594000000E+02  0.51100000000E-03 0. -1.
         11   -1    0    0    0    0 -0.00000000000E+00 -0.00000000000E+00 -0.45593999997E+02  0.45594000000E+02  0.51100000000E-03 0.  1.
         23    2    1    2    0    0  0.00000000000E+00  0.00000000000E+00  0.00000000000E+00  0.91188000000E+02  0.91188000000E+02 0.  0.
    9900012    2    3    3    0    0  0.12449658574E+02  0.27706753659E+02 -0.20811574804E+02  0.54367084167E+02  0.39999999976E+02 0.  0.
         12    1    3    3    0    0 -0.12449658574E+02 -0.27706753659E+02  0.20811574804E+02  0.36820915833E+02  0.00000000000E+00 0. -1.
         11    1    4    4    0    0  0.12178147534E+02  0.27355207732E+02  0.45903887969E+00  0.29947042998E+02  0.51100000000E-03 0. -1.
        -11    1    4    4    0    0 -0.36557310778E+01  0.47712429917E+01 -0.12063346033E+02  0.13477887340E+02  0.51100000000E-03 0.  1.
         12    1    4    4    0    0  0.39272421187E+01 -0.44196970645E+01 -0.92072676513E+01  0.10942153828E+02  0.00000000000E+00 0. -1.
</event>
<event>
 8    1  0.1253703E-006  0.9118800E+02  0.7816164E-02  0.1184000E+00
        -11   -1    0    0    0    0  0.00000000000E+00  0.00000000000E+00  0.45593999997E+02  0.45594000000E+02  0.51100000000E-03 0. -1.
         11   -1    0    0    0    0 -0.00000000000E+00 -0.00000000000E+00 -0.45593999997E+02  0.45594000000E+02  0.51100000000E-03 0.  1.
         23    2    1    2    0    0  0.00000000000E+00  0.00000000000E+00  0.00000000000E+00  0.91188000000E+02  0.91188000000E+02 0.  0.
    9900012    2    3    3    0    0  0.87782545211E+01 -0.29447457430E+02 -0.20287170775E+02  0.54367084754E+02  0.40000001313E+02 0.  0.
         12    1    3    3    0    0 -0.87782545211E+01  0.29447457430E+02  0.20287170775E+02  0.36820915246E+02  0.00000000000E+00 0. -1.
         11    1    4    4    0    0  0.11763718264E+02 -0.20893157268E+02 -0.94139916318E+01  0.25759121234E+02  0.51100000000E-03 0. -1.
        -11    1    4    4    0    0  0.39920753622E+01 -0.12704141176E+02 -0.14525513202E+02  0.19705897665E+02  0.51100000000E-03 0.  1.
         12    1    4    4    0    0 -0.69775391055E+01  0.41498410146E+01  0.36523340585E+01  0.89020658551E+01  0.00000000000E+00 0. -1.
</event>
<event>
 8    1  0.1253703E-006  0.9118800E+02  0.7816164E-02  0.1184000E+00
        -11   -1    0    0    0    0  0.00000000000E+00  0.00000000000E+00  0.45593999997E+02  0.45594000000E+02  0.51100000000E-03 0.  1.
         11   -1    0    0    0    0 -0.00000000000E+00 -0.00000000000E+00 -0.45593999997E+02  0.45594000000E+02  0.51100000000E-03 0. -1.
         23    2    1    2    0    0  0.00000000000E+00  0.17763568394E-14 -0.71054273576E-14  0.91188000000E+02  0.91188000000E+02 0.  0.
    9900012    2    3    3    0    0  0.24078277069E+02  0.13115555474E+02 -0.24576364282E+02  0.54367096925E+02  0.40000029059E+02 0.  0.
         12    1    3    3    0    0 -0.24078277069E+02 -0.13115555474E+02  0.24576364282E+02  0.36820903075E+02  0.00000000000E+00 0. -1.
         11    1    4    4    0    0  0.23342012973E+02  0.12350513569E+02 -0.13297627380E+02  0.29567070352E+02  0.51100000000E-03 0. -1.
        -11    1    4    4    0    0  0.75807666033E+01 -0.65705969116E+01 -0.45606371042E+00  0.10042348353E+02  0.51100000000E-03 0.  1.
         12    1    4    4    0    0 -0.68445025074E+01  0.73356388165E+01 -0.10822673191E+02  0.14757678219E+02  0.00000000000E+00 0. -1.
</event>
<event>
 8    1  0.1253703E-006  0.9118800E+02  0.7816164E-02  0.1184000E+00
        -11   -1    0    0    0    0  0.00000000000E+00  0.00000000000E+00  0.45593999997E+02  0.45594000000E+02  0.51100000000E-03 0.  1.
         11   -1    0    0    0    0 -0.00000000000E+00 -0.00000000000E+00 -0.45593999997E+02  0.45594000000E+02  0.51100000000E-03 0. -1.
         23    2    1    2    0    0 -0.88817841970E-15  0.00000000000E+00  0.35527136788E-14  0.91188000000E+02  0.91188000000E+02 0.  0.
    9900012    2    3    3    0    0  0.66119425173E+01 -0.21796257668E+02 -0.28930734886E+02  0.54367054151E+02  0.39999931547E+02 0.  0.
        -12    1    3    3    0    0 -0.66119425173E+01  0.21796257668E+02  0.28930734886E+02  0.36820945849E+02  0.00000000000E+00 0.  1.
         11    1    4    4    0    0  0.17891288220E+02 -0.92669103043E+00 -0.12543116558E+02  0.21869767344E+02  0.51100000000E-03 0. -1.
        -11    1    4    4    0    0  0.11202442039E+01  0.35972307291E+00  0.16345626128E+01  0.20139868326E+01  0.51100000000E-03 0.  1.
        -12    1    4    4    0    0 -0.12399589906E+02 -0.21229289710E+02 -0.18022180941E+02  0.30483299974E+02  0.00000000000E+00 0.  1.
</event>
<event>
 8    1  0.1253703E-006  0.9118800E+02  0.7816164E-02  0.1184000E+00
        -11   -1    0    0    0    0  0.00000000000E+00  0.00000000000E+00  0.45593999997E+02  0.45594000000E+02  0.51100000000E-03 0. -1.
         11   -1    0    0    0    0 -0.00000000000E+00 -0.00000000000E+00 -0.45593999997E+02  0.45594000000E+02  0.51100000000E-03 0.  1.
         23    2    1    2    0    0 -0.35527136788E-14  0.00000000000E+00  0.00000000000E+00  0.91188000000E+02  0.91188000000E+02 0.  0.
    9900012    2    3    3    0    0 -0.30350717912E+02 -0.46072656006E+01 -0.20331888205E+02  0.54367100336E+02  0.40000036836E+02 0.  0.
         12    1    3    3    0    0  0.30350717912E+02  0.46072656006E+01  0.20331888205E+02  0.36820899664E+02  0.00000000000E+00 0. -1.
         11    1    4    4    0    0  0.16569777638E+01  0.44546608948E+01  0.60310834608E+01  0.76787724911E+01  0.51100000000E-03 0. -1.
        -11    1    4    4    0    0 -0.50793085142E+01 -0.96858403960E+01 -0.38870311232E+01  0.11607062091E+02  0.51100000000E-03 0.  1.
        -12    1    4    4    0    0 -0.26928387162E+02  0.62391390066E+00 -0.22475940542E+02  0.35081265755E+02  0.00000000000E+00 0.  1.
</event>
<event>
 8    1  0.1253703E-006  0.9118800E+02  0.7816164E-02  0.1184000E+00
        -11   -1    0    0    0    0  0.00000000000E+00  0.00000000000E+00  0.45593999997E+02  0.45594000000E+02  0.51100000000E-03 0.  1.
         11   -1    0    0    0    0 -0.00000000000E+00 -0.00000000000E+00 -0.45593999997E+02  0.45594000000E+02  0.51100000000E-03 0. -1.
         23    2    1    2    0    0 -0.11102230246E-15  0.00000000000E+00  0.00000000000E+00  0.91188000000E+02  0.91188000000E+02 0.  0.
    9900012    2    3    3    0    0  0.61611435160E+00  0.35939847118E+02  0.79827128711E+01  0.54367137537E+02  0.40000121642E+02 0.  0.
         12    1    3    3    0    0 -0.61611435160E+00 -0.35939847118E+02 -0.79827128711E+01  0.36820862463E+02  0.00000000000E+00 0. -1.
         11    1    4    4    0    0 -0.42993966814E+01 -0.24873078264E+01  0.52238298617E+01  0.72083223244E+01  0.51100000000E-03 0. -1.
        -11    1    4    4    0    0 -0.29837991959E+01  0.16312360767E+02  0.13454446364E+02  0.21354584956E+02  0.51100000000E-03 0.  1.
         12    1    4    4    0    0  0.78993102289E+01  0.22114794178E+02 -0.10695563355E+02  0.25804230256E+02  0.00000000000E+00 0. -1.
</event>
<event>
 8    1  0.1253703E-006  0.9118800E+02  0.7816164E-02  0.1184000E+00
        -11   -1    0    0    0    0  0.00000000000E+00  0.00000000000E+00  0.45593999997E+02  0.45594000000E+02  0.51100000000E-03 0.  1.
         11   -1    0    0    0    0 -0.00000000000E+00 -0.00000000000E+00 -0.45593999997E+02  0.45594000000E+02  0.51100000000E-03 0. -1.
         23    2    1    2    0    0  0.00000000000E+00  0.00000000000E+00  0.71054273576E-14  0.91188000000E+02  0.91188000000E+02 0.  0.
    9900012    2    3    3    0    0 -0.23469657530E+01 -0.52186080972E+01 -0.36373741907E+02  0.54366929686E+02  0.39999647804E+02 0.  0.
        -12    1    3    3    0    0  0.23469657530E+01  0.52186080972E+01  0.36373741907E+02  0.36821070314E+02  0.00000000000E+00 0.  1.
         11    1    4    4    0    0  0.61670620061E+00  0.58837523261E+01 -0.19286889824E+01  0.62224359720E+01  0.51100000000E-03 0.  1.
        -11    1    4    4    0    0  0.14366357859E+01  0.99678137274E+01 -0.19478299191E+02  0.21927730675E+02  0.51100000000E-03 0. -1.
        -12    1    4    4    0    0 -0.44003077395E+01 -0.21070174151E+02 -0.14966753734E+02  0.26216763040E+02  0.00000000000E+00 0.  1.
</event>
<event>
 8    1  0.1253703E-006  0.9118800E+02  0.7816164E-02  0.1184000E+00
        -11   -1    0    0    0    0  0.00000000000E+00  0.00000000000E+00  0.45593999997E+02  0.45594000000E+02  0.51100000000E-03 0. -1.
         11   -1    0    0    0    0 -0.00000000000E+00 -0.00000000000E+00 -0.45593999997E+02  0.45594000000E+02  0.51100000000E-03 0.  1.
         23    2    1    2    0    0  0.35527136788E-14 -0.35527136788E-14  0.88817841970E-15  0.91188000000E+02  0.91188000000E+02 0.  0.
    9900012    2    3    3    0    0  0.24971216422E+02 -0.26176814621E+02 -0.68551495106E+01  0.54367077305E+02  0.39999984333E+02 0.  0.
         12    1    3    3    0    0 -0.24971216422E+02  0.26176814621E+02  0.68551495106E+01  0.36820922695E+02  0.00000000000E+00 0. -1.
         11    1    4    4    0    0  0.13098550536E+02 -0.94524516176E+01  0.37119763121E+01  0.16574065166E+02  0.51100000000E-03 0. -1.
        -11    1    4    4    0    0 -0.12930771449E+00 -0.14220125603E+02 -0.18391860285E+02  0.23248423982E+02  0.51100000000E-03 0.  1.
        -12    1    4    4    0    0  0.12001973601E+02 -0.25042374002E+01  0.78247344623E+01  0.14544588158E+02  0.00000000000E+00 0.  1.
</event>
<event>
 8    1  0.1253703E-006  0.9118800E+02  0.7816164E-02  0.1184000E+00
        -11   -1    0    0    0    0  0.00000000000E+00  0.00000000000E+00  0.45593999997E+02  0.45594000000E+02  0.51100000000E-03 0.  1.
         11   -1    0    0    0    0 -0.00000000000E+00 -0.00000000000E+00 -0.45593999997E+02  0.45594000000E+02  0.51100000000E-03 0. -1.
         23    2    1    2    0    0  0.44408920985E-15 -0.71054273576E-14  0.00000000000E+00  0.91188000000E+02  0.91188000000E+02 0.  0.
    9900012    2    3    3    0    0 -0.25998667345E+01 -0.33108396670E+02 -0.15901037336E+02  0.54367241922E+02  0.40000359607E+02 0.  0.
         12    1    3    3    0    0  0.25998667345E+01  0.33108396670E+02  0.15901037336E+02  0.36820758078E+02  0.00000000000E+00 0. -1.
         11    1    4    4    0    0 -0.39750857138E+01  0.47882640631E+01 -0.14750017126E+02  0.16009115674E+02  0.51100000000E-03 0. -1.
        -11    1    4    4    0    0  0.20137594757E+01 -0.65798546892E+01 -0.14553532508E+01  0.70333326597E+01  0.51100000000E-03 0.  1.
        -12    1    4    4    0    0 -0.63854049636E+00 -0.31316806044E+02  0.30433304057E+00  0.31324793588E+02  0.00000000000E+00 0.  1.
</event>
<event>
 8    1  0.1253703E-006  0.9118800E+02  0.7816164E-02  0.1184000E+00
        -11   -1    0    0    0    0  0.00000000000E+00  0.00000000000E+00  0.45593999997E+02  0.45594000000E+02  0.51100000000E-03 0.  1.
         11   -1    0    0    0    0 -0.00000000000E+00 -0.00000000000E+00 -0.45593999997E+02  0.45594000000E+02  0.51100000000E-03 0. -1.
         23    2    1    2    0    0  0.00000000000E+00  0.00000000000E+00  0.17763568394E-14  0.91188000000E+02  0.91188000000E+02 0.  0.
    9900012    2    3    3    0    0 -0.33017791271E+02 -0.10205498871E+02  0.12706470270E+02  0.54367066629E+02  0.39999959994E+02 0.  0.
         12    1    3    3    0    0  0.33017791271E+02  0.10205498871E+02 -0.12706470270E+02  0.36820933371E+02  0.00000000000E+00 0. -1.
         11    1    4    4    0    0  0.28381662456E+01  0.24624721116E+01  0.64918120150E+00  0.38131867292E+01  0.51100000000E-03 0. -1.
        -11    1    4    4    0    0 -0.22038520717E+02 -0.22596571149E+02  0.11287653410E+02  0.33521821891E+02  0.51100000000E-03 0.  1.
         12    1    4    4    0    0 -0.13817436799E+02  0.99286001669E+01  0.76963565846E+00  0.17032058009E+02  0.00000000000E+00 0. -1.
</event>
<event>
 8    1  0.1253703E-006  0.9118800E+02  0.7816164E-02  0.1184000E+00
        -11   -1    0    0    0    0  0.00000000000E+00  0.00000000000E+00  0.45593999997E+02  0.45594000000E+02  0.51100000000E-03 0. -1.
         11   -1    0    0    0    0 -0.00000000000E+00 -0.00000000000E+00 -0.45593999997E+02  0.45594000000E+02  0.51100000000E-03 0.  1.
         23    2    1    2    0    0 -0.17763568394E-14 -0.22204460493E-15  0.00000000000E+00  0.91188000000E+02  0.91188000000E+02 0.  0.
    9900012    2    3    3    0    0 -0.13860285473E+02  0.18929186468E+01  0.34060188482E+02  0.54366985704E+02  0.39999775508E+02 0.  0.
        -12    1    3    3    0    0  0.13860285473E+02 -0.18929186468E+01 -0.34060188482E+02  0.36821014296E+02  0.00000000000E+00 0.  1.
         11    1    4    4    0    0 -0.76199326507E+01  0.13441046390E+02  0.35676858133E+02  0.38878828534E+02  0.51100000000E-03 0. -1.
        -11    1    4    4    0    0 -0.14205663253E+01  0.10845351396E+01 -0.75398260409E+00  0.19397719407E+01  0.51100000000E-03 0.  1.
         12    1    4    4    0    0 -0.48197864969E+01 -0.12632662883E+02 -0.86268704723E+00  0.13548385229E+02  0.00000000000E+00 0. -1.
</event>
<event>
 8    1  0.1253703E-006  0.9118800E+02  0.7816164E-02  0.1184000E+00
        -11   -1    0    0    0    0  0.00000000000E+00  0.00000000000E+00  0.45593999997E+02  0.45594000000E+02  0.51100000000E-03 0. -1.
         11   -1    0    0    0    0 -0.00000000000E+00 -0.00000000000E+00 -0.45593999997E+02  0.45594000000E+02  0.51100000000E-03 0.  1.
         23    2    1    2    0    0  0.88817841970E-15  0.35527136788E-14  0.00000000000E+00  0.91188000000E+02  0.91188000000E+02 0.  0.
    9900012    2    3    3    0    0 -0.70867894253E+01 -0.29593022081E+02 -0.20731861808E+02  0.54367086999E+02  0.40000006431E+02 0.  0.
         12    1    3    3    0    0  0.70867894253E+01  0.29593022081E+02  0.20731861808E+02  0.36820913001E+02  0.00000000000E+00 0. -1.
         11    1    4    4    0    0 -0.57340885240E+01 -0.12846030168E+02  0.47493163105E+01  0.14847769798E+02  0.51100000000E-03 0. -1.
        -11    1    4    4    0    0 -0.60873543277E+01 -0.22156072213E+02 -0.20275788393E+02  0.30644004533E+02  0.51100000000E-03 0.  1.
        -12    1    4    4    0    0  0.47346534264E+01  0.54090803001E+01 -0.52053897251E+01  0.88753126678E+01  0.00000000000E+00 0.  1.
</event>
<event>
 8    1  0.1253703E-006  0.9118800E+02  0.7816164E-02  0.1184000E+00
        -11   -1    0    0    0    0  0.00000000000E+00  0.00000000000E+00  0.45593999997E+02  0.45594000000E+02  0.51100000000E-03 0.  1.
         11   -1    0    0    0    0 -0.00000000000E+00 -0.00000000000E+00 -0.45593999997E+02  0.45594000000E+02  0.51100000000E-03 0. -1.
         23    2    1    2    0    0  0.00000000000E+00  0.00000000000E+00  0.00000000000E+00  0.91188000000E+02  0.91188000000E+02 0.  0.
    9900012    2    3    3    0    0  0.48993019476E+01  0.26662006498E+02  0.24918102841E+02  0.54367114632E+02  0.40000069427E+02 0.  0.
         12    1    3    3    0    0 -0.48993019476E+01 -0.26662006498E+02 -0.24918102841E+02  0.36820885368E+02  0.00000000000E+00 0. -1.
         11    1    4    4    0    0  0.48144822528E+01 -0.22562695683E+01  0.41729111517E+01  0.67589333085E+01  0.51100000000E-03 0. -1.
        -11    1    4    4    0    0 -0.25585001959E+01  0.11639011993E+02 -0.77237284375E+01  0.14201003650E+02  0.51100000000E-03 0.  1.
        -12    1    4    4    0    0  0.26433198907E+01  0.17279264074E+02  0.28468920126E+02  0.33407177674E+02  0.00000000000E+00 0.  1.
</event>
<event>
 8    1  0.1253703E-006  0.9118800E+02  0.7816164E-02  0.1184000E+00
        -11   -1    0    0    0    0  0.00000000000E+00  0.00000000000E+00  0.45593999997E+02  0.45594000000E+02  0.51100000000E-03 0. -1.
         11   -1    0    0    0    0 -0.00000000000E+00 -0.00000000000E+00 -0.45593999997E+02  0.45594000000E+02  0.51100000000E-03 0.  1.
         23    2    1    2    0    0 -0.88817841970E-15 -0.17763568394E-14  0.00000000000E+00  0.91188000000E+02  0.91188000000E+02 0.  0.
    9900012    2    3    3    0    0 -0.45624500343E+01  0.14455814716E+02  0.33555835223E+02  0.54367073791E+02  0.39999976321E+02 0.  0.
        -12    1    3    3    0    0  0.45624500343E+01 -0.14455814716E+02 -0.33555835223E+02  0.36820926209E+02  0.00000000000E+00 0.  1.
         11    1    4    4    0    0  0.35676372192E+01  0.36939156516E+01  0.15853539711E+02  0.16664566295E+02  0.51100000000E-03 0. -1.
        -11    1    4    4    0    0  0.68980296699E+01 -0.66671375503E+01  0.18830840981E+01  0.97764790402E+01  0.51100000000E-03 0.  1.
         12    1    4    4    0    0 -0.15028116923E+02  0.17429036614E+02  0.15819211413E+02  0.27926028456E+02  0.00000000000E+00 0. -1.
</event>
<event>
 8    1  0.1253703E-006  0.9118800E+02  0.7816164E-02  0.1184000E+00
        -11   -1    0    0    0    0  0.00000000000E+00  0.00000000000E+00  0.45593999997E+02  0.45594000000E+02  0.51100000000E-03 0. -1.
         11   -1    0    0    0    0 -0.00000000000E+00 -0.00000000000E+00 -0.45593999997E+02  0.45594000000E+02  0.51100000000E-03 0.  1.
         23    2    1    2    0    0  0.35527136788E-14  0.00000000000E+00  0.35527136788E-14  0.91188000000E+02  0.91188000000E+02 0.  0.
    9900012    2    3    3    0    0 -0.25542135791E+02  0.75625884274E+01 -0.25420183035E+02  0.54367093574E+02  0.40000021420E+02 0.  0.
         12    1    3    3    0    0  0.25542135791E+02 -0.75625884274E+01  0.25420183035E+02  0.36820906426E+02  0.00000000000E+00 0. -1.
         11    1    4    4    0    0 -0.19174120672E+01 -0.11835338543E+02 -0.48263070874E+01  0.12924586950E+02  0.51100000000E-03 0. -1.
        -11    1    4    4    0    0 -0.27099791976E+01  0.11571008090E+02 -0.13446027541E+01  0.11959940313E+02  0.51100000000E-03 0.  1.
        -12    1    4    4    0    0 -0.20914744526E+02  0.78269188803E+01 -0.19249273194E+02  0.29482566310E+02  0.00000000000E+00 0.  1.
</event>
<event>
 8    1  0.1253703E-006  0.9118800E+02  0.7816164E-02  0.1184000E+00
        -11   -1    0    0    0    0  0.00000000000E+00  0.00000000000E+00  0.45593999997E+02  0.45594000000E+02  0.51100000000E-03 0.  1.
         11   -1    0    0    0    0 -0.00000000000E+00 -0.00000000000E+00 -0.45593999997E+02  0.45594000000E+02  0.51100000000E-03 0. -1.
         23    2    1    2    0    0 -0.44408920985E-15  0.35527136788E-14  0.00000000000E+00  0.91188000000E+02  0.91188000000E+02 0.  0.
    9900012    2    3    3    0    0 -0.22924336790E+01 -0.30743576202E+02  0.20133488915E+02  0.54367080596E+02  0.39999991834E+02 0.  0.
         12    1    3    3    0    0  0.22924336790E+01  0.30743576202E+02 -0.20133488915E+02  0.36820919404E+02  0.00000000000E+00 0. -1.
         11    1    4    4    0    0 -0.22975231619E+01  0.35089158671E+01  0.33161890739E+01  0.53467946919E+01  0.51100000000E-03 0. -1.
        -11    1    4    4    0    0  0.21760442882E+01 -0.32221513886E+02  0.36029208210E+00  0.32296918374E+02  0.51100000000E-03 0.  1.
        -12    1    4    4    0    0 -0.21709548053E+01 -0.20309781838E+01  0.16457007759E+02  0.16723367530E+02  0.00000000000E+00 0.  1.
</event>
<event>
 8    1  0.1253703E-006  0.9118800E+02  0.7816164E-02  0.1184000E+00
        -11   -1    0    0    0    0  0.00000000000E+00  0.00000000000E+00  0.45593999997E+02  0.45594000000E+02  0.51100000000E-03 0. -1.
         11   -1    0    0    0    0 -0.00000000000E+00 -0.00000000000E+00 -0.45593999997E+02  0.45594000000E+02  0.51100000000E-03 0.  1.
         23    2    1    2    0    0  0.00000000000E+00  0.00000000000E+00 -0.17763568394E-14  0.91188000000E+02  0.91188000000E+02 0.  0.
    9900012    2    3    3    0    0 -0.27150894622E+02  0.19422407408E+02  0.15536377395E+02  0.54367081885E+02  0.39999994773E+02 0.  0.
        -12    1    3    3    0    0  0.27150894622E+02 -0.19422407408E+02 -0.15536377395E+02  0.36820918115E+02  0.00000000000E+00 0.  1.
         11    1    4    4    0    0 -0.74644391632E+01 -0.16275333358E+01  0.46850231301E+01  0.89619282954E+01  0.51100000000E-03 0. -1.
        -11    1    4    4    0    0 -0.19474694827E+02 -0.21286530087E+01 -0.49634392685E+00  0.19596970678E+02  0.51100000000E-03 0.  1.
        -12    1    4    4    0    0 -0.21176063231E+00  0.23178593753E+02  0.11347698191E+02  0.25808182911E+02  0.00000000000E+00 0.  1.
</event>
<event>
 8    1  0.1253703E-006  0.9118800E+02  0.7816164E-02  0.1184000E+00
        -11   -1    0    0    0    0  0.00000000000E+00  0.00000000000E+00  0.45593999997E+02  0.45594000000E+02  0.51100000000E-03 0.  1.
         11   -1    0    0    0    0 -0.00000000000E+00 -0.00000000000E+00 -0.45593999997E+02  0.45594000000E+02  0.51100000000E-03 0. -1.
         23    2    1    2    0    0  0.22204460493E-15  0.00000000000E+00  0.00000000000E+00  0.91188000000E+02  0.91188000000E+02 0.  0.
    9900012    2    3    3    0    0 -0.10715659252E+01 -0.20295968427E+02 -0.30703504900E+02  0.54367084734E+02  0.40000001268E+02 0.  0.
        -12    1    3    3    0    0  0.10715659252E+01  0.20295968427E+02  0.30703504900E+02  0.36820915266E+02  0.00000000000E+00 0.  1.
         11    1    4    4    0    0 -0.73430639440E+01 -0.34200426210E+01 -0.12094823387E+02  0.14556855177E+02  0.51100000000E-03 0. -1.
        -11    1    4    4    0    0 -0.88700054968E+01  0.15077731294E+01 -0.12177436838E+02  0.15140685108E+02  0.51100000000E-03 0.  1.
         12    1    4    4    0    0  0.15141503516E+02 -0.18383698935E+02 -0.64312446741E+01  0.24669544449E+02  0.00000000000E+00 0. -1.
</event>
<event>
 8    1  0.1253703E-006  0.9118800E+02  0.7816164E-02  0.1184000E+00
        -11   -1    0    0    0    0  0.00000000000E+00  0.00000000000E+00  0.45593999997E+02  0.45594000000E+02  0.51100000000E-03 0. -1.
         11   -1    0    0    0    0 -0.00000000000E+00 -0.00000000000E+00 -0.45593999997E+02  0.45594000000E+02  0.51100000000E-03 0.  1.
         23    2    1    2    0    0 -0.35527136788E-14  0.00000000000E+00  0.88817841970E-15  0.91188000000E+02  0.91188000000E+02 0.  0.
    9900012    2    3    3    0    0 -0.24599490186E+02  0.26914445050E+02 -0.51242634481E+01  0.54367077338E+02  0.39999984408E+02 0.  0.
         12    1    3    3    0    0  0.24599490186E+02 -0.26914445050E+02  0.51242634481E+01  0.36820922662E+02  0.00000000000E+00 0. -1.
         11    1    4    4    0    0  0.28083109915E+01 -0.20099493750E+01  0.74033114334E+01  0.81691815720E+01  0.51100000000E-03 0. -1.
        -11    1    4    4    0    0 -0.10275566999E+02  0.10441305688E+02  0.50232776066E+01  0.15486815677E+02  0.51100000000E-03 0.  1.
        -12    1    4    4    0    0 -0.17132234178E+02  0.18483088737E+02 -0.17550852488E+02  0.30711080090E+02  0.00000000000E+00 0.  1.
</event>
<event>
 8    1  0.1253703E-006  0.9118800E+02  0.7816164E-02  0.1184000E+00
        -11   -1    0    0    0    0  0.00000000000E+00  0.00000000000E+00  0.45593999997E+02  0.45594000000E+02  0.51100000000E-03 0. -1.
         11   -1    0    0    0    0 -0.00000000000E+00 -0.00000000000E+00 -0.45593999997E+02  0.45594000000E+02  0.51100000000E-03 0.  1.
         23    2    1    2    0    0  0.00000000000E+00  0.00000000000E+00 -0.88817841970E-15  0.91188000000E+02  0.91188000000E+02 0.  0.
    9900012    2    3    3    0    0 -0.30613451531E+02  0.19493575516E+02 -0.62126621175E+01  0.54367081059E+02  0.39999992891E+02 0.  0.
        -12    1    3    3    0    0  0.30613451531E+02 -0.19493575516E+02  0.62126621175E+01  0.36820918941E+02  0.00000000000E+00 0.  1.
         11    1    4    4    0    0 -0.16177814341E+02 -0.78258075545E+01 -0.95007245132E+01  0.20328027628E+02  0.51100000000E-03 0. -1.
        -11    1    4    4    0    0 -0.56064136885E+00  0.10828108583E+02  0.58760397115E+01  0.12332481388E+02  0.51100000000E-03 0.  1.
         12    1    4    4    0    0 -0.13874995822E+02  0.16491274487E+02 -0.25879773158E+01  0.21706572043E+02  0.00000000000E+00 0. -1.
</event>
<event>
 8    1  0.1253703E-006  0.9118800E+02  0.7816164E-02  0.1184000E+00
        -11   -1    0    0    0    0  0.00000000000E+00  0.00000000000E+00  0.45593999997E+02  0.45594000000E+02  0.51100000000E-03 0.  1.
         11   -1    0    0    0    0 -0.00000000000E+00 -0.00000000000E+00 -0.45593999997E+02  0.45594000000E+02  0.51100000000E-03 0. -1.
         23    2    1    2    0    0 -0.17763568394E-14  0.00000000000E+00  0.71054273576E-14  0.91188000000E+02  0.91188000000E+02 0.  0.
    9900012    2    3    3    0    0  0.15738134773E+02  0.22454592295E+02  0.24574021772E+02  0.54367080031E+02  0.39999990547E+02 0.  0.
         12    1    3    3    0    0 -0.15738134773E+02 -0.22454592295E+02 -0.24574021772E+02  0.36820919969E+02  0.00000000000E+00 0. -1.
         11    1    4    4    0    0  0.75772246990E+00  0.80728235364E+01  0.25538684508E+01  0.85009921489E+01  0.51100000000E-03 0.  1.
        -11    1    4    4    0    0  0.17563515941E+01  0.30642193676E+01 -0.93476713069E+01  0.99926558220E+01  0.51100000000E-03 0. -1.
        -12    1    4    4    0    0  0.13224060709E+02  0.11317549391E+02  0.31367824629E+02  0.35873432060E+02  0.00000000000E+00 0.  1.
</event>
<event>
 8    1  0.1253703E-006  0.9118800E+02  0.7816164E-02  0.1184000E+00
        -11   -1    0    0    0    0  0.00000000000E+00  0.00000000000E+00  0.45593999997E+02  0.45594000000E+02  0.51100000000E-03 0. -1.
         11   -1    0    0    0    0 -0.00000000000E+00 -0.00000000000E+00 -0.45593999997E+02  0.45594000000E+02  0.51100000000E-03 0.  1.
         23    2    1    2    0    0 -0.17763568394E-14  0.00000000000E+00 -0.88817841970E-15  0.91188000000E+02  0.91188000000E+02 0.  0.
    9900012    2    3    3    0    0 -0.12356272040E+02 -0.34376406605E+02  0.46223000619E+01  0.54367075953E+02  0.39999981250E+02 0.  0.
        -12    1    3    3    0    0  0.12356272040E+02  0.34376406605E+02 -0.46223000619E+01  0.36820924047E+02  0.00000000000E+00 0.  1.
         11    1    4    4    0    0 -0.62969745997E+00 -0.44211668973E+01  0.11010118599E+02  0.11881327680E+02  0.51100000000E-03 0. -1.
        -11    1    4    4    0    0  0.39708879384E+01 -0.25213730397E+02 -0.51685828519E+01  0.26042549809E+02  0.51100000000E-03 0.  1.
        -12    1    4    4    0    0 -0.15697462519E+02 -0.47415093106E+01 -0.12192356853E+01  0.16443198464E+02  0.00000000000E+00 0.  1.
</event>
<event>
 8    1  0.1253703E-006  0.9118800E+02  0.7816164E-02  0.1184000E+00
        -11   -1    0    0    0    0  0.00000000000E+00  0.00000000000E+00  0.45593999997E+02  0.45594000000E+02  0.51100000000E-03 0.  1.
         11   -1    0    0    0    0 -0.00000000000E+00 -0.00000000000E+00 -0.45593999997E+02  0.45594000000E+02  0.51100000000E-03 0. -1.
         23    2    1    2    0    0  0.35527136788E-14  0.00000000000E+00 -0.88817841970E-15  0.91188000000E+02  0.91188000000E+02 0.  0.
    9900012    2    3    3    0    0  0.30115829064E+02 -0.19820674702E+02  0.74805258400E+01  0.54367074256E+02  0.39999977381E+02 0.  0.
        -12    1    3    3    0    0 -0.30115829064E+02  0.19820674702E+02 -0.74805258400E+01  0.36820925744E+02  0.00000000000E+00 0.  1.
         11    1    4    4    0    0  0.38499273302E+01 -0.10819070966E+02  0.13221124703E+02  0.17512063719E+02  0.51100000000E-03 0. -1.
        -11    1    4    4    0    0  0.32934507102E+01  0.70840176452E+01  0.13506935034E+01  0.79280827934E+01  0.51100000000E-03 0.  1.
         12    1    4    4    0    0  0.22972451023E+02 -0.16085621381E+02 -0.70912923669E+01  0.28926927743E+02  0.00000000000E+00 0. -1.
</event>
<event>
 8    1  0.1253703E-006  0.9118800E+02  0.7816164E-02  0.1184000E+00
        -11   -1    0    0    0    0  0.00000000000E+00  0.00000000000E+00  0.45593999997E+02  0.45594000000E+02  0.51100000000E-03 0.  1.
         11   -1    0    0    0    0 -0.00000000000E+00 -0.00000000000E+00 -0.45593999997E+02  0.45594000000E+02  0.51100000000E-03 0. -1.
         23    2    1    2    0    0  0.00000000000E+00 -0.17763568394E-14  0.17763568394E-14  0.91188000000E+02  0.91188000000E+02 0.  0.
    9900012    2    3    3    0    0 -0.31181864295E+02 -0.15952072857E+02 -0.11357887439E+02  0.54367097018E+02  0.40000029272E+02 0.  0.
         12    1    3    3    0    0  0.31181864295E+02  0.15952072857E+02  0.11357887439E+02  0.36820902982E+02  0.00000000000E+00 0. -1.
         11    1    4    4    0    0 -0.92290418700E+01 -0.24299310494E+02 -0.37369639181E+01  0.26260171437E+02  0.51100000000E-03 0. -1.
        -11    1    4    4    0    0 -0.19039158549E+02  0.46178481007E+01 -0.55066694529E+00  0.19598911033E+02  0.51100000000E-03 0.  1.
         12    1    4    4    0    0 -0.29136638754E+01  0.37293895364E+01 -0.70702565761E+01  0.85080145477E+01  0.00000000000E+00 0. -1.
</event>
<event>
 8    1  0.1253703E-006  0.9118800E+02  0.7816164E-02  0.1184000E+00
        -11   -1    0    0    0    0  0.00000000000E+00  0.00000000000E+00  0.45593999997E+02  0.45594000000E+02  0.51100000000E-03 0. -1.
         11   -1    0    0    0    0 -0.00000000000E+00 -0.00000000000E+00 -0.45593999997E+02  0.45594000000E+02  0.51100000000E-03 0.  1.
         23    2    1    2    0    0  0.00000000000E+00 -0.22204460493E-15  0.71054273576E-14  0.91188000000E+02  0.91188000000E+02 0.  0.
    9900012    2    3    3    0    0  0.23608329026E+02  0.19341287267E+01 -0.28190156597E+02  0.54367095852E+02  0.40000026613E+02 0.  0.
         12    1    3    3    0    0 -0.23608329026E+02 -0.19341287267E+01  0.28190156597E+02  0.36820904148E+02  0.00000000000E+00 0. -1.
         11    1    4    4    0    0 -0.35270606700E+01  0.33337911300E+01  0.24625373541E+01  0.54422799220E+01  0.51100000000E-03 0. -1.
        -11    1    4    4    0    0  0.17105578286E+02  0.11308836925E+02 -0.10387382163E+02  0.22986698536E+02  0.51100000000E-03 0.  1.
        -12    1    4    4    0    0  0.10029811410E+02 -0.12708499328E+02 -0.20265311788E+02  0.25938117394E+02  0.00000000000E+00 0.  1.
</event>
<event>
 8    1  0.1253703E-006  0.9118800E+02  0.7816164E-02  0.1184000E+00
        -11   -1    0    0    0    0  0.00000000000E+00  0.00000000000E+00  0.45593999997E+02  0.45594000000E+02  0.51100000000E-03 0. -1.
         11   -1    0    0    0    0 -0.00000000000E+00 -0.00000000000E+00 -0.45593999997E+02  0.45594000000E+02  0.51100000000E-03 0.  1.
         23    2    1    2    0    0  0.00000000000E+00  0.35527136788E-14  0.71054273576E-14  0.91188000000E+02  0.91188000000E+02 0.  0.
    9900012    2    3    3    0    0 -0.40319416601E+01 -0.16749551542E+02 -0.32541915900E+02  0.54367077676E+02  0.39999985177E+02 0.  0.
         12    1    3    3    0    0  0.40319416601E+01  0.16749551542E+02  0.32541915900E+02  0.36820922324E+02  0.00000000000E+00 0. -1.
         11    1    4    4    0    0 -0.47516227270E+01 -0.20081632570E+02 -0.46904168779E+01  0.21162464317E+02  0.51100000000E-03 0. -1.
        -11    1    4    4    0    0 -0.24132332993E+01 -0.68166969782E+01 -0.87758309380E+01  0.11371291112E+02  0.51100000000E-03 0.  1.
         12    1    4    4    0    0  0.31329143662E+01  0.10148778007E+02 -0.19075668084E+02  0.21833322246E+02  0.00000000000E+00 0. -1.
</event>
<event>
 8    1  0.1253703E-006  0.9118800E+02  0.7816164E-02  0.1184000E+00
        -11   -1    0    0    0    0  0.00000000000E+00  0.00000000000E+00  0.45593999997E+02  0.45594000000E+02  0.51100000000E-03 0.  1.
         11   -1    0    0    0    0 -0.00000000000E+00 -0.00000000000E+00 -0.45593999997E+02  0.45594000000E+02  0.51100000000E-03 0. -1.
         23    2    1    2    0    0  0.35527136788E-14  0.66613381478E-15  0.00000000000E+00  0.91188000000E+02  0.91188000000E+02 0.  0.
    9900012    2    3    3    0    0  0.25547682282E+02  0.14720995479E+01 -0.26475051005E+02  0.54367089192E+02  0.40000011430E+02 0.  0.
        -12    1    3    3    0    0 -0.25547682282E+02 -0.14720995479E+01  0.26475051005E+02  0.36820910808E+02  0.00000000000E+00 0.  1.
         11    1    4    4    0    0  0.17844860059E+02 -0.73772563693E+01 -0.13337361366E+02  0.23468024001E+02  0.51100000000E-03 0. -1.
        -11    1    4    4    0    0 -0.14709197327E+01  0.15780688549E+02 -0.10763982215E+02  0.19158732978E+02  0.51100000000E-03 0.  1.
        -12    1    4    4    0    0  0.91737419556E+01 -0.69313326317E+01 -0.23737074238E+01  0.11740332212E+02  0.00000000000E+00 0.  1.
</event>
<event>
 8    1  0.1253703E-006  0.9118800E+02  0.7816164E-02  0.1184000E+00
        -11   -1    0    0    0    0  0.00000000000E+00  0.00000000000E+00  0.45593999997E+02  0.45594000000E+02  0.51100000000E-03 0. -1.
         11   -1    0    0    0    0 -0.00000000000E+00 -0.00000000000E+00 -0.45593999997E+02  0.45594000000E+02  0.51100000000E-03 0.  1.
         23    2    1    2    0    0 -0.35527136788E-14  0.00000000000E+00 -0.88817841970E-15  0.91188000000E+02  0.91188000000E+02 0.  0.
    9900012    2    3    3    0    0  0.10004459735E+02 -0.35347790907E+02 -0.24949064086E+01  0.54367080748E+02  0.39999992180E+02 0.  0.
        -12    1    3    3    0    0 -0.10004459735E+02  0.35347790907E+02  0.24949064086E+01  0.36820919252E+02  0.00000000000E+00 0.  1.
         11    1    4    4    0    0  0.27345366987E+01 -0.13767343989E+02 -0.29461514371E+01  0.14342149770E+02  0.51100000000E-03 0. -1.
        -11    1    4    4    0    0 -0.10939549733E+02 -0.71568819625E+01  0.83233534234E+01  0.15497513357E+02  0.51100000000E-03 0.  1.
        -12    1    4    4    0    0  0.18209472769E+02 -0.14423564956E+02 -0.78721083949E+01  0.24527417621E+02  0.00000000000E+00 0.  1.
</event>
<event>
 8    1  0.1253703E-006  0.9118800E+02  0.7816164E-02  0.1184000E+00
        -11   -1    0    0    0    0  0.00000000000E+00  0.00000000000E+00  0.45593999997E+02  0.45594000000E+02  0.51100000000E-03 0. -1.
         11   -1    0    0    0    0 -0.00000000000E+00 -0.00000000000E+00 -0.45593999997E+02  0.45594000000E+02  0.51100000000E-03 0.  1.
         23    2    1    2    0    0 -0.71054273576E-14  0.35527136788E-14  0.00000000000E+00  0.91188000000E+02  0.91188000000E+02 0.  0.
    9900012    2    3    3    0    0 -0.26598879146E+02  0.24869439066E+02 -0.54580779460E+01  0.54367082220E+02  0.39999995537E+02 0.  0.
         12    1    3    3    0    0  0.26598879146E+02 -0.24869439066E+02  0.54580779460E+01  0.36820917780E+02  0.00000000000E+00 0. -1.
         11    1    4    4    0    0  0.26918353314E+01  0.12867850812E+02  0.74833450560E+01  0.15127062354E+02  0.51100000000E-03 0. -1.
        -11    1    4    4    0    0  0.14792884919E+01  0.25547200371E+01 -0.54408516450E+01  0.61901337461E+01  0.51100000000E-03 0.  1.
        -12    1    4    4    0    0 -0.30770002969E+02  0.94468682172E+01 -0.75005713570E+01  0.33049886120E+02  0.00000000000E+00 0.  1.
</event>
<event>
 8    1  0.1253703E-006  0.9118800E+02  0.7816164E-02  0.1184000E+00
        -11   -1    0    0    0    0  0.00000000000E+00  0.00000000000E+00  0.45593999997E+02  0.45594000000E+02  0.51100000000E-03 0. -1.
         11   -1    0    0    0    0 -0.00000000000E+00 -0.00000000000E+00 -0.45593999997E+02  0.45594000000E+02  0.51100000000E-03 0.  1.
         23    2    1    2    0    0 -0.88817841970E-15  0.17763568394E-14  0.00000000000E+00  0.91188000000E+02  0.91188000000E+02 0.  0.
    9900012    2    3    3    0    0 -0.47172271547E+01  0.15864791496E+02 -0.32891331502E+02  0.54367034108E+02  0.39999885856E+02 0.  0.
         12    1    3    3    0    0  0.47172271547E+01 -0.15864791496E+02  0.32891331502E+02  0.36820965892E+02  0.00000000000E+00 0. -1.
         11    1    4    4    0    0  0.65499657086E+01 -0.66681169185E+01 -0.12945518792E+02  0.15967225528E+02  0.51100000000E-03 0. -1.
        -11    1    4    4    0    0 -0.12186301428E+02  0.18281158052E+02 -0.23940497803E+02  0.32493908929E+02  0.51100000000E-03 0.  1.
         12    1    4    4    0    0  0.91910856466E+00  0.42517503624E+01  0.39946850919E+01  0.59058996505E+01  0.00000000000E+00 0. -1.
</event>
<event>
 8    1  0.1253703E-006  0.9118800E+02  0.7816164E-02  0.1184000E+00
        -11   -1    0    0    0    0  0.00000000000E+00  0.00000000000E+00  0.45593999997E+02  0.45594000000E+02  0.51100000000E-03 0.  1.
         11   -1    0    0    0    0 -0.00000000000E+00 -0.00000000000E+00 -0.45593999997E+02  0.45594000000E+02  0.51100000000E-03 0. -1.
         23    2    1    2    0    0 -0.71054273576E-14  0.00000000000E+00  0.00000000000E+00  0.91188000000E+02  0.91188000000E+02 0.  0.
    9900012    2    3    3    0    0 -0.20597935287E+02  0.29158165811E+02 -0.90169284638E+01  0.54367101444E+02  0.40000039361E+02 0.  0.
        -12    1    3    3    0    0  0.20597935287E+02 -0.29158165811E+02  0.90169284638E+01  0.36820898556E+02  0.00000000000E+00 0.  1.
         11    1    4    4    0    0  0.76827771253E+01  0.76945459715E+00 -0.44442106423E+01  0.89088794598E+01  0.51100000000E-03 0. -1.
        -11    1    4    4    0    0 -0.24788152995E+01  0.10852447903E+02  0.58380044420E+01  0.12569902422E+02  0.51100000000E-03 0.  1.
         12    1    4    4    0    0 -0.25801897113E+02  0.17536263311E+02 -0.10410722264E+02  0.32888319562E+02  0.00000000000E+00 0. -1.
</event>
<event>
 8    1  0.1253703E-006  0.9118800E+02  0.7816164E-02  0.1184000E+00
        -11   -1    0    0    0    0  0.00000000000E+00  0.00000000000E+00  0.45593999997E+02  0.45594000000E+02  0.51100000000E-03 0.  1.
         11   -1    0    0    0    0 -0.00000000000E+00 -0.00000000000E+00 -0.45593999997E+02  0.45594000000E+02  0.51100000000E-03 0. -1.
         23    2    1    2    0    0 -0.88817841970E-15 -0.35527136788E-14  0.00000000000E+00  0.91188000000E+02  0.91188000000E+02 0.  0.
    9900012    2    3    3    0    0  0.75491833325E+00  0.17009782748E+02  0.32647773132E+02  0.54367086089E+02  0.40000004356E+02 0.  0.
         12    1    3    3    0    0 -0.75491833325E+00 -0.17009782748E+02 -0.32647773132E+02  0.36820913911E+02  0.00000000000E+00 0. -1.
         11    1    4    4    0    0  0.13744930370E+02  0.12830593104E+01  0.58738530770E+00  0.13817176768E+02  0.51100000000E-03 0. -1.
        -11    1    4    4    0    0 -0.24798868104E+01  0.51406758020E+01  0.21572305967E+02  0.22314586514E+02  0.51100000000E-03 0.  1.
         12    1    4    4    0    0 -0.10510125226E+02  0.10586047636E+02  0.10488081856E+02  0.18235322806E+02  0.00000000000E+00 0. -1.
</event>
<event>
 8    1  0.1253703E-006  0.9118800E+02  0.7816164E-02  0.1184000E+00
        -11   -1    0    0    0    0  0.00000000000E+00  0.00000000000E+00  0.45593999997E+02  0.45594000000E+02  0.51100000000E-03 0.  1.
         11   -1    0    0    0    0 -0.00000000000E+00 -0.00000000000E+00 -0.45593999997E+02  0.45594000000E+02  0.51100000000E-03 0. -1.
         23    2    1    2    0    0  0.00000000000E+00 -0.35527136788E-14 -0.18041124150E-14  0.91188000000E+02  0.91188000000E+02 0.  0.
    9900012    2    3    3    0    0  0.28827314990E+02  0.22906415685E+02  0.24446654233E+00  0.54367112817E+02  0.40000065289E+02 0.  0.
         12    1    3    3    0    0 -0.28827314990E+02 -0.22906415685E+02 -0.24446654233E+00  0.36820887183E+02  0.00000000000E+00 0. -1.
         11    1    4    4    0    0 -0.37363478566E+01  0.38869452884E+01 -0.12960193786E+02  0.14036924955E+02  0.51100000000E-03 0. -1.
        -11    1    4    4    0    0  0.68310870345E+01  0.59157848912E+01  0.49163925131E+01  0.10287428083E+02  0.51100000000E-03 0.  1.
         12    1    4    4    0    0  0.25732575812E+02  0.13103685505E+02  0.82882678150E+01  0.30042759779E+02  0.00000000000E+00 0. -1.
</event>
<event>
 8    1  0.1253703E-006  0.9118800E+02  0.7816164E-02  0.1184000E+00
        -11   -1    0    0    0    0  0.00000000000E+00  0.00000000000E+00  0.45593999997E+02  0.45594000000E+02  0.51100000000E-03 0. -1.
         11   -1    0    0    0    0 -0.00000000000E+00 -0.00000000000E+00 -0.45593999997E+02  0.45594000000E+02  0.51100000000E-03 0.  1.
         23    2    1    2    0    0  0.88817841970E-15  0.00000000000E+00 -0.35527136788E-14  0.91188000000E+02  0.91188000000E+02 0.  0.
    9900012    2    3    3    0    0  0.58820642585E+01  0.18177430102E+02 -0.31476337287E+02  0.54367116604E+02  0.40000073922E+02 0.  0.
         12    1    3    3    0    0 -0.58820642585E+01 -0.18177430102E+02  0.31476337287E+02  0.36820883396E+02  0.00000000000E+00 0. -1.
         11    1    4    4    0    0 -0.25343417434E+01  0.74450666653E+01 -0.49097711923E+01  0.92713407415E+01  0.51100000000E-03 0. -1.
        -11    1    4    4    0    0  0.62909346026E+01  0.23058110180E+02 -0.18317283607E+02  0.30112707986E+02  0.51100000000E-03 0.  1.
        -12    1    4    4    0    0  0.21254713993E+01 -0.12325746743E+02 -0.82492824878E+01  0.14983067877E+02  0.00000000000E+00 0.  1.
</event>
<event>
 8    1  0.1253703E-006  0.9118800E+02  0.7816164E-02  0.1184000E+00
        -11   -1    0    0    0    0  0.00000000000E+00  0.00000000000E+00  0.45593999997E+02  0.45594000000E+02  0.51100000000E-03 0. -1.
         11   -1    0    0    0    0 -0.00000000000E+00 -0.00000000000E+00 -0.45593999997E+02  0.45594000000E+02  0.51100000000E-03 0.  1.
         23    2    1    2    0    0  0.00000000000E+00  0.00000000000E+00  0.00000000000E+00  0.91188000000E+02  0.91188000000E+02 0.  0.
    9900012    2    3    3    0    0  0.25032800334E+02 -0.90965136813E+01  0.25424355333E+02  0.54367007376E+02  0.39999824915E+02 0.  0.
        -12    1    3    3    0    0 -0.25032800334E+02  0.90965136813E+01 -0.25424355333E+02  0.36820992624E+02  0.00000000000E+00 0.  1.
         11    1    4    4    0    0  0.12215578976E+02 -0.14608477075E+02  0.21824311128E+02  0.28964262957E+02  0.51100000000E-03 0. -1.
        -11    1    4    4    0    0  0.11063260383E+01 -0.47136796940E+01  0.79057180147E+01  0.92705507469E+01  0.51100000000E-03 0.  1.
        -12    1    4    4    0    0  0.11710895320E+02  0.10225643088E+02 -0.43056738096E+01  0.16132193673E+02  0.00000000000E+00 0.  1.
</event>
<event>
 8    1  0.1253703E-006  0.9118800E+02  0.7816164E-02  0.1184000E+00
        -11   -1    0    0    0    0  0.00000000000E+00  0.00000000000E+00  0.45593999997E+02  0.45594000000E+02  0.51100000000E-03 0.  1.
         11   -1    0    0    0    0 -0.00000000000E+00 -0.00000000000E+00 -0.45593999997E+02  0.45594000000E+02  0.51100000000E-03 0. -1.
         23    2    1    2    0    0  0.17763568394E-14 -0.88817841970E-15  0.00000000000E+00  0.91188000000E+02  0.91188000000E+02 0.  0.
    9900012    2    3    3    0    0 -0.94573980897E+01  0.40745702968E+01  0.35351540670E+02  0.54367137306E+02  0.40000121117E+02 0.  0.
         12    1    3    3    0    0  0.94573980897E+01 -0.40745702968E+01 -0.35351540670E+02  0.36820862694E+02  0.00000000000E+00 0. -1.
         11    1    4    4    0    0 -0.16641238311E+02  0.15336415661E+02  0.20279339722E+02  0.30387301257E+02  0.51100000000E-03 0. -1.
        -11    1    4    4    0    0  0.57315519539E+01 -0.33609302422E+01  0.14471762696E+02  0.15924146937E+02  0.51100000000E-03 0.  1.
         12    1    4    4    0    0  0.14522882673E+01 -0.79009151222E+01  0.60043825261E+00  0.80556891123E+01  0.00000000000E+00 0. -1.
</event>
<event>
 8    1  0.1253703E-006  0.9118800E+02  0.7816164E-02  0.1184000E+00
        -11   -1    0    0    0    0  0.00000000000E+00  0.00000000000E+00  0.45593999997E+02  0.45594000000E+02  0.51100000000E-03 0.  1.
         11   -1    0    0    0    0 -0.00000000000E+00 -0.00000000000E+00 -0.45593999997E+02  0.45594000000E+02  0.51100000000E-03 0. -1.
         23    2    1    2    0    0 -0.35527136788E-14  0.88817841970E-15  0.00000000000E+00  0.91188000000E+02  0.91188000000E+02 0.  0.
    9900012    2    3    3    0    0 -0.24419388338E+02 -0.22048597889E+01 -0.27470386643E+02  0.54366945211E+02  0.39999683196E+02 0.  0.
        -12    1    3    3    0    0  0.24419388338E+02  0.22048597889E+01  0.27470386643E+02  0.36821054789E+02  0.00000000000E+00 0.  1.
         11    1    4    4    0    0 -0.22886482419E+01  0.33953272597E+01 -0.14289380133E+02  0.14864472504E+02  0.51100000000E-03 0. -1.
        -11    1    4    4    0    0 -0.17152138495E+02 -0.17203410792E+02 -0.11088333837E+02  0.26704013657E+02  0.51100000000E-03 0.  1.
        -12    1    4    4    0    0 -0.49786016012E+01  0.11603223743E+02 -0.20926726718E+01  0.12798459050E+02  0.00000000000E+00 0.  1.
</event>
<event>
 8    1  0.1253703E-006  0.9118800E+02  0.7816164E-02  0.1184000E+00
        -11   -1    0    0    0    0  0.00000000000E+00  0.00000000000E+00  0.45593999997E+02  0.45594000000E+02  0.51100000000E-03 0.  1.
         11   -1    0    0    0    0 -0.00000000000E+00 -0.00000000000E+00 -0.45593999997E+02  0.45594000000E+02  0.51100000000E-03 0. -1.
         23    2    1    2    0    0  0.00000000000E+00  0.00000000000E+00 -0.17763568394E-14  0.91188000000E+02  0.91188000000E+02 0.  0.
    9900012    2    3    3    0    0 -0.28013300399E+02  0.21813931402E+02  0.97563685438E+01  0.54367091135E+02  0.40000015862E+02 0.  0.
         12    1    3    3    0    0  0.28013300399E+02 -0.21813931402E+02 -0.97563685438E+01  0.36820908865E+02  0.00000000000E+00 0. -1.
         11    1    4    4    0    0 -0.78652186615E+01 -0.61954502339E+01 -0.29556980444E+01  0.10439416621E+02  0.51100000000E-03 0. -1.
        -11    1    4    4    0    0 -0.64606357763E+01  0.26340537622E+02  0.13130320561E+02  0.30132524872E+02  0.51100000000E-03 0.  1.
        -12    1    4    4    0    0 -0.13687445961E+02  0.16688440138E+01 -0.41825397296E+00  0.13795149643E+02  0.00000000000E+00 0.  1.
</event>
<event>
 8    1  0.1253703E-006  0.9118800E+02  0.7816164E-02  0.1184000E+00
        -11   -1    0    0    0    0  0.00000000000E+00  0.00000000000E+00  0.45593999997E+02  0.45594000000E+02  0.51100000000E-03 0. -1.
         11   -1    0    0    0    0 -0.00000000000E+00 -0.00000000000E+00 -0.45593999997E+02  0.45594000000E+02  0.51100000000E-03 0.  1.
         23    2    1    2    0    0  0.17763568394E-14  0.71054273576E-14  0.17763568394E-14  0.91188000000E+02  0.91188000000E+02 0.  0.
    9900012    2    3    3    0    0 -0.13646262637E+02 -0.32373668595E+02  0.11022972082E+02  0.54367070954E+02  0.39999969855E+02 0.  0.
        -12    1    3    3    0    0  0.13646262637E+02  0.32373668595E+02 -0.11022972082E+02  0.36820929046E+02  0.00000000000E+00 0.  1.
         11    1    4    4    0    0  0.30826470729E+01 -0.57428558605E+01 -0.51133875813E+01  0.82843128398E+01  0.51100000000E-03 0.  1.
        -11    1    4    4    0    0 -0.20647047864E+00 -0.25883435045E+02  0.56328406801E+01  0.26490068596E+02  0.51100000000E-03 0. -1.
         12    1    4    4    0    0 -0.16522439231E+02 -0.74737768896E+00  0.10503518983E+02  0.19592689519E+02  0.00000000000E+00 0. -1.
</event>
<event>
 8    1  0.1253703E-006  0.9118800E+02  0.7816164E-02  0.1184000E+00
        -11   -1    0    0    0    0  0.00000000000E+00  0.00000000000E+00  0.45593999997E+02  0.45594000000E+02  0.51100000000E-03 0.  1.
         11   -1    0    0    0    0 -0.00000000000E+00 -0.00000000000E+00 -0.45593999997E+02  0.45594000000E+02  0.51100000000E-03 0. -1.
         23    2    1    2    0    0  0.00000000000E+00  0.26645352591E-14  0.00000000000E+00  0.91188000000E+02  0.91188000000E+02 0.  0.
    9900012    2    3    3    0    0  0.33914258042E+02  0.44204019414E+01  0.13640485732E+02  0.54367086067E+02  0.40000004307E+02 0.  0.
         12    1    3    3    0    0 -0.33914258042E+02 -0.44204019414E+01 -0.13640485732E+02  0.36820913933E+02  0.00000000000E+00 0. -1.
         11    1    4    4    0    0 -0.40354243354E+01  0.14242317682E+01 -0.71850277142E+00  0.43392778420E+01  0.51100000000E-03 0. -1.
        -11    1    4    4    0    0  0.23004799945E+02  0.15906448480E+02  0.10684429336E+02  0.29939822215E+02  0.51100000000E-03 0.  1.
        -12    1    4    4    0    0  0.14944882433E+02 -0.12910278307E+02  0.36745591671E+01  0.20087986010E+02  0.00000000000E+00 0.  1.
</event>
<event>
 8    1  0.1253703E-006  0.9118800E+02  0.7816164E-02  0.1184000E+00
        -11   -1    0    0    0    0  0.00000000000E+00  0.00000000000E+00  0.45593999997E+02  0.45594000000E+02  0.51100000000E-03 0.  1.
         11   -1    0    0    0    0 -0.00000000000E+00 -0.00000000000E+00 -0.45593999997E+02  0.45594000000E+02  0.51100000000E-03 0. -1.
         23    2    1    2    0    0  0.00000000000E+00  0.17763568394E-14  0.00000000000E+00  0.91188000000E+02  0.91188000000E+02 0.  0.
    9900012    2    3    3    0    0  0.62724958742E+01 -0.10417577476E+02 -0.34754980672E+02  0.54367098240E+02  0.40000032057E+02 0.  0.
        -12    1    3    3    0    0 -0.62724958742E+01  0.10417577476E+02  0.34754980672E+02  0.36820901760E+02  0.00000000000E+00 0.  1.
         11    1    4    4    0    0 -0.22794102365E+01 -0.22574602110E+02 -0.22313319354E+02  0.31822831306E+02  0.51100000000E-03 0. -1.
        -11    1    4    4    0    0  0.31813871227E+01  0.38146964161E+01  0.17168424602E+01  0.52555381329E+01  0.51100000000E-03 0.  1.
        -12    1    4    4    0    0  0.53705189879E+01  0.83423282187E+01 -0.14158503778E+02  0.17288728801E+02  0.00000000000E+00 0.  1.
</event>
<event>
 8    1  0.1253703E-006  0.9118800E+02  0.7816164E-02  0.1184000E+00
        -11   -1    0    0    0    0  0.00000000000E+00  0.00000000000E+00  0.45593999997E+02  0.45594000000E+02  0.51100000000E-03 0. -1.
         11   -1    0    0    0    0 -0.00000000000E+00 -0.00000000000E+00 -0.45593999997E+02  0.45594000000E+02  0.51100000000E-03 0.  1.
         23    2    1    2    0    0  0.35527136788E-14  0.00000000000E+00  0.00000000000E+00  0.91188000000E+02  0.91188000000E+02 0.  0.
    9900012    2    3    3    0    0 -0.13716543486E+02 -0.33537325846E+02 -0.65485256344E+01  0.54367095909E+02  0.40000026743E+02 0.  0.
         12    1    3    3    0    0  0.13716543486E+02  0.33537325846E+02  0.65485256344E+01  0.36820904091E+02  0.00000000000E+00 0. -1.
         11    1    4    4    0    0  0.39424904573E+01 -0.66928541102E+01  0.51163744835E+01  0.93013340582E+01  0.51100000000E-03 0. -1.
        -11    1    4    4    0    0 -0.21221295953E+02 -0.56956542578E+01 -0.42958622228E+01  0.22388352147E+02  0.51100000000E-03 0.  1.
         12    1    4    4    0    0  0.35622620101E+01 -0.21148817478E+02 -0.73690378951E+01  0.22677409704E+02  0.00000000000E+00 0. -1.
</event>
<event>
 8    1  0.1253703E-006  0.9118800E+02  0.7816164E-02  0.1184000E+00
        -11   -1    0    0    0    0  0.00000000000E+00  0.00000000000E+00  0.45593999997E+02  0.45594000000E+02  0.51100000000E-03 0. -1.
         11   -1    0    0    0    0 -0.00000000000E+00 -0.00000000000E+00 -0.45593999997E+02  0.45594000000E+02  0.51100000000E-03 0.  1.
         23    2    1    2    0    0 -0.17763568394E-14 -0.35527136788E-14 -0.35527136788E-14  0.91188000000E+02  0.91188000000E+02 0.  0.
    9900012    2    3    3    0    0 -0.81136292179E+01  0.23706282793E+02  0.26980778502E+02  0.54367065309E+02  0.39999956985E+02 0.  0.
        -12    1    3    3    0    0  0.81136292179E+01 -0.23706282793E+02 -0.26980778502E+02  0.36820934691E+02  0.00000000000E+00 0.  1.
         11    1    4    4    0    0  0.37347278528E+01  0.19898598887E+01  0.18297090003E+02  0.18780075542E+02  0.51100000000E-03 0.  1.
        -11    1    4    4    0    0 -0.12462909408E+02  0.21945907635E+02  0.14918756090E+02  0.29317507677E+02  0.51100000000E-03 0. -1.
         12    1    4    4    0    0  0.61455233735E+00 -0.22948473106E+00 -0.62350675908E+01  0.62694820902E+01  0.00000000000E+00 0. -1.
</event>
<event>
 8    1  0.1253703E-006  0.9118800E+02  0.7816164E-02  0.1184000E+00
        -11   -1    0    0    0    0  0.00000000000E+00  0.00000000000E+00  0.45593999997E+02  0.45594000000E+02  0.51100000000E-03 0.  1.
         11   -1    0    0    0    0 -0.00000000000E+00 -0.00000000000E+00 -0.45593999997E+02  0.45594000000E+02  0.51100000000E-03 0. -1.
         23    2    1    2    0    0  0.00000000000E+00  0.00000000000E+00  0.35527136788E-14  0.91188000000E+02  0.91188000000E+02 0.  0.
    9900012    2    3    3    0    0 -0.92014024859E+01  0.25227283793E+02  0.25193242801E+02  0.54367066578E+02  0.39999959877E+02 0.  0.
         12    1    3    3    0    0  0.92014024859E+01 -0.25227283793E+02 -0.25193242801E+02  0.36820933422E+02  0.00000000000E+00 0. -1.
         11    1    4    4    0    0  0.78546782631E+01  0.95697184445E+01  0.98426309109E+01  0.15816221585E+02  0.51100000000E-03 0. -1.
        -11    1    4    4    0    0 -0.13510650529E+02 -0.15793563318E+01  0.15925030278E+02  0.20943701529E+02  0.51100000000E-03 0.  1.
        -12    1    4    4    0    0 -0.35454302200E+01  0.17236921680E+02 -0.57441838790E+00  0.17607143463E+02  0.00000000000E+00 0.  1.
</event>
<event>
 8    1  0.1253703E-006  0.9118800E+02  0.7816164E-02  0.1184000E+00
        -11   -1    0    0    0    0  0.00000000000E+00  0.00000000000E+00  0.45593999997E+02  0.45594000000E+02  0.51100000000E-03 0. -1.
         11   -1    0    0    0    0 -0.00000000000E+00 -0.00000000000E+00 -0.45593999997E+02  0.45594000000E+02  0.51100000000E-03 0.  1.
         23    2    1    2    0    0  0.00000000000E+00  0.00000000000E+00  0.00000000000E+00  0.91188000000E+02  0.91188000000E+02 0.  0.
    9900012    2    3    3    0    0  0.26693084316E+02  0.10607696417E+02 -0.23037710952E+02  0.54367080681E+02  0.39999992027E+02 0.  0.
         12    1    3    3    0    0 -0.26693084316E+02 -0.10607696417E+02  0.23037710952E+02  0.36820919319E+02  0.00000000000E+00 0. -1.
         11    1    4    4    0    0  0.22684540773E+02  0.47848369653E+01 -0.17884410713E+02  0.29280286913E+02  0.51100000000E-03 0. -1.
        -11    1    4    4    0    0  0.12184487895E+02  0.85931980573E+01 -0.66496491924E+01  0.16325520903E+02  0.51100000000E-03 0.  1.
         12    1    4    4    0    0 -0.81759443516E+01 -0.27703386051E+01  0.14963489527E+01  0.87612728650E+01  0.00000000000E+00 0. -1.
</event>
<event>
 8    1  0.1253703E-006  0.9118800E+02  0.7816164E-02  0.1184000E+00
        -11   -1    0    0    0    0  0.00000000000E+00  0.00000000000E+00  0.45593999997E+02  0.45594000000E+02  0.51100000000E-03 0.  1.
         11   -1    0    0    0    0 -0.00000000000E+00 -0.00000000000E+00 -0.45593999997E+02  0.45594000000E+02  0.51100000000E-03 0. -1.
         23    2    1    2    0    0  0.00000000000E+00  0.35527136788E-14 -0.35527136788E-14  0.91188000000E+02  0.91188000000E+02 0.  0.
    9900012    2    3    3    0    0 -0.17427178328E+02 -0.24523118181E+02  0.21229773230E+02  0.54366903585E+02  0.39999588301E+02 0.  0.
         12    1    3    3    0    0  0.17427178328E+02  0.24523118181E+02 -0.21229773230E+02  0.36821096415E+02  0.00000000000E+00 0. -1.
         11    1    4    4    0    0 -0.56467575401E+01 -0.11160754855E+01  0.11363035129E+02  0.12737741668E+02  0.51100000000E-03 0. -1.
        -11    1    4    4    0    0  0.85271436333E+00 -0.43686303920E+01 -0.10257617856E+02  0.11181716220E+02  0.51100000000E-03 0.  1.
        -12    1    4    4    0    0 -0.12633135152E+02 -0.19038412303E+02  0.20124355957E+02  0.30447445697E+02  0.00000000000E+00 0.  1.
</event>
<event>
 8    1  0.1253703E-006  0.9118800E+02  0.7816164E-02  0.1184000E+00
        -11   -1    0    0    0    0  0.00000000000E+00  0.00000000000E+00  0.45593999997E+02  0.45594000000E+02  0.51100000000E-03 0.  1.
         11   -1    0    0    0    0 -0.00000000000E+00 -0.00000000000E+00 -0.45593999997E+02  0.45594000000E+02  0.51100000000E-03 0. -1.
         23    2    1    2    0    0 -0.17763568394E-14  0.35527136788E-14 -0.35527136788E-14  0.91188000000E+02  0.91188000000E+02 0.  0.
    9900012    2    3    3    0    0  0.71912912209E+01 -0.23225236079E+02  0.27652375776E+02  0.54367080044E+02  0.39999990577E+02 0.  0.
         12    1    3    3    0    0 -0.71912912209E+01  0.23225236079E+02 -0.27652375776E+02  0.36820919956E+02  0.00000000000E+00 0. -1.
         11    1    4    4    0    0  0.61579985609E+01 -0.23317715245E+02  0.71968182563E+01  0.25168054827E+02  0.51100000000E-03 0. -1.
        -11    1    4    4    0    0 -0.73919376412E+01 -0.54617368179E+01  0.15346425534E+02  0.17888099063E+02  0.51100000000E-03 0.  1.
        -12    1    4    4    0    0  0.84252303012E+01  0.55542159838E+01  0.51091319856E+01  0.11310926154E+02  0.00000000000E+00 0.  1.
</event>
<event>
 8    1  0.1253703E-006  0.9118800E+02  0.7816164E-02  0.1184000E+00
        -11   -1    0    0    0    0  0.00000000000E+00  0.00000000000E+00  0.45593999997E+02  0.45594000000E+02  0.51100000000E-03 0. -1.
         11   -1    0    0    0    0 -0.00000000000E+00 -0.00000000000E+00 -0.45593999997E+02  0.45594000000E+02  0.51100000000E-03 0.  1.
         23    2    1    2    0    0  0.17763568394E-14  0.00000000000E+00  0.00000000000E+00  0.91188000000E+02  0.91188000000E+02 0.  0.
    9900012    2    3    3    0    0 -0.15810490120E+02  0.26793421121E+02  0.19695675077E+02  0.54367100637E+02  0.40000037521E+02 0.  0.
        -12    1    3    3    0    0  0.15810490120E+02 -0.26793421121E+02 -0.19695675077E+02  0.36820899363E+02  0.00000000000E+00 0.  1.
         11    1    4    4    0    0 -0.46323240783E+01  0.14242376680E+01  0.12193874264E+01  0.49973778382E+01  0.51100000000E-03 0. -1.
        -11    1    4    4    0    0 -0.13745187275E+01  0.10897085739E+02 -0.10715436263E+02  0.15344587121E+02  0.51100000000E-03 0.  1.
        -12    1    4    4    0    0 -0.98036473139E+01  0.14472097714E+02  0.29191723913E+02  0.34025135678E+02  0.00000000000E+00 0.  1.
</event>
<event>
 8    1  0.1253703E-006  0.9118800E+02  0.7816164E-02  0.1184000E+00
        -11   -1    0    0    0    0  0.00000000000E+00  0.00000000000E+00  0.45593999997E+02  0.45594000000E+02  0.51100000000E-03 0.  1.
         11   -1    0    0    0    0 -0.00000000000E+00 -0.00000000000E+00 -0.45593999997E+02  0.45594000000E+02  0.51100000000E-03 0. -1.
         23    2    1    2    0    0 -0.22204460493E-15  0.00000000000E+00  0.00000000000E+00  0.91188000000E+02  0.91188000000E+02 0.  0.
    9900012    2    3    3    0    0 -0.12733542794E+01 -0.30777723646E+02  0.20171554996E+02  0.54367063905E+02  0.39999953784E+02 0.  0.
         12    1    3    3    0    0  0.12733542794E+01  0.30777723646E+02 -0.20171554996E+02  0.36820936095E+02  0.00000000000E+00 0. -1.
         11    1    4    4    0    0  0.10132049493E+02 -0.14538574500E+02 -0.10475327087E+01  0.17751785839E+02  0.51100000000E-03 0. -1.
        -11    1    4    4    0    0  0.48695149055E+01 -0.74120991347E+01  0.14346412958E+02  0.16866266748E+02  0.51100000000E-03 0.  1.
         12    1    4    4    0    0 -0.16274918678E+02 -0.88270500112E+01  0.68726747462E+01  0.19749011318E+02  0.00000000000E+00 0. -1.
</event>
<event>
 8    1  0.1253703E-006  0.9118800E+02  0.7816164E-02  0.1184000E+00
        -11   -1    0    0    0    0  0.00000000000E+00  0.00000000000E+00  0.45593999997E+02  0.45594000000E+02  0.51100000000E-03 0. -1.
         11   -1    0    0    0    0 -0.00000000000E+00 -0.00000000000E+00 -0.45593999997E+02  0.45594000000E+02  0.51100000000E-03 0.  1.
         23    2    1    2    0    0  0.00000000000E+00  0.00000000000E+00 -0.17763568394E-14  0.91188000000E+02  0.91188000000E+02 0.  0.
    9900012    2    3    3    0    0  0.32410966062E+02  0.11270576687E+02  0.13352263892E+02  0.54367087858E+02  0.40000008389E+02 0.  0.
        -12    1    3    3    0    0 -0.32410966062E+02 -0.11270576687E+02 -0.13352263892E+02  0.36820912142E+02  0.00000000000E+00 0.  1.
         11    1    4    4    0    0  0.68848968133E+01  0.86929149009E+01 -0.17577585036E+01  0.11227568251E+02  0.51100000000E-03 0. -1.
        -11    1    4    4    0    0 -0.29164653892E+01  0.68477729806E+01 -0.41531794310E+01  0.85233012857E+01  0.51100000000E-03 0.  1.
         12    1    4    4    0    0  0.28442534638E+02 -0.42701111940E+01  0.19263201827E+02  0.34616218321E+02  0.00000000000E+00 0. -1.
</event>
<event>
 8    1  0.1253703E-006  0.9118800E+02  0.7816164E-02  0.1184000E+00
        -11   -1    0    0    0    0  0.00000000000E+00  0.00000000000E+00  0.45593999997E+02  0.45594000000E+02  0.51100000000E-03 0. -1.
         11   -1    0    0    0    0 -0.00000000000E+00 -0.00000000000E+00 -0.45593999997E+02  0.45594000000E+02  0.51100000000E-03 0.  1.
         23    2    1    2    0    0  0.00000000000E+00  0.00000000000E+00  0.00000000000E+00  0.91188000000E+02  0.91188000000E+02 0.  0.
    9900012    2    3    3    0    0  0.26239337472E+02 -0.18086873983E+02  0.18442946506E+02  0.54367080439E+02  0.39999991477E+02 0.  0.
        -12    1    3    3    0    0 -0.26239337472E+02  0.18086873983E+02 -0.18442946506E+02  0.36820919561E+02  0.00000000000E+00 0.  1.
         11    1    4    4    0    0  0.12575076664E+02 -0.97205973552E+01  0.15702835379E+02  0.22342819993E+02  0.51100000000E-03 0. -1.
        -11    1    4    4    0    0 -0.55832886281E+01 -0.86637098223E+01 -0.47752232895E+01  0.11359389839E+02  0.51100000000E-03 0.  1.
         12    1    4    4    0    0  0.19247549436E+02  0.29743319404E+00  0.75153344166E+01  0.20664870607E+02  0.00000000000E+00 0. -1.
</event>
<event>
 8    1  0.1253703E-006  0.9118800E+02  0.7816164E-02  0.1184000E+00
        -11   -1    0    0    0    0  0.00000000000E+00  0.00000000000E+00  0.45593999997E+02  0.45594000000E+02  0.51100000000E-03 0. -1.
         11   -1    0    0    0    0 -0.00000000000E+00 -0.00000000000E+00 -0.45593999997E+02  0.45594000000E+02  0.51100000000E-03 0.  1.
         23    2    1    2    0    0  0.88817841970E-15  0.11102230246E-15  0.71054273576E-14  0.91188000000E+02  0.91188000000E+02 0.  0.
    9900012    2    3    3    0    0 -0.51900048829E+01  0.65994678338E+00 -0.36447396639E+02  0.54367022253E+02  0.39999858831E+02 0.  0.
         12    1    3    3    0    0  0.51900048829E+01 -0.65994678338E+00  0.36447396639E+02  0.36820977747E+02  0.00000000000E+00 0. -1.
         11    1    4    4    0    0  0.97860740991E+01  0.10935853111E+02 -0.52039579918E+01  0.15570526920E+02  0.51100000000E-03 0. -1.
        -11    1    4    4    0    0  0.89267239211E+00 -0.53669586154E+01 -0.13168669971E+02  0.14248332458E+02  0.51100000000E-03 0.  1.
        -12    1    4    4    0    0 -0.15868751374E+02 -0.49089477120E+01 -0.18074768676E+02  0.24548162875E+02  0.00000000000E+00 0.  1.
</event>
<event>
 8    1  0.1253703E-006  0.9118800E+02  0.7816164E-02  0.1184000E+00
        -11   -1    0    0    0    0  0.00000000000E+00  0.00000000000E+00  0.45593999997E+02  0.45594000000E+02  0.51100000000E-03 0.  1.
         11   -1    0    0    0    0 -0.00000000000E+00 -0.00000000000E+00 -0.45593999997E+02  0.45594000000E+02  0.51100000000E-03 0. -1.
         23    2    1    2    0    0  0.00000000000E+00 -0.88817841970E-15 -0.35527136788E-14  0.91188000000E+02  0.91188000000E+02 0.  0.
    9900012    2    3    3    0    0  0.19377721566E+02 -0.21114825622E+01  0.31238219427E+02  0.54367071105E+02  0.39999970199E+02 0.  0.
         12    1    3    3    0    0 -0.19377721566E+02  0.21114825622E+01 -0.31238219427E+02  0.36820928895E+02  0.00000000000E+00 0. -1.
         11    1    4    4    0    0  0.21501507770E+02 -0.98275760797E+01  0.28630684477E+02  0.37129667139E+02  0.51100000000E-03 0. -1.
        -11    1    4    4    0    0 -0.42514323338E+01  0.84335178794E+01  0.73649757757E+01  0.11976717795E+02  0.51100000000E-03 0.  1.
         12    1    4    4    0    0  0.21276461305E+01 -0.71742436185E+00 -0.47574408262E+01  0.52606861706E+01  0.00000000000E+00 0. -1.
</event>
<event>
 8    1  0.1253703E-006  0.9118800E+02  0.7816164E-02  0.1184000E+00
        -11   -1    0    0    0    0  0.00000000000E+00  0.00000000000E+00  0.45593999997E+02  0.45594000000E+02  0.51100000000E-03 0. -1.
         11   -1    0    0    0    0 -0.00000000000E+00 -0.00000000000E+00 -0.45593999997E+02  0.45594000000E+02  0.51100000000E-03 0.  1.
         23    2    1    2    0    0  0.00000000000E+00  0.00000000000E+00  0.00000000000E+00  0.91188000000E+02  0.91188000000E+02 0.  0.
    9900012    2    3    3    0    0 -0.12591087273E+02  0.31640554303E+02 -0.14004219679E+02  0.54367104789E+02  0.40000046988E+02 0.  0.
         12    1    3    3    0    0  0.12591087273E+02 -0.31640554303E+02  0.14004219679E+02  0.36820895211E+02  0.00000000000E+00 0. -1.
         11    1    4    4    0    0 -0.99971560975E+00 -0.48493877665E+01 -0.94408577759E+01  0.10660477889E+02  0.51100000000E-03 0.  1.
        -11    1    4    4    0    0 -0.14923626878E+02  0.35236295928E+02 -0.76159807302E+01  0.39016847037E+02  0.51100000000E-03 0. -1.
         12    1    4    4    0    0  0.33322552149E+01  0.12536461412E+01  0.30526188272E+01  0.46897798636E+01  0.00000000000E+00 0. -1.
</event>
<event>
 8    1  0.1253703E-006  0.9118800E+02  0.7816164E-02  0.1184000E+00
        -11   -1    0    0    0    0  0.00000000000E+00  0.00000000000E+00  0.45593999997E+02  0.45594000000E+02  0.51100000000E-03 0. -1.
         11   -1    0    0    0    0 -0.00000000000E+00 -0.00000000000E+00 -0.45593999997E+02  0.45594000000E+02  0.51100000000E-03 0.  1.
         23    2    1    2    0    0  0.88817841970E-15 -0.17763568394E-14 -0.71054273576E-14  0.91188000000E+02  0.91188000000E+02 0.  0.
    9900012    2    3    3    0    0  0.55762305191E+01 -0.14218491252E+02 -0.33504023987E+02  0.54367089316E+02  0.40000011714E+02 0.  0.
         12    1    3    3    0    0 -0.55762305191E+01  0.14218491252E+02  0.33504023987E+02  0.36820910684E+02  0.00000000000E+00 0. -1.
         11    1    4    4    0    0 -0.11837142964E+02 -0.92925766440E+01 -0.74796370263E+01  0.16805204686E+02  0.51100000000E-03 0. -1.
        -11    1    4    4    0    0 -0.10037110891E+01 -0.82586600174E+01 -0.90789762237E+01  0.12314248283E+02  0.51100000000E-03 0.  1.
         12    1    4    4    0    0  0.18417084572E+02  0.33327454096E+01 -0.16945410737E+02  0.25247636348E+02  0.00000000000E+00 0. -1.
</event>
<event>
 8    1  0.1253703E-006  0.9118800E+02  0.7816164E-02  0.1184000E+00
        -11   -1    0    0    0    0  0.00000000000E+00  0.00000000000E+00  0.45593999997E+02  0.45594000000E+02  0.51100000000E-03 0. -1.
         11   -1    0    0    0    0 -0.00000000000E+00 -0.00000000000E+00 -0.45593999997E+02  0.45594000000E+02  0.51100000000E-03 0.  1.
         23    2    1    2    0    0  0.00000000000E+00  0.00000000000E+00  0.00000000000E+00  0.91188000000E+02  0.91188000000E+02 0.  0.
    9900012    2    3    3    0    0  0.33527921790E+01 -0.90760867435E+01 -0.35526956131E+02  0.54367066037E+02  0.39999958644E+02 0.  0.
         12    1    3    3    0    0 -0.33527921790E+01  0.90760867435E+01  0.35526956131E+02  0.36820933963E+02  0.00000000000E+00 0. -1.
         11    1    4    4    0    0 -0.11379663040E+02 -0.28085663062E+01 -0.59468757076E+01  0.13143443481E+02  0.51100000000E-03 0. -1.
        -11    1    4    4    0    0  0.98371264090E+00 -0.85710970851E+01 -0.25161883779E+02  0.26599845702E+02  0.51100000000E-03 0.  1.
        -12    1    4    4    0    0  0.13748742578E+02  0.23035766479E+01 -0.44181966441E+01  0.14623776853E+02  0.00000000000E+00 0.  1.
</event>
<event>
 8    1  0.1253703E-006  0.9118800E+02  0.7816164E-02  0.1184000E+00
        -11   -1    0    0    0    0  0.00000000000E+00  0.00000000000E+00  0.45593999997E+02  0.45594000000E+02  0.51100000000E-03 0.  1.
         11   -1    0    0    0    0 -0.00000000000E+00 -0.00000000000E+00 -0.45593999997E+02  0.45594000000E+02  0.51100000000E-03 0. -1.
         23    2    1    2    0    0 -0.22204460493E-14  0.00000000000E+00  0.00000000000E+00  0.91188000000E+02  0.91188000000E+02 0.  0.
    9900012    2    3    3    0    0  0.26188299854E+01  0.19478519860E+02  0.31136926749E+02  0.54367092708E+02  0.40000019446E+02 0.  0.
         12    1    3    3    0    0 -0.26188299854E+01 -0.19478519860E+02 -0.31136926749E+02  0.36820907292E+02  0.00000000000E+00 0. -1.
         11    1    4    4    0    0 -0.39975845749E+01  0.76152704842E+01 -0.34856834952E-01  0.86008279974E+01  0.51100000000E-03 0. -1.
        -11    1    4    4    0    0 -0.70552439628E+01  0.17137638546E+02  0.14227538353E+02  0.23364459552E+02  0.51100000000E-03 0.  1.
         12    1    4    4    0    0  0.13671658523E+02 -0.52743891699E+01  0.16944245231E+02  0.22401805158E+02  0.00000000000E+00 0. -1.
</event>
<event>
 8    1  0.1253703E-006  0.9118800E+02  0.7816164E-02  0.1184000E+00
        -11   -1    0    0    0    0  0.00000000000E+00  0.00000000000E+00  0.45593999997E+02  0.45594000000E+02  0.51100000000E-03 0. -1.
         11   -1    0    0    0    0 -0.00000000000E+00 -0.00000000000E+00 -0.45593999997E+02  0.45594000000E+02  0.51100000000E-03 0.  1.
         23    2    1    2    0    0  0.00000000000E+00  0.00000000000E+00  0.00000000000E+00  0.91188000000E+02  0.91188000000E+02 0.  0.
    9900012    2    3    3    0    0 -0.99301257571E+01  0.21813746446E+02  0.27952331178E+02  0.54367085429E+02  0.40000002853E+02 0.  0.
        -12    1    3    3    0    0  0.99301257571E+01 -0.21813746446E+02 -0.27952331178E+02  0.36820914571E+02  0.00000000000E+00 0.  1.
         11    1    4    4    0    0  0.31724650820E+01  0.20829146056E+02  0.29807442683E+01  0.21279161092E+02  0.51100000000E-03 0. -1.
        -11    1    4    4    0    0 -0.13638083779E+02  0.17006927685E+01  0.27316072847E+02  0.30578710259E+02  0.51100000000E-03 0.  1.
        -12    1    4    4    0    0  0.53549293965E+00 -0.71609237906E+00 -0.23444859369E+01  0.25092140786E+01  0.00000000000E+00 0.  1.
</event>
<event>
 8    1  0.1253703E-006  0.9118800E+02  0.7816164E-02  0.1184000E+00
        -11   -1    0    0    0    0  0.00000000000E+00  0.00000000000E+00  0.45593999997E+02  0.45594000000E+02  0.51100000000E-03 0.  1.
         11   -1    0    0    0    0 -0.00000000000E+00 -0.00000000000E+00 -0.45593999997E+02  0.45594000000E+02  0.51100000000E-03 0. -1.
         23    2    1    2    0    0  0.00000000000E+00 -0.35527136788E-14  0.52735593670E-15  0.91188000000E+02  0.91188000000E+02 0.  0.
    9900012    2    3    3    0    0 -0.31320263348E+02  0.19359454554E+02  0.18084342272E+00  0.54367080930E+02  0.39999992597E+02 0.  0.
        -12    1    3    3    0    0  0.31320263348E+02 -0.19359454554E+02 -0.18084342272E+00  0.36820919070E+02  0.00000000000E+00 0.  1.
         11    1    4    4    0    0  0.19024338754E+01 -0.42053133516E+01  0.38968578756E+01  0.60406470348E+01  0.51100000000E-03 0. -1.
        -11    1    4    4    0    0 -0.18920458403E+02  0.19911368747E+02  0.89366605202E+01  0.28884429249E+02  0.51100000000E-03 0.  1.
         12    1    4    4    0    0 -0.14302238820E+02  0.36533991586E+01 -0.12652674973E+02  0.19442004646E+02  0.00000000000E+00 0. -1.
</event>
<event>
 8    1  0.1253703E-006  0.9118800E+02  0.7816164E-02  0.1184000E+00
        -11   -1    0    0    0    0  0.00000000000E+00  0.00000000000E+00  0.45593999997E+02  0.45594000000E+02  0.51100000000E-03 0. -1.
         11   -1    0    0    0    0 -0.00000000000E+00 -0.00000000000E+00 -0.45593999997E+02  0.45594000000E+02  0.51100000000E-03 0.  1.
         23    2    1    2    0    0  0.17763568394E-14  0.00000000000E+00  0.00000000000E+00  0.91188000000E+02  0.91188000000E+02 0.  0.
    9900012    2    3    3    0    0  0.15008069931E+02  0.24308727894E+02  0.23229788810E+02  0.54367088781E+02  0.40000010493E+02 0.  0.
        -12    1    3    3    0    0 -0.15008069931E+02 -0.24308727894E+02 -0.23229788810E+02  0.36820911219E+02  0.00000000000E+00 0.  1.
         11    1    4    4    0    0  0.16200625174E+02 -0.30963196641E+01  0.87078788830E+01  0.18651396902E+02  0.51100000000E-03 0. -1.
        -11    1    4    4    0    0 -0.49591749882E+01  0.82386729508E+01 -0.23564992759E+01  0.99006180440E+01  0.51100000000E-03 0.  1.
         12    1    4    4    0    0  0.37666197453E+01  0.19166374607E+02  0.16878409203E+02  0.25815073835E+02  0.00000000000E+00 0. -1.
</event>
<event>
 8    1  0.1253703E-006  0.9118800E+02  0.7816164E-02  0.1184000E+00
        -11   -1    0    0    0    0  0.00000000000E+00  0.00000000000E+00  0.45593999997E+02  0.45594000000E+02  0.51100000000E-03 0. -1.
         11   -1    0    0    0    0 -0.00000000000E+00 -0.00000000000E+00 -0.45593999997E+02  0.45594000000E+02  0.51100000000E-03 0.  1.
         23    2    1    2    0    0  0.00000000000E+00  0.71054273576E-14  0.00000000000E+00  0.91188000000E+02  0.91188000000E+02 0.  0.
    9900012    2    3    3    0    0  0.16963222091E+02  0.21464111653E+02 -0.24643878073E+02  0.54367085844E+02  0.40000003799E+02 0.  0.
         12    1    3    3    0    0 -0.16963222091E+02 -0.21464111653E+02  0.24643878073E+02  0.36820914156E+02  0.00000000000E+00 0. -1.
         11    1    4    4    0    0  0.93699028454E+01 -0.30762567160E+01  0.12426234312E+01  0.99399470808E+01  0.51100000000E-03 0. -1.
        -11    1    4    4    0    0  0.63399396533E+01  0.27127370312E+02 -0.12149224175E+02  0.30392313225E+02  0.51100000000E-03 0.  1.
         12    1    4    4    0    0  0.12533795926E+01 -0.25870019434E+01 -0.13737277330E+02  0.14034825538E+02  0.00000000000E+00 0. -1.
</event>
<event>
 8    1  0.1253703E-006  0.9118800E+02  0.7816164E-02  0.1184000E+00
        -11   -1    0    0    0    0  0.00000000000E+00  0.00000000000E+00  0.45593999997E+02  0.45594000000E+02  0.51100000000E-03 0. -1.
         11   -1    0    0    0    0 -0.00000000000E+00 -0.00000000000E+00 -0.45593999997E+02  0.45594000000E+02  0.51100000000E-03 0.  1.
         23    2    1    2    0    0  0.00000000000E+00  0.00000000000E+00 -0.44408920985E-14  0.91188000000E+02  0.91188000000E+02 0.  0.
    9900012    2    3    3    0    0  0.36432642516E+02 -0.16435852197E+01 -0.50735165852E+01  0.54367090402E+02  0.40000014189E+02 0.  0.
        -12    1    3    3    0    0 -0.36432642516E+02  0.16435852197E+01  0.50735165852E+01  0.36820909598E+02  0.00000000000E+00 0.  1.
         11    1    4    4    0    0  0.46913603326E+01 -0.46264199403E+01  0.14118273744E+02  0.15580060238E+02  0.51100000000E-03 0. -1.
        -11    1    4    4    0    0  0.24984372498E+02  0.15260561958E+00 -0.97109216509E+01  0.26805673973E+02  0.51100000000E-03 0.  1.
         12    1    4    4    0    0  0.67569096856E+01  0.28302291010E+01 -0.94808686786E+01  0.11981356191E+02  0.00000000000E+00 0. -1.
</event>
<event>
 8    1  0.1253703E-006  0.9118800E+02  0.7816164E-02  0.1184000E+00
        -11   -1    0    0    0    0  0.00000000000E+00  0.00000000000E+00  0.45593999997E+02  0.45594000000E+02  0.51100000000E-03 0.  1.
         11   -1    0    0    0    0 -0.00000000000E+00 -0.00000000000E+00 -0.45593999997E+02  0.45594000000E+02  0.51100000000E-03 0. -1.
         23    2    1    2    0    0  0.35527136788E-14  0.00000000000E+00  0.00000000000E+00  0.91188000000E+02  0.91188000000E+02 0.  0.
    9900012    2    3    3    0    0  0.27220910381E+02 -0.10261733590E+02  0.22572191204E+02  0.54367014760E+02  0.39999841749E+02 0.  0.
         12    1    3    3    0    0 -0.27220910381E+02  0.10261733590E+02 -0.22572191204E+02  0.36820985240E+02  0.00000000000E+00 0. -1.
         11    1    4    4    0    0  0.64194202179E+01 -0.17398726660E+02  0.46676562381E+01  0.19123589107E+02  0.51100000000E-03 0. -1.
        -11    1    4    4    0    0  0.10014448176E+02 -0.70592350219E+01  0.49975449735E+01  0.13232438452E+02  0.51100000000E-03 0.  1.
         12    1    4    4    0    0  0.10787041987E+02  0.14196228092E+02  0.12906989993E+02  0.22010987201E+02  0.00000000000E+00 0. -1.
</event>
<event>
 8    1  0.1253703E-006  0.9118800E+02  0.7816164E-02  0.1184000E+00
        -11   -1    0    0    0    0  0.00000000000E+00  0.00000000000E+00  0.45593999997E+02  0.45594000000E+02  0.51100000000E-03 0. -1.
         11   -1    0    0    0    0 -0.00000000000E+00 -0.00000000000E+00 -0.45593999997E+02  0.45594000000E+02  0.51100000000E-03 0.  1.
         23    2    1    2    0    0  0.00000000000E+00  0.00000000000E+00 -0.35527136788E-14  0.91188000000E+02  0.91188000000E+02 0.  0.
    9900012    2    3    3    0    0 -0.50020412073E+01 -0.31434498287E+02  0.18510468166E+02  0.54367006931E+02  0.39999823901E+02 0.  0.
        -12    1    3    3    0    0  0.50020412073E+01  0.31434498287E+02 -0.18510468166E+02  0.36820993069E+02  0.00000000000E+00 0.  1.
         11    1    4    4    0    0 -0.35249481738E+01 -0.32643768853E+00  0.60255109481E+01  0.69884621799E+01  0.51100000000E-03 0. -1.
        -11    1    4    4    0    0 -0.23490054832E+01 -0.13613767028E+01  0.17055421406E+02  0.17270164240E+02  0.51100000000E-03 0.  1.
        -12    1    4    4    0    0  0.87191244980E+00 -0.29746683896E+02 -0.45704641875E+01  0.30108380511E+02  0.00000000000E+00 0.  1.
</event>
<event>
 8    1  0.1253703E-006  0.9118800E+02  0.7816164E-02  0.1184000E+00
        -11   -1    0    0    0    0  0.00000000000E+00  0.00000000000E+00  0.45593999997E+02  0.45594000000E+02  0.51100000000E-03 0. -1.
         11   -1    0    0    0    0 -0.00000000000E+00 -0.00000000000E+00 -0.45593999997E+02  0.45594000000E+02  0.51100000000E-03 0.  1.
         23    2    1    2    0    0 -0.35527136788E-14 -0.35527136788E-14  0.44408920985E-15  0.91188000000E+02  0.91188000000E+02 0.  0.
    9900012    2    3    3    0    0  0.18901623171E+02  0.31496487937E+02 -0.25456507639E+01  0.54367075940E+02  0.39999981220E+02 0.  0.
        -12    1    3    3    0    0 -0.18901623171E+02 -0.31496487937E+02  0.25456507639E+01  0.36820924060E+02  0.00000000000E+00 0.  1.
         11    1    4    4    0    0 -0.42737734539E+01  0.80101383431E+01 -0.14917932920E+01  0.92007012395E+01  0.51100000000E-03 0. -1.
        -11    1    4    4    0    0  0.14804450772E+02  0.26722797801E+02 -0.10339992005E+02  0.32252056057E+02  0.51100000000E-03 0.  1.
        -12    1    4    4    0    0  0.83709458527E+01 -0.32364482071E+01  0.92861345330E+01  0.12914318644E+02  0.00000000000E+00 0.  1.
</event>
<event>
 8    1  0.1253703E-006  0.9118800E+02  0.7816164E-02  0.1184000E+00
        -11   -1    0    0    0    0  0.00000000000E+00  0.00000000000E+00  0.45593999997E+02  0.45594000000E+02  0.51100000000E-03 0.  1.
         11   -1    0    0    0    0 -0.00000000000E+00 -0.00000000000E+00 -0.45593999997E+02  0.45594000000E+02  0.51100000000E-03 0. -1.
         23    2    1    2    0    0  0.17763568394E-14  0.71054273576E-14 -0.13322676296E-14  0.91188000000E+02  0.91188000000E+02 0.  0.
    9900012    2    3    3    0    0 -0.41926795533E+01 -0.36433765891E+02  0.32829764234E+01  0.54367139160E+02  0.40000125342E+02 0.  0.
        -12    1    3    3    0    0  0.41926795533E+01  0.36433765891E+02 -0.32829764234E+01  0.36820860840E+02  0.00000000000E+00 0.  1.
         11    1    4    4    0    0  0.66095760855E+01 -0.10469652314E+02 -0.63716097385E+01  0.13924709208E+02  0.51100000000E-03 0. -1.
        -11    1    4    4    0    0  0.62169292494E+01  0.13011849547E+01  0.47454779976E+01  0.79286097940E+01  0.51100000000E-03 0.  1.
         12    1    4    4    0    0 -0.17019184888E+02 -0.27265298531E+02  0.49091081644E+01  0.32513820157E+02  0.00000000000E+00 0. -1.
</event>
<event>
 8    1  0.1253703E-006  0.9118800E+02  0.7816164E-02  0.1184000E+00
        -11   -1    0    0    0    0  0.00000000000E+00  0.00000000000E+00  0.45593999997E+02  0.45594000000E+02  0.51100000000E-03 0. -1.
         11   -1    0    0    0    0 -0.00000000000E+00 -0.00000000000E+00 -0.45593999997E+02  0.45594000000E+02  0.51100000000E-03 0.  1.
         23    2    1    2    0    0  0.17763568394E-14 -0.71054273576E-14  0.00000000000E+00  0.91188000000E+02  0.91188000000E+02 0.  0.
    9900012    2    3    3    0    0  0.10072864998E+02 -0.32427961755E+02 -0.14238841073E+02  0.54367083282E+02  0.39999997957E+02 0.  0.
         12    1    3    3    0    0 -0.10072864998E+02  0.32427961755E+02  0.14238841073E+02  0.36820916718E+02  0.00000000000E+00 0. -1.
         11    1    4    4    0    0  0.13056443069E+02 -0.26265501039E+02 -0.12360290888E+02  0.31829609510E+02  0.51100000000E-03 0. -1.
        -11    1    4    4    0    0  0.40957798620E+01 -0.12111235777E+02  0.10754246829E+01  0.12830198098E+02  0.51100000000E-03 0.  1.
        -12    1    4    4    0    0 -0.70793579336E+01  0.59487750611E+01 -0.29539748681E+01  0.97072756735E+01  0.00000000000E+00 0.  1.
</event>
<event>
 8    1  0.1253703E-006  0.9118800E+02  0.7816164E-02  0.1184000E+00
        -11   -1    0    0    0    0  0.00000000000E+00  0.00000000000E+00  0.45593999997E+02  0.45594000000E+02  0.51100000000E-03 0.  1.
         11   -1    0    0    0    0 -0.00000000000E+00 -0.00000000000E+00 -0.45593999997E+02  0.45594000000E+02  0.51100000000E-03 0. -1.
         23    2    1    2    0    0  0.22204460493E-15  0.00000000000E+00  0.35527136788E-14  0.91188000000E+02  0.91188000000E+02 0.  0.
    9900012    2    3    3    0    0  0.19701296768E+01 -0.32090417917E+02 -0.17947234021E+02  0.54367088251E+02  0.40000009286E+02 0.  0.
         12    1    3    3    0    0 -0.19701296768E+01  0.32090417917E+02  0.17947234021E+02  0.36820911749E+02  0.00000000000E+00 0. -1.
         11    1    4    4    0    0 -0.10002888862E+02 -0.15549278170E+01 -0.35822445137E+01  0.10738159159E+02  0.51100000000E-03 0. -1.
        -11    1    4    4    0    0  0.78359095645E+00 -0.26521474658E+02 -0.16921299629E+02  0.31469556944E+02  0.51100000000E-03 0.  1.
        -12    1    4    4    0    0  0.11189427583E+02 -0.40140154420E+01  0.25563101220E+01  0.12159372148E+02  0.00000000000E+00 0.  1.
</event>
<event>
 8    1  0.1253703E-006  0.9118800E+02  0.7816164E-02  0.1184000E+00
        -11   -1    0    0    0    0  0.00000000000E+00  0.00000000000E+00  0.45593999997E+02  0.45594000000E+02  0.51100000000E-03 0. -1.
         11   -1    0    0    0    0 -0.00000000000E+00 -0.00000000000E+00 -0.45593999997E+02  0.45594000000E+02  0.51100000000E-03 0.  1.
         23    2    1    2    0    0  0.35527136788E-14  0.88817841970E-15  0.00000000000E+00  0.91188000000E+02  0.91188000000E+02 0.  0.
    9900012    2    3    3    0    0  0.25352622480E+02  0.78350066701E+01 -0.25527185229E+02  0.54367082278E+02  0.39999995670E+02 0.  0.
         12    1    3    3    0    0 -0.25352622480E+02 -0.78350066701E+01  0.25527185229E+02  0.36820917722E+02  0.00000000000E+00 0. -1.
         11    1    4    4    0    0  0.48250620367E+01  0.48606778104E+01  0.71742481438E+01  0.99185305930E+01  0.51100000000E-03 0. -1.
        -11    1    4    4    0    0  0.10443131341E+02 -0.33961277547E+01 -0.15484626277E+01  0.11090104269E+02  0.51100000000E-03 0.  1.
        -12    1    4    4    0    0  0.10084429103E+02  0.63704566144E+01 -0.31152970745E+02  0.33358447416E+02  0.00000000000E+00 0.  1.
</event>
<event>
 8    1  0.1253703E-006  0.9118800E+02  0.7816164E-02  0.1184000E+00
        -11   -1    0    0    0    0  0.00000000000E+00  0.00000000000E+00  0.45593999997E+02  0.45594000000E+02  0.51100000000E-03 0.  1.
         11   -1    0    0    0    0 -0.00000000000E+00 -0.00000000000E+00 -0.45593999997E+02  0.45594000000E+02  0.51100000000E-03 0. -1.
         23    2    1    2    0    0  0.88817841970E-15 -0.71054273576E-14 -0.44408920985E-15  0.91188000000E+02  0.91188000000E+02 0.  0.
    9900012    2    3    3    0    0 -0.45450396691E+01 -0.36321730011E+02 -0.39819890342E+01  0.54367059039E+02  0.39999942692E+02 0.  0.
        -12    1    3    3    0    0  0.45450396691E+01  0.36321730011E+02  0.39819890342E+01  0.36820940961E+02  0.00000000000E+00 0.  1.
         11    1    4    4    0    0  0.45300262823E+01 -0.12337114179E+02 -0.63829308118E+01  0.14610521222E+02  0.51100000000E-03 0. -1.
        -11    1    4    4    0    0  0.86485579576E+01 -0.78221268709E+00  0.56788603971E+01  0.10375879100E+02  0.51100000000E-03 0.  1.
        -12    1    4    4    0    0 -0.17723623909E+02 -0.23202403145E+02 -0.32779186195E+01  0.29380658717E+02  0.00000000000E+00 0.  1.
</event>
<event>
 8    1  0.1253703E-006  0.9118800E+02  0.7816164E-02  0.1184000E+00
        -11   -1    0    0    0    0  0.00000000000E+00  0.00000000000E+00  0.45593999997E+02  0.45594000000E+02  0.51100000000E-03 0.  1.
         11   -1    0    0    0    0 -0.00000000000E+00 -0.00000000000E+00 -0.45593999997E+02  0.45594000000E+02  0.51100000000E-03 0. -1.
         23    2    1    2    0    0  0.88817841970E-15  0.00000000000E+00 -0.35527136788E-14  0.91188000000E+02  0.91188000000E+02 0.  0.
    9900012    2    3    3    0    0  0.64838604133E+01 -0.25522204659E+02  0.25736283719E+02  0.54367086430E+02  0.40000005134E+02 0.  0.
         12    1    3    3    0    0 -0.64838604133E+01  0.25522204659E+02 -0.25736283719E+02  0.36820913570E+02  0.00000000000E+00 0. -1.
         11    1    4    4    0    0  0.48087750495E+01  0.14922710170E+01 -0.27550153820E+01  0.57394512177E+01  0.51100000000E-03 0. -1.
        -11    1    4    4    0    0  0.12920970630E+02 -0.35723579483E+01  0.95295448803E+01  0.16447657864E+02  0.51100000000E-03 0.  1.
        -12    1    4    4    0    0 -0.11245885266E+02 -0.23442117727E+02  0.18961754221E+02  0.32179977348E+02  0.00000000000E+00 0.  1.
</event>
<event>
 8    1  0.1253703E-006  0.9118800E+02  0.7816164E-02  0.1184000E+00
        -11   -1    0    0    0    0  0.00000000000E+00  0.00000000000E+00  0.45593999997E+02  0.45594000000E+02  0.51100000000E-03 0. -1.
         11   -1    0    0    0    0 -0.00000000000E+00 -0.00000000000E+00 -0.45593999997E+02  0.45594000000E+02  0.51100000000E-03 0.  1.
         23    2    1    2    0    0 -0.26645352591E-14  0.17763568394E-14  0.00000000000E+00  0.91188000000E+02  0.91188000000E+02 0.  0.
    9900012    2    3    3    0    0 -0.49218703195E+01  0.87614864921E+01 -0.35423021049E+02  0.54367097333E+02  0.40000029989E+02 0.  0.
         12    1    3    3    0    0  0.49218703195E+01 -0.87614864921E+01  0.35423021049E+02  0.36820902667E+02  0.00000000000E+00 0. -1.
         11    1    4    4    0    0 -0.10300892437E+01 -0.16992741773E+01  0.34513700916E+01  0.39825334085E+01  0.51100000000E-03 0. -1.
        -11    1    4    4    0    0  0.12303483601E+02  0.21915225924E+01 -0.89613801270E+01  0.15378062753E+02  0.51100000000E-03 0.  1.
        -12    1    4    4    0    0 -0.16195264677E+02  0.82692380770E+01 -0.29913011014E+02  0.35006501171E+02  0.00000000000E+00 0.  1.
</event>
<event>
 8    1  0.1253703E-006  0.9118800E+02  0.7816164E-02  0.1184000E+00
        -11   -1    0    0    0    0  0.00000000000E+00  0.00000000000E+00  0.45593999997E+02  0.45594000000E+02  0.51100000000E-03 0.  1.
         11   -1    0    0    0    0 -0.00000000000E+00 -0.00000000000E+00 -0.45593999997E+02  0.45594000000E+02  0.51100000000E-03 0. -1.
         23    2    1    2    0    0  0.00000000000E+00 -0.17763568394E-14  0.00000000000E+00  0.91188000000E+02  0.91188000000E+02 0.  0.
    9900012    2    3    3    0    0  0.33302575269E+02  0.11064911489E+02  0.11148663750E+02  0.54366993913E+02  0.39999794224E+02 0.  0.
         12    1    3    3    0    0 -0.33302575269E+02 -0.11064911489E+02 -0.11148663750E+02  0.36821006087E+02  0.00000000000E+00 0. -1.
         11    1    4    4    0    0  0.19598607955E+02  0.23651361568E+02  0.14474933412E+01  0.30750407722E+02  0.51100000000E-03 0. -1.
        -11    1    4    4    0    0  0.14956835875E+02 -0.13192229110E+02  0.81826652370E+01  0.21556851786E+02  0.51100000000E-03 0.  1.
         12    1    4    4    0    0 -0.12528685611E+01  0.60577903122E+00  0.15185051718E+01  0.20597344059E+01  0.00000000000E+00 0. -1.
</event>
<event>
 8    1  0.1253703E-006  0.9118800E+02  0.7816164E-02  0.1184000E+00
        -11   -1    0    0    0    0  0.00000000000E+00  0.00000000000E+00  0.45593999997E+02  0.45594000000E+02  0.51100000000E-03 0.  1.
         11   -1    0    0    0    0 -0.00000000000E+00 -0.00000000000E+00 -0.45593999997E+02  0.45594000000E+02  0.51100000000E-03 0. -1.
         23    2    1    2    0    0  0.00000000000E+00  0.00000000000E+00  0.17763568394E-14  0.91188000000E+02  0.91188000000E+02 0.  0.
    9900012    2    3    3    0    0  0.11171284863E+02  0.33266277847E+02 -0.11150614616E+02  0.54367094883E+02  0.40000024405E+02 0.  0.
        -12    1    3    3    0    0 -0.11171284863E+02 -0.33266277847E+02  0.11150614616E+02  0.36820905117E+02  0.00000000000E+00 0.  1.
         11    1    4    4    0    0  0.12749346459E+02  0.36004620769E+02 -0.14192025754E+02  0.40746682652E+02  0.51100000000E-03 0. -1.
        -11    1    4    4    0    0  0.85091349030E+00  0.43447011408E+01 -0.17168946375E+01  0.47484954700E+01  0.51100000000E-03 0.  1.
        -12    1    4    4    0    0 -0.24289750871E+01 -0.70830440627E+01  0.47583057751E+01  0.88719167612E+01  0.00000000000E+00 0.  1.
</event>
<event>
 8    1  0.1253703E-006  0.9118800E+02  0.7816164E-02  0.1184000E+00
        -11   -1    0    0    0    0  0.00000000000E+00  0.00000000000E+00  0.45593999997E+02  0.45594000000E+02  0.51100000000E-03 0.  1.
         11   -1    0    0    0    0 -0.00000000000E+00 -0.00000000000E+00 -0.45593999997E+02  0.45594000000E+02  0.51100000000E-03 0. -1.
         23    2    1    2    0    0  0.00000000000E+00 -0.35527136788E-14  0.00000000000E+00  0.91188000000E+02  0.91188000000E+02 0.  0.
    9900012    2    3    3    0    0 -0.18762421831E+02 -0.25691279420E+02  0.18539362373E+02  0.54367105546E+02  0.40000048713E+02 0.  0.
        -12    1    3    3    0    0  0.18762421831E+02  0.25691279420E+02 -0.18539362373E+02  0.36820894454E+02  0.00000000000E+00 0.  1.
         11    1    4    4    0    0 -0.62337747622E+01  0.77211970654E-01 -0.31824139891E+01  0.69995477378E+01  0.51100000000E-03 0. -1.
        -11    1    4    4    0    0 -0.35658448598E+00 -0.28424843083E+01  0.21213104633E+02  0.21405669295E+02  0.51100000000E-03 0.  1.
        -12    1    4    4    0    0 -0.12172062583E+02 -0.22926007082E+02  0.50867172949E+00  0.25961888513E+02  0.00000000000E+00 0.  1.
</event>
<event>
 8    1  0.1253703E-006  0.9118800E+02  0.7816164E-02  0.1184000E+00
        -11   -1    0    0    0    0  0.00000000000E+00  0.00000000000E+00  0.45593999997E+02  0.45594000000E+02  0.51100000000E-03 0.  1.
         11   -1    0    0    0    0 -0.00000000000E+00 -0.00000000000E+00 -0.45593999997E+02  0.45594000000E+02  0.51100000000E-03 0. -1.
         23    2    1    2    0    0  0.35527136788E-14 -0.88817841970E-15  0.00000000000E+00  0.91188000000E+02  0.91188000000E+02 0.  0.
    9900012    2    3    3    0    0 -0.29018749054E+02  0.38492831156E+01 -0.22335502815E+02  0.54367089322E+02  0.40000011727E+02 0.  0.
        -12    1    3    3    0    0  0.29018749054E+02 -0.38492831156E+01  0.22335502815E+02  0.36820910678E+02  0.00000000000E+00 0.  1.
         11    1    4    4    0    0 -0.49602804903E+01 -0.10158560105E+01  0.31217899017E+01  0.59482702047E+01  0.51100000000E-03 0.  1.
        -11    1    4    4    0    0 -0.13712726808E+01 -0.12357618708E+02 -0.52570839757E+01  0.13499187423E+02  0.51100000000E-03 0. -1.
         12    1    4    4    0    0 -0.22687195883E+02  0.17222757834E+02 -0.20200208741E+02  0.34919631694E+02  0.00000000000E+00 0. -1.
</event>
<event>
 8    1  0.1253703E-006  0.9118800E+02  0.7816164E-02  0.1184000E+00
        -11   -1    0    0    0    0  0.00000000000E+00  0.00000000000E+00  0.45593999997E+02  0.45594000000E+02  0.51100000000E-03 0.  1.
         11   -1    0    0    0    0 -0.00000000000E+00 -0.00000000000E+00 -0.45593999997E+02  0.45594000000E+02  0.51100000000E-03 0. -1.
         23    2    1    2    0    0  0.88817841970E-15  0.00000000000E+00  0.00000000000E+00  0.91188000000E+02  0.91188000000E+02 0.  0.
    9900012    2    3    3    0    0 -0.66155704638E+01  0.74516617100E+01  0.35446962931E+02  0.54367079102E+02  0.39999988428E+02 0.  0.
         12    1    3    3    0    0  0.66155704638E+01 -0.74516617100E+01 -0.35446962931E+02  0.36820920898E+02  0.00000000000E+00 0. -1.
         11    1    4    4    0    0 -0.43844458465E+01 -0.25481350212E+00 -0.47785368949E+00  0.44177641077E+01  0.51100000000E-03 0. -1.
        -11    1    4    4    0    0 -0.87552143065E+01  0.18604675709E+02  0.28796660937E+02  0.35384112496E+02  0.51100000000E-03 0.  1.
         12    1    4    4    0    0  0.65240896893E+01 -0.10898200497E+02  0.71281556835E+01  0.14565202498E+02  0.00000000000E+00 0. -1.
</event>
<event>
 8    1  0.1253703E-006  0.9118800E+02  0.7816164E-02  0.1184000E+00
        -11   -1    0    0    0    0  0.00000000000E+00  0.00000000000E+00  0.45593999997E+02  0.45594000000E+02  0.51100000000E-03 0.  1.
         11   -1    0    0    0    0 -0.00000000000E+00 -0.00000000000E+00 -0.45593999997E+02  0.45594000000E+02  0.51100000000E-03 0. -1.
         23    2    1    2    0    0  0.00000000000E+00  0.35527136788E-14  0.35527136788E-14  0.91188000000E+02  0.91188000000E+02 0.  0.
    9900012    2    3    3    0    0  0.86228762325E+01 -0.17741538393E+02 -0.31091214566E+02  0.54367084717E+02  0.40000001230E+02 0.  0.
        -12    1    3    3    0    0 -0.86228762325E+01  0.17741538393E+02  0.31091214566E+02  0.36820915283E+02  0.00000000000E+00 0.  1.
         11    1    4    4    0    0  0.31776683790E+01  0.62716969816E+01 -0.10530952780E+02  0.12662255963E+02  0.51100000000E-03 0. -1.
        -11    1    4    4    0    0 -0.10183746096E+02 -0.15254312984E+02 -0.95923547361E+01  0.20698212937E+02  0.51100000000E-03 0.  1.
        -12    1    4    4    0    0  0.15628953950E+02 -0.87589223912E+01 -0.10967907049E+02  0.21006615817E+02  0.00000000000E+00 0.  1.
</event>
<event>
 8    1  0.1253703E-006  0.9118800E+02  0.7816164E-02  0.1184000E+00
        -11   -1    0    0    0    0  0.00000000000E+00  0.00000000000E+00  0.45593999997E+02  0.45594000000E+02  0.51100000000E-03 0.  1.
         11   -1    0    0    0    0 -0.00000000000E+00 -0.00000000000E+00 -0.45593999997E+02  0.45594000000E+02  0.51100000000E-03 0. -1.
         23    2    1    2    0    0  0.00000000000E+00 -0.17763568394E-14  0.00000000000E+00  0.91188000000E+02  0.91188000000E+02 0.  0.
    9900012    2    3    3    0    0  0.20629263043E+02 -0.14916107409E+02 -0.26603058043E+02  0.54367089484E+02  0.40000012097E+02 0.  0.
        -12    1    3    3    0    0 -0.20629263043E+02  0.14916107409E+02  0.26603058043E+02  0.36820910516E+02  0.00000000000E+00 0.  1.
         11    1    4    4    0    0 -0.84598420450E+00 -0.15137254187E+02 -0.11965346423E+02  0.19313768894E+02  0.51100000000E-03 0. -1.
        -11    1    4    4    0    0  0.68935762342E+01 -0.10616906088E+02 -0.10435166134E+02  0.16405266858E+02  0.51100000000E-03 0.  1.
        -12    1    4    4    0    0  0.14581671014E+02  0.10838052865E+02 -0.42025454857E+01  0.18648053733E+02  0.00000000000E+00 0.  1.
</event>
<event>
 8    1  0.1253703E-006  0.9118800E+02  0.7816164E-02  0.1184000E+00
        -11   -1    0    0    0    0  0.00000000000E+00  0.00000000000E+00  0.45593999997E+02  0.45594000000E+02  0.51100000000E-03 0. -1.
         11   -1    0    0    0    0 -0.00000000000E+00 -0.00000000000E+00 -0.45593999997E+02  0.45594000000E+02  0.51100000000E-03 0.  1.
         23    2    1    2    0    0 -0.88817841970E-15 -0.35527136788E-14 -0.71054273576E-14  0.91188000000E+02  0.91188000000E+02 0.  0.
    9900012    2    3    3    0    0 -0.69669930942E+01 -0.11661370736E+02  0.34223575164E+02  0.54367086687E+02  0.40000005721E+02 0.  0.
        -12    1    3    3    0    0  0.69669930942E+01  0.11661370736E+02 -0.34223575164E+02  0.36820913313E+02  0.00000000000E+00 0.  1.
         11    1    4    4    0    0 -0.56786116961E+01 -0.75425240173E+01  0.10968777995E+02  0.14472400986E+02  0.51100000000E-03 0. -1.
        -11    1    4    4    0    0  0.66814155611E+01  0.10952293325E+02  0.17903993290E+02  0.22026053186E+02  0.51100000000E-03 0.  1.
        -12    1    4    4    0    0 -0.79697969591E+01 -0.15071140044E+02  0.53508038788E+01  0.17868632514E+02  0.00000000000E+00 0.  1.
</event>
<event>
 8    1  0.1253703E-006  0.9118800E+02  0.7816164E-02  0.1184000E+00
        -11   -1    0    0    0    0  0.00000000000E+00  0.00000000000E+00  0.45593999997E+02  0.45594000000E+02  0.51100000000E-03 0.  1.
         11   -1    0    0    0    0 -0.00000000000E+00 -0.00000000000E+00 -0.45593999997E+02  0.45594000000E+02  0.51100000000E-03 0. -1.
         23    2    1    2    0    0  0.00000000000E+00 -0.22204460493E-15  0.00000000000E+00  0.91188000000E+02  0.91188000000E+02 0.  0.
    9900012    2    3    3    0    0 -0.95432418659E+01  0.97010116069E+00 -0.35549468474E+02  0.54367091940E+02  0.40000017695E+02 0.  0.
        -12    1    3    3    0    0  0.95432418659E+01 -0.97010116069E+00  0.35549468474E+02  0.36820908060E+02  0.00000000000E+00 0.  1.
         11    1    4    4    0    0  0.10751069550E+01 -0.21032477917E+01 -0.26106901504E+02  0.26213542543E+02  0.51100000000E-03 0. -1.
        -11    1    4    4    0    0 -0.67662205497E+01 -0.10254384745E+02 -0.67626336509E+01  0.14023814074E+02  0.51100000000E-03 0.  1.
        -12    1    4    4    0    0 -0.38521282712E+01  0.13327733697E+02 -0.26799333193E+01  0.14129735323E+02  0.00000000000E+00 0.  1.
</event>
<event>
 8    1  0.1253703E-006  0.9118800E+02  0.7816164E-02  0.1184000E+00
        -11   -1    0    0    0    0  0.00000000000E+00  0.00000000000E+00  0.45593999997E+02  0.45594000000E+02  0.51100000000E-03 0.  1.
         11   -1    0    0    0    0 -0.00000000000E+00 -0.00000000000E+00 -0.45593999997E+02  0.45594000000E+02  0.51100000000E-03 0. -1.
         23    2    1    2    0    0 -0.17763568394E-14  0.00000000000E+00  0.17763568394E-14  0.91188000000E+02  0.91188000000E+02 0.  0.
    9900012    2    3    3    0    0  0.15953554456E+02 -0.30110716257E+02 -0.13950384567E+02  0.54367022788E+02  0.39999860048E+02 0.  0.
         12    1    3    3    0    0 -0.15953554456E+02  0.30110716257E+02  0.13950384567E+02  0.36820977212E+02  0.00000000000E+00 0. -1.
         11    1    4    4    0    0 -0.18392330638E+01 -0.14358231969E+02 -0.16508136286E+02  0.21955868633E+02  0.51100000000E-03 0. -1.
        -11    1    4    4    0    0 -0.42141379865E+01  0.58160062374E+00 -0.18744545125E+01  0.46487415754E+01  0.51100000000E-03 0.  1.
        -12    1    4    4    0    0  0.22006925506E+02 -0.16334084912E+02  0.44322062307E+01  0.27762412580E+02  0.00000000000E+00 0.  1.
</event>
<event>
 8    1  0.1253703E-006  0.9118800E+02  0.7816164E-02  0.1184000E+00
        -11   -1    0    0    0    0  0.00000000000E+00  0.00000000000E+00  0.45593999997E+02  0.45594000000E+02  0.51100000000E-03 0.  1.
         11   -1    0    0    0    0 -0.00000000000E+00 -0.00000000000E+00 -0.45593999997E+02  0.45594000000E+02  0.51100000000E-03 0. -1.
         23    2    1    2    0    0  0.31086244690E-14  0.17763568394E-14 -0.71054273576E-14  0.91188000000E+02  0.91188000000E+02 0.  0.
    9900012    2    3    3    0    0 -0.31903493085E+01  0.13592078239E+02 -0.34071352387E+02  0.54367082398E+02  0.39999995943E+02 0.  0.
        -12    1    3    3    0    0  0.31903493085E+01 -0.13592078239E+02  0.34071352387E+02  0.36820917602E+02  0.00000000000E+00 0.  1.
         11    1    4    4    0    0 -0.14101448616E+02  0.46251394270E+01 -0.14874312995E+02  0.21011614768E+02  0.51100000000E-03 0. -1.
        -11    1    4    4    0    0  0.27845101988E+01 -0.56779764641E+01  0.17252902060E+01  0.65551155848E+01  0.51100000000E-03 0.  1.
         12    1    4    4    0    0  0.81265891088E+01  0.14644915276E+02 -0.20922329598E+02  0.26800352046E+02  0.00000000000E+00 0. -1.
</event>
<event>
 8    1  0.1253703E-006  0.9118800E+02  0.7816164E-02  0.1184000E+00
        -11   -1    0    0    0    0  0.00000000000E+00  0.00000000000E+00  0.45593999997E+02  0.45594000000E+02  0.51100000000E-03 0. -1.
         11   -1    0    0    0    0 -0.00000000000E+00 -0.00000000000E+00 -0.45593999997E+02  0.45594000000E+02  0.51100000000E-03 0.  1.
         23    2    1    2    0    0  0.00000000000E+00  0.00000000000E+00  0.00000000000E+00  0.91188000000E+02  0.91188000000E+02 0.  0.
    9900012    2    3    3    0    0 -0.16784831204E+02 -0.21005289914E+02  0.25156072587E+02  0.54367071835E+02  0.39999971863E+02 0.  0.
        -12    1    3    3    0    0  0.16784831204E+02  0.21005289914E+02 -0.25156072587E+02  0.36820928165E+02  0.00000000000E+00 0.  1.
         11    1    4    4    0    0 -0.11712724951E+02 -0.31023785123E+01  0.11037910578E+02  0.16390489572E+02  0.51100000000E-03 0. -1.
        -11    1    4    4    0    0 -0.43583276457E+01  0.43761668478E+01  0.14416805165E+02  0.15684072417E+02  0.51100000000E-03 0.  1.
         12    1    4    4    0    0 -0.71377860722E+00 -0.22279078249E+02 -0.29864315627E+00  0.22292509847E+02  0.00000000000E+00 0. -1.
</event>
<event>
 8    1  0.1253703E-006  0.9118800E+02  0.7816164E-02  0.1184000E+00
        -11   -1    0    0    0    0  0.00000000000E+00  0.00000000000E+00  0.45593999997E+02  0.45594000000E+02  0.51100000000E-03 0.  1.
         11   -1    0    0    0    0 -0.00000000000E+00 -0.00000000000E+00 -0.45593999997E+02  0.45594000000E+02  0.51100000000E-03 0. -1.
         23    2    1    2    0    0  0.35527136788E-14 -0.35527136788E-14  0.44408920985E-15  0.91188000000E+02  0.91188000000E+02 0.  0.
    9900012    2    3    3    0    0  0.19230181179E+02 -0.31215264762E+02  0.34040268362E+01  0.54367081747E+02  0.39999994458E+02 0.  0.
        -12    1    3    3    0    0 -0.19230181179E+02  0.31215264762E+02 -0.34040268362E+01  0.36820918253E+02  0.00000000000E+00 0.  1.
         11    1    4    4    0    0  0.13481333591E+02 -0.60845765660E+01  0.46079850693E+01  0.15491996451E+02  0.51100000000E-03 0. -1.
        -11    1    4    4    0    0 -0.42818695927E+00 -0.27173231808E+02  0.73264318677E+01  0.28146837746E+02  0.51100000000E-03 0.  1.
        -12    1    4    4    0    0  0.61770345467E+01  0.20425436121E+01 -0.85303901008E+01  0.10728247549E+02  0.00000000000E+00 0.  1.
</event>
<event>
 8    1  0.1253703E-006  0.9118800E+02  0.7816164E-02  0.1184000E+00
        -11   -1    0    0    0    0  0.00000000000E+00  0.00000000000E+00  0.45593999997E+02  0.45594000000E+02  0.51100000000E-03 0.  1.
         11   -1    0    0    0    0 -0.00000000000E+00 -0.00000000000E+00 -0.45593999997E+02  0.45594000000E+02  0.51100000000E-03 0. -1.
         23    2    1    2    0    0 -0.17763568394E-14  0.00000000000E+00 -0.35527136788E-14  0.91188000000E+02  0.91188000000E+02 0.  0.
    9900012    2    3    3    0    0  0.12065408867E+02 -0.25679702718E+02 -0.23468263207E+02  0.54367073874E+02  0.39999976511E+02 0.  0.
        -12    1    3    3    0    0 -0.12065408867E+02  0.25679702718E+02  0.23468263207E+02  0.36820926126E+02  0.00000000000E+00 0.  1.
         11    1    4    4    0    0 -0.26162364053E+01 -0.11859464838E+02 -0.22640267280E+02  0.25691891755E+02  0.51100000000E-03 0. -1.
        -11    1    4    4    0    0  0.91671555714E+01 -0.10873300701E+02 -0.10134404377E+02  0.17463434993E+02  0.51100000000E-03 0.  1.
        -12    1    4    4    0    0  0.55144897005E+01 -0.29469371790E+01  0.93064084496E+01  0.11211747126E+02  0.00000000000E+00 0.  1.
</event>
<event>
 8    1  0.1253703E-006  0.9118800E+02  0.7816164E-02  0.1184000E+00
        -11   -1    0    0    0    0  0.00000000000E+00  0.00000000000E+00  0.45593999997E+02  0.45594000000E+02  0.51100000000E-03 0. -1.
         11   -1    0    0    0    0 -0.00000000000E+00 -0.00000000000E+00 -0.45593999997E+02  0.45594000000E+02  0.51100000000E-03 0.  1.
         23    2    1    2    0    0  0.00000000000E+00 -0.35527136788E-14  0.53290705182E-14  0.91188000000E+02  0.91188000000E+02 0.  0.
    9900012    2    3    3    0    0  0.19069331837E+02  0.29624587906E+02  0.10701593908E+02  0.54367085597E+02  0.40000003235E+02 0.  0.
        -12    1    3    3    0    0 -0.19069331837E+02 -0.29624587906E+02 -0.10701593908E+02  0.36820914403E+02  0.00000000000E+00 0.  1.
         11    1    4    4    0    0  0.14037896521E+02  0.82880426279E+01  0.78279284002E-01  0.16302156828E+02  0.51100000000E-03 0. -1.
        -11    1    4    4    0    0  0.57944335012E+01  0.60590934205E+01 -0.95759119459E+01  0.12727378463E+02  0.51100000000E-03 0.  1.
        -12    1    4    4    0    0 -0.76299818542E+00  0.15277451858E+02  0.20199226570E+02  0.25337550306E+02  0.00000000000E+00 0.  1.
</event>
<event>
 8    1  0.1253703E-006  0.9118800E+02  0.7816164E-02  0.1184000E+00
        -11   -1    0    0    0    0  0.00000000000E+00  0.00000000000E+00  0.45593999997E+02  0.45594000000E+02  0.51100000000E-03 0. -1.
         11   -1    0    0    0    0 -0.00000000000E+00 -0.00000000000E+00 -0.45593999997E+02  0.45594000000E+02  0.51100000000E-03 0.  1.
         23    2    1    2    0    0  0.44408920985E-15 -0.35527136788E-14  0.00000000000E+00  0.91188000000E+02  0.91188000000E+02 0.  0.
    9900012    2    3    3    0    0  0.14510800269E+01 -0.29882363968E+02 -0.21464329062E+02  0.54367099255E+02  0.40000034372E+02 0.  0.
        -12    1    3    3    0    0 -0.14510800269E+01  0.29882363968E+02  0.21464329062E+02  0.36820900745E+02  0.00000000000E+00 0.  1.
         11    1    4    4    0    0  0.12633864225E+02 -0.29424016246E+02 -0.75074575346E+01  0.32889955552E+02  0.51100000000E-03 0. -1.
        -11    1    4    4    0    0 -0.32285466317E+01 -0.48551512603E+01 -0.99761154548E+01  0.11555037297E+02  0.51100000000E-03 0.  1.
         12    1    4    4    0    0 -0.79542375666E+01  0.43968035384E+01 -0.39807560724E+01  0.99221064058E+01  0.00000000000E+00 0. -1.
</event>
<event>
 8    1  0.1253703E-006  0.9118800E+02  0.7816164E-02  0.1184000E+00
        -11   -1    0    0    0    0  0.00000000000E+00  0.00000000000E+00  0.45593999997E+02  0.45594000000E+02  0.51100000000E-03 0.  1.
         11   -1    0    0    0    0 -0.00000000000E+00 -0.00000000000E+00 -0.45593999997E+02  0.45594000000E+02  0.51100000000E-03 0. -1.
         23    2    1    2    0    0 -0.22204460493E-15  0.00000000000E+00  0.00000000000E+00  0.91188000000E+02  0.91188000000E+02 0.  0.
    9900012    2    3    3    0    0 -0.19400115824E+01 -0.33643034444E+02  0.14837852060E+02  0.54367092009E+02  0.40000017853E+02 0.  0.
         12    1    3    3    0    0  0.19400115824E+01  0.33643034444E+02 -0.14837852060E+02  0.36820907991E+02  0.00000000000E+00 0. -1.
         11    1    4    4    0    0  0.31908227542E+01 -0.34020118925E+00 -0.10312638426E+02  0.10800351766E+02  0.51100000000E-03 0. -1.
        -11    1    4    4    0    0 -0.54330381696E+01 -0.13773118911E+02  0.16604436288E+02  0.22246887714E+02  0.51100000000E-03 0.  1.
         12    1    4    4    0    0  0.30220383299E+00 -0.19529714344E+02  0.85460541979E+01  0.21319852529E+02  0.00000000000E+00 0. -1.
</event>
<event>
 8    1  0.1253703E-006  0.9118800E+02  0.7816164E-02  0.1184000E+00
        -11   -1    0    0    0    0  0.00000000000E+00  0.00000000000E+00  0.45593999997E+02  0.45594000000E+02  0.51100000000E-03 0.  1.
         11   -1    0    0    0    0 -0.00000000000E+00 -0.00000000000E+00 -0.45593999997E+02  0.45594000000E+02  0.51100000000E-03 0. -1.
         23    2    1    2    0    0 -0.35527136788E-14  0.00000000000E+00  0.00000000000E+00  0.91188000000E+02  0.91188000000E+02 0.  0.
    9900012    2    3    3    0    0 -0.20568770224E+02 -0.86123374626E+01 -0.29300743295E+02  0.54367079008E+02  0.39999988214E+02 0.  0.
        -12    1    3    3    0    0  0.20568770224E+02  0.86123374626E+01  0.29300743295E+02  0.36820920992E+02  0.00000000000E+00 0.  1.
         11    1    4    4    0    0 -0.90125253247E+00 -0.11521924756E+02 -0.24095589308E+02  0.26723855084E+02  0.51100000000E-03 0. -1.
        -11    1    4    4    0    0 -0.16227535818E+01  0.36470514061E+01  0.53882277270E+01  0.67057670288E+01  0.51100000000E-03 0.  1.
         12    1    4    4    0    0 -0.18044764109E+02 -0.73746411265E+00 -0.10593381714E+02  0.20937456895E+02  0.00000000000E+00 0. -1.
</event>
<event>
 8    1  0.1253703E-006  0.9118800E+02  0.7816164E-02  0.1184000E+00
        -11   -1    0    0    0    0  0.00000000000E+00  0.00000000000E+00  0.45593999997E+02  0.45594000000E+02  0.51100000000E-03 0.  1.
         11   -1    0    0    0    0 -0.00000000000E+00 -0.00000000000E+00 -0.45593999997E+02  0.45594000000E+02  0.51100000000E-03 0. -1.
         23    2    1    2    0    0 -0.35527136788E-14  0.35527136788E-14  0.00000000000E+00  0.91188000000E+02  0.91188000000E+02 0.  0.
    9900012    2    3    3    0    0 -0.30854190870E+02  0.18433325389E+02 -0.80010427230E+01  0.54367010554E+02  0.39999832160E+02 0.  0.
        -12    1    3    3    0    0  0.30854190870E+02 -0.18433325389E+02  0.80010427230E+01  0.36820989446E+02  0.00000000000E+00 0.  1.
         11    1    4    4    0    0 -0.19171290953E+02  0.11635778956E+02 -0.11467038660E+02  0.25187749494E+02  0.51100000000E-03 0. -1.
        -11    1    4    4    0    0 -0.19821106143E+02  0.63723581567E+01  0.22984620662E+01  0.20946744982E+02  0.51100000000E-03 0.  1.
         12    1    4    4    0    0  0.81382062256E+01  0.42518827635E+00  0.11675338704E+01  0.82325160783E+01  0.00000000000E+00 0. -1.
</event>
<event>
 8    1  0.1253703E-006  0.9118800E+02  0.7816164E-02  0.1184000E+00
        -11   -1    0    0    0    0  0.00000000000E+00  0.00000000000E+00  0.45593999997E+02  0.45594000000E+02  0.51100000000E-03 0.  1.
         11   -1    0    0    0    0 -0.00000000000E+00 -0.00000000000E+00 -0.45593999997E+02  0.45594000000E+02  0.51100000000E-03 0. -1.
         23    2    1    2    0    0  0.71054273576E-14 -0.99920072216E-15  0.17763568394E-14  0.91188000000E+02  0.91188000000E+02 0.  0.
    9900012    2    3    3    0    0  0.34036741250E+02 -0.66060706003E+00  0.14030103753E+02  0.54367082467E+02  0.39999996101E+02 0.  0.
         12    1    3    3    0    0 -0.34036741250E+02  0.66060706003E+00 -0.14030103753E+02  0.36820917533E+02  0.00000000000E+00 0. -1.
         11    1    4    4    0    0  0.97687217373E+00 -0.47167959248E+01  0.80133157397E+00  0.48830907827E+01  0.51100000000E-03 0. -1.
        -11    1    4    4    0    0 -0.82445452873E+00  0.11329437770E+02  0.91547476150E+01  0.14589218266E+02  0.51100000000E-03 0.  1.
        -12    1    4    4    0    0  0.33884323605E+02 -0.72732489050E+01  0.40740245638E+01  0.34894773419E+02  0.00000000000E+00 0.  1.
</event>
<event>
 8    1  0.1253703E-006  0.9118800E+02  0.7816164E-02  0.1184000E+00
        -11   -1    0    0    0    0  0.00000000000E+00  0.00000000000E+00  0.45593999997E+02  0.45594000000E+02  0.51100000000E-03 0.  1.
         11   -1    0    0    0    0 -0.00000000000E+00 -0.00000000000E+00 -0.45593999997E+02  0.45594000000E+02  0.51100000000E-03 0. -1.
         23    2    1    2    0    0 -0.35527136788E-14 -0.35527136788E-14  0.17763568394E-14  0.91188000000E+02  0.91188000000E+02 0.  0.
    9900012    2    3    3    0    0 -0.16391203553E+02 -0.31985505089E+02 -0.80022414407E+01  0.54367082606E+02  0.39999996416E+02 0.  0.
        -12    1    3    3    0    0  0.16391203553E+02  0.31985505089E+02  0.80022414407E+01  0.36820917394E+02  0.00000000000E+00 0.  1.
         11    1    4    4    0    0  0.57141816469E+01 -0.13665660312E+02 -0.13083164154E+02  0.19762877528E+02  0.51100000000E-03 0. -1.
        -11    1    4    4    0    0  0.29068607140E+01 -0.50097860891E+01  0.18863645631E+01  0.60914831852E+01  0.51100000000E-03 0.  1.
         12    1    4    4    0    0 -0.25012245914E+02 -0.13310058687E+02  0.31945581501E+01  0.28512721892E+02  0.00000000000E+00 0. -1.
</event>
<event>
 8    1  0.1253703E-006  0.9118800E+02  0.7816164E-02  0.1184000E+00
        -11   -1    0    0    0    0  0.00000000000E+00  0.00000000000E+00  0.45593999997E+02  0.45594000000E+02  0.51100000000E-03 0. -1.
         11   -1    0    0    0    0 -0.00000000000E+00 -0.00000000000E+00 -0.45593999997E+02  0.45594000000E+02  0.51100000000E-03 0.  1.
         23    2    1    2    0    0  0.00000000000E+00  0.88817841970E-15  0.00000000000E+00  0.91188000000E+02  0.91188000000E+02 0.  0.
    9900012    2    3    3    0    0  0.35862832785E+02  0.40052746255E+01 -0.73212101364E+01  0.54367012533E+02  0.39999836671E+02 0.  0.
         12    1    3    3    0    0 -0.35862832785E+02 -0.40052746255E+01  0.73212101364E+01  0.36820987467E+02  0.00000000000E+00 0. -1.
         11    1    4    4    0    0  0.16456791818E+02  0.38301558623E+01 -0.26820028905E+01  0.17108162690E+02  0.51100000000E-03 0. -1.
        -11    1    4    4    0    0  0.14245562384E+02 -0.14663803777E+02  0.12460069144E+01  0.20482082959E+02  0.51100000000E-03 0.  1.
         12    1    4    4    0    0  0.51604785829E+01  0.14838922540E+02 -0.58852141603E+01  0.16776766884E+02  0.00000000000E+00 0. -1.
</event>
<event>
 8    1  0.1253703E-006  0.9118800E+02  0.7816164E-02  0.1184000E+00
        -11   -1    0    0    0    0  0.00000000000E+00  0.00000000000E+00  0.45593999997E+02  0.45594000000E+02  0.51100000000E-03 0.  1.
         11   -1    0    0    0    0 -0.00000000000E+00 -0.00000000000E+00 -0.45593999997E+02  0.45594000000E+02  0.51100000000E-03 0. -1.
         23    2    1    2    0    0  0.00000000000E+00  0.88817841970E-15  0.00000000000E+00  0.91188000000E+02  0.91188000000E+02 0.  0.
    9900012    2    3    3    0    0  0.32235755348E+02  0.71966296779E+01  0.16274034049E+02  0.54367087656E+02  0.40000007930E+02 0.  0.
         12    1    3    3    0    0 -0.32235755348E+02 -0.71966296779E+01 -0.16274034049E+02  0.36820912344E+02  0.00000000000E+00 0. -1.
         11    1    4    4    0    0  0.10236632875E+00  0.13798677214E+02  0.27660452188E+01  0.14073555987E+02  0.51100000000E-03 0. -1.
        -11    1    4    4    0    0  0.17616310545E+02 -0.12091944996E+02  0.12467145584E+02  0.24738214372E+02  0.51100000000E-03 0.  1.
         12    1    4    4    0    0  0.14517078474E+02  0.54898974600E+01  0.10408432458E+01  0.15555317297E+02  0.00000000000E+00 0. -1.
</event>
<event>
 8    1  0.1253703E-006  0.9118800E+02  0.7816164E-02  0.1184000E+00
        -11   -1    0    0    0    0  0.00000000000E+00  0.00000000000E+00  0.45593999997E+02  0.45594000000E+02  0.51100000000E-03 0. -1.
         11   -1    0    0    0    0 -0.00000000000E+00 -0.00000000000E+00 -0.45593999997E+02  0.45594000000E+02  0.51100000000E-03 0.  1.
         23    2    1    2    0    0  0.00000000000E+00  0.00000000000E+00  0.17763568394E-14  0.91188000000E+02  0.91188000000E+02 0.  0.
    9900012    2    3    3    0    0  0.18571848102E+02  0.30750546704E+02  0.80790267711E+01  0.54367077441E+02  0.39999984643E+02 0.  0.
        -12    1    3    3    0    0 -0.18571848102E+02 -0.30750546704E+02 -0.80790267711E+01  0.36820922559E+02  0.00000000000E+00 0.  1.
         11    1    4    4    0    0  0.14572538832E+02  0.66067815417E+01  0.60030218620E+01  0.17089316022E+02  0.51100000000E-03 0. -1.
        -11    1    4    4    0    0  0.75349242886E+01  0.78195661680E+01 -0.11453445890E+02  0.15782969369E+02  0.51100000000E-03 0.  1.
        -12    1    4    4    0    0 -0.35356150187E+01  0.16324198994E+02  0.13529450799E+02  0.21494792050E+02  0.00000000000E+00 0.  1.
</event>
<event>
 8    1  0.1253703E-006  0.9118800E+02  0.7816164E-02  0.1184000E+00
        -11   -1    0    0    0    0  0.00000000000E+00  0.00000000000E+00  0.45593999997E+02  0.45594000000E+02  0.51100000000E-03 0.  1.
         11   -1    0    0    0    0 -0.00000000000E+00 -0.00000000000E+00 -0.45593999997E+02  0.45594000000E+02  0.51100000000E-03 0. -1.
         23    2    1    2    0    0  0.00000000000E+00  0.17763568394E-14 -0.41633363423E-15  0.91188000000E+02  0.91188000000E+02 0.  0.
    9900012    2    3    3    0    0  0.34273155414E+02 -0.13458297715E+02 -0.72422464246E-01  0.54367079256E+02  0.39999988781E+02 0.  0.
        -12    1    3    3    0    0 -0.34273155414E+02  0.13458297715E+02  0.72422464246E-01  0.36820920744E+02  0.00000000000E+00 0.  1.
         11    1    4    4    0    0  0.28217836874E+02 -0.11310024291E+02 -0.39965966534E+01  0.30661633230E+02  0.51100000000E-03 0. -1.
        -11    1    4    4    0    0  0.97843320090E+01  0.18674807108E+01  0.10944963267E+02  0.14799083020E+02  0.51100000000E-03 0.  1.
         12    1    4    4    0    0 -0.37290134689E+01 -0.40157541349E+01 -0.70207890773E+01  0.89063630058E+01  0.00000000000E+00 0. -1.
</event>
<event>
 8    1  0.1253703E-006  0.9118800E+02  0.7816164E-02  0.1184000E+00
        -11   -1    0    0    0    0  0.00000000000E+00  0.00000000000E+00  0.45593999997E+02  0.45594000000E+02  0.51100000000E-03 0.  1.
         11   -1    0    0    0    0 -0.00000000000E+00 -0.00000000000E+00 -0.45593999997E+02  0.45594000000E+02  0.51100000000E-03 0. -1.
         23    2    1    2    0    0 -0.44408920985E-15  0.00000000000E+00  0.00000000000E+00  0.91188000000E+02  0.91188000000E+02 0.  0.
    9900012    2    3    3    0    0  0.28220823188E+01  0.28255056881E+02  0.23440728467E+02  0.54367080144E+02  0.39999990805E+02 0.  0.
         12    1    3    3    0    0 -0.28220823188E+01 -0.28255056881E+02 -0.23440728467E+02  0.36820919856E+02  0.00000000000E+00 0. -1.
         11    1    4    4    0    0 -0.70627360027E+01  0.55447617156E+01 -0.34507049914E+01  0.96194587959E+01  0.51100000000E-03 0. -1.
        -11    1    4    4    0    0  0.13973924970E+02  0.15638859521E+02  0.29479781408E+02  0.36178750923E+02  0.51100000000E-03 0.  1.
        -12    1    4    4    0    0 -0.40891066489E+01  0.70714356443E+01 -0.25883479504E+01  0.85688704256E+01  0.00000000000E+00 0.  1.
</event>
<event>
 8    1  0.1253703E-006  0.9118800E+02  0.7816164E-02  0.1184000E+00
        -11   -1    0    0    0    0  0.00000000000E+00  0.00000000000E+00  0.45593999997E+02  0.45594000000E+02  0.51100000000E-03 0.  1.
         11   -1    0    0    0    0 -0.00000000000E+00 -0.00000000000E+00 -0.45593999997E+02  0.45594000000E+02  0.51100000000E-03 0. -1.
         23    2    1    2    0    0 -0.17763568394E-14  0.44408920985E-15  0.00000000000E+00  0.91188000000E+02  0.91188000000E+02 0.  0.
    9900012    2    3    3    0    0 -0.15770489496E+02  0.10472486451E+01  0.33256163098E+02  0.54367116623E+02  0.40000073966E+02 0.  0.
         12    1    3    3    0    0  0.15770489496E+02 -0.10472486451E+01 -0.33256163098E+02  0.36820883377E+02  0.00000000000E+00 0. -1.
         11    1    4    4    0    0 -0.12100068500E+02  0.35892873851E+01 -0.14543734840E+01  0.12704717396E+02  0.51100000000E-03 0. -1.
        -11    1    4    4    0    0 -0.10989524518E+02  0.34497462184E+01  0.10182841147E+02  0.15374025243E+02  0.51100000000E-03 0.  1.
        -12    1    4    4    0    0  0.73191035212E+01 -0.59917849584E+01  0.24527695435E+02  0.26288373984E+02  0.00000000000E+00 0.  1.
</event>
<event>
 8    1  0.1253703E-006  0.9118800E+02  0.7816164E-02  0.1184000E+00
        -11   -1    0    0    0    0  0.00000000000E+00  0.00000000000E+00  0.45593999997E+02  0.45594000000E+02  0.51100000000E-03 0.  1.
         11   -1    0    0    0    0 -0.00000000000E+00 -0.00000000000E+00 -0.45593999997E+02  0.45594000000E+02  0.51100000000E-03 0. -1.
         23    2    1    2    0    0  0.00000000000E+00  0.00000000000E+00  0.35527136788E-14  0.91188000000E+02  0.91188000000E+02 0.  0.
    9900012    2    3    3    0    0  0.29585091352E+02  0.13747841518E+01  0.21877225154E+02  0.54367073312E+02  0.39999975229E+02 0.  0.
        -12    1    3    3    0    0 -0.29585091352E+02 -0.13747841518E+01 -0.21877225154E+02  0.36820926688E+02  0.00000000000E+00 0.  1.
         11    1    4    4    0    0 -0.20926307176E-01 -0.94884534568E+01  0.18337607612E+02  0.20647010440E+02  0.51100000000E-03 0.  1.
        -11    1    4    4    0    0 -0.19278534219E+00  0.25980087329E+01  0.12270224612E+00  0.26080398131E+01  0.51100000000E-03 0. -1.
         12    1    4    4    0    0  0.29798803001E+02  0.82652288757E+01  0.34169152953E+01  0.31112023059E+02  0.00000000000E+00 0. -1.
</event>
<event>
 8    1  0.1253703E-006  0.9118800E+02  0.7816164E-02  0.1184000E+00
        -11   -1    0    0    0    0  0.00000000000E+00  0.00000000000E+00  0.45593999997E+02  0.45594000000E+02  0.51100000000E-03 0.  1.
         11   -1    0    0    0    0 -0.00000000000E+00 -0.00000000000E+00 -0.45593999997E+02  0.45594000000E+02  0.51100000000E-03 0. -1.
         23    2    1    2    0    0 -0.17763568394E-14  0.00000000000E+00 -0.71054273576E-14  0.91188000000E+02  0.91188000000E+02 0.  0.
    9900012    2    3    3    0    0  0.11258533124E+02 -0.26667896256E+02  0.22756078341E+02  0.54367212932E+02  0.40000293521E+02 0.  0.
         12    1    3    3    0    0 -0.11258533124E+02  0.26667896256E+02 -0.22756078341E+02  0.36820787068E+02  0.00000000000E+00 0. -1.
         11    1    4    4    0    0  0.10399307847E+02 -0.46935310131E+01 -0.51404433941E+01  0.12513952038E+02  0.51100000000E-03 0. -1.
        -11    1    4    4    0    0 -0.70283053240E+01  0.78684565161E+00  0.54703714030E+01  0.89409823484E+01  0.51100000000E-03 0.  1.
         12    1    4    4    0    0  0.78875306016E+01 -0.22761210894E+02  0.22426150332E+02  0.32912278546E+02  0.00000000000E+00 0. -1.
</event>
<event>
 8    1  0.1253703E-006  0.9118800E+02  0.7816164E-02  0.1184000E+00
        -11   -1    0    0    0    0  0.00000000000E+00  0.00000000000E+00  0.45593999997E+02  0.45594000000E+02  0.51100000000E-03 0.  1.
         11   -1    0    0    0    0 -0.00000000000E+00 -0.00000000000E+00 -0.45593999997E+02  0.45594000000E+02  0.51100000000E-03 0. -1.
         23    2    1    2    0    0  0.00000000000E+00  0.35527136788E-14  0.00000000000E+00  0.91188000000E+02  0.91188000000E+02 0.  0.
    9900012    2    3    3    0    0  0.24586435667E+02 -0.25237708134E+02 -0.10693200695E+02  0.54367091921E+02  0.40000017651E+02 0.  0.
        -12    1    3    3    0    0 -0.24586435667E+02  0.25237708134E+02  0.10693200695E+02  0.36820908079E+02  0.00000000000E+00 0.  1.
         11    1    4    4    0    0  0.58056053564E+01 -0.24883747745E+02 -0.73393438002E+01  0.26585182396E+02  0.51100000000E-03 0. -1.
        -11    1    4    4    0    0 -0.32215313672E+01  0.24626025268E+01  0.25974266732E+01  0.48155270883E+01  0.51100000000E-03 0.  1.
         12    1    4    4    0    0  0.22002361678E+02 -0.28165629161E+01 -0.59512835684E+01  0.22966382436E+02  0.00000000000E+00 0. -1.
</event>
<event>
 8    1  0.1253703E-006  0.9118800E+02  0.7816164E-02  0.1184000E+00
        -11   -1    0    0    0    0  0.00000000000E+00  0.00000000000E+00  0.45593999997E+02  0.45594000000E+02  0.51100000000E-03 0.  1.
         11   -1    0    0    0    0 -0.00000000000E+00 -0.00000000000E+00 -0.45593999997E+02  0.45594000000E+02  0.51100000000E-03 0. -1.
         23    2    1    2    0    0  0.35527136788E-14  0.35527136788E-14  0.00000000000E+00  0.91188000000E+02  0.91188000000E+02 0.  0.
    9900012    2    3    3    0    0  0.19327720967E+02  0.21345822988E+02  0.22947192037E+02  0.54367101325E+02  0.40000039092E+02 0.  0.
         12    1    3    3    0    0 -0.19327720967E+02 -0.21345822988E+02 -0.22947192037E+02  0.36820898675E+02  0.00000000000E+00 0. -1.
         11    1    4    4    0    0  0.18805301104E+02  0.23792133204E+02  0.12278768030E+02  0.32718085161E+02  0.51100000000E-03 0. -1.
        -11    1    4    4    0    0  0.15638878179E+01  0.66061742116E+01  0.10538565307E+02  0.12535894137E+02  0.51100000000E-03 0.  1.
         12    1    4    4    0    0 -0.10414679549E+01 -0.90524844276E+01  0.12985870063E+00  0.91131220278E+01  0.00000000000E+00 0. -1.
</event>
<event>
 8    1  0.1253703E-006  0.9118800E+02  0.7816164E-02  0.1184000E+00
        -11   -1    0    0    0    0  0.00000000000E+00  0.00000000000E+00  0.45593999997E+02  0.45594000000E+02  0.51100000000E-03 0.  1.
         11   -1    0    0    0    0 -0.00000000000E+00 -0.00000000000E+00 -0.45593999997E+02  0.45594000000E+02  0.51100000000E-03 0. -1.
         23    2    1    2    0    0  0.00000000000E+00  0.35527136788E-14  0.00000000000E+00  0.91188000000E+02  0.91188000000E+02 0.  0.
    9900012    2    3    3    0    0  0.80975176770E+01  0.29612419692E+02  0.20330139617E+02  0.54367085164E+02  0.40000002248E+02 0.  0.
         12    1    3    3    0    0 -0.80975176770E+01 -0.29612419692E+02 -0.20330139617E+02  0.36820914836E+02  0.00000000000E+00 0. -1.
         11    1    4    4    0    0 -0.60300885203E+01 -0.28728064728E+01  0.14597813701E+02  0.16053384369E+02  0.51100000000E-03 0.  1.
        -11    1    4    4    0    0  0.51567582919E+01  0.11467939143E+01  0.64488087429E+00  0.53219511428E+01  0.51100000000E-03 0. -1.
        -12    1    4    4    0    0  0.89708479055E+01  0.31338432250E+02  0.50874450422E+01  0.32991749652E+02  0.00000000000E+00 0.  1.
</event>
<event>
 8    1  0.1253703E-006  0.9118800E+02  0.7816164E-02  0.1184000E+00
        -11   -1    0    0    0    0  0.00000000000E+00  0.00000000000E+00  0.45593999997E+02  0.45594000000E+02  0.51100000000E-03 0. -1.
         11   -1    0    0    0    0 -0.00000000000E+00 -0.00000000000E+00 -0.45593999997E+02  0.45594000000E+02  0.51100000000E-03 0.  1.
         23    2    1    2    0    0  0.17763568394E-14 -0.35527136788E-14  0.00000000000E+00  0.91188000000E+02  0.91188000000E+02 0.  0.
    9900012    2    3    3    0    0 -0.97372620808E+01  0.27315941312E+02  0.22689338835E+02  0.54367068190E+02  0.39999963553E+02 0.  0.
        -12    1    3    3    0    0  0.97372620808E+01 -0.27315941312E+02 -0.22689338835E+02  0.36820931810E+02  0.00000000000E+00 0.  1.
         11    1    4    4    0    0  0.60651862710E+00  0.16818808466E+01 -0.54025798479E+01  0.56907343376E+01  0.51100000000E-03 0.  1.
        -11    1    4    4    0    0 -0.12415673231E+01 -0.42112690321E+01 -0.24383297067E+01  0.50221238832E+01  0.51100000000E-03 0. -1.
         12    1    4    4    0    0 -0.91022133848E+01  0.29845329497E+02  0.30530248390E+02  0.43654209969E+02  0.00000000000E+00 0. -1.
</event>
<event>
 8    1  0.1253703E-006  0.9118800E+02  0.7816164E-02  0.1184000E+00
        -11   -1    0    0    0    0  0.00000000000E+00  0.00000000000E+00  0.45593999997E+02  0.45594000000E+02  0.51100000000E-03 0. -1.
         11   -1    0    0    0    0 -0.00000000000E+00 -0.00000000000E+00 -0.45593999997E+02  0.45594000000E+02  0.51100000000E-03 0.  1.
         23    2    1    2    0    0  0.00000000000E+00 -0.35527136788E-14  0.35527136788E-14  0.91188000000E+02  0.91188000000E+02 0.  0.
    9900012    2    3    3    0    0 -0.12705962651E+02  0.25219472338E+02 -0.23628733919E+02  0.54367077435E+02  0.39999984629E+02 0.  0.
         12    1    3    3    0    0  0.12705962651E+02 -0.25219472338E+02  0.23628733919E+02  0.36820922565E+02  0.00000000000E+00 0. -1.
         11    1    4    4    0    0  0.61422199232E+01  0.36245214860E+01 -0.53167589251E+00  0.71516921847E+01  0.51100000000E-03 0. -1.
        -11    1    4    4    0    0  0.42686050329E+01 -0.24122925036E+01 -0.10496577695E+02  0.11585261655E+02  0.51100000000E-03 0.  1.
         12    1    4    4    0    0 -0.23116787607E+02  0.24007243356E+02 -0.12600480331E+02  0.35630123595E+02  0.00000000000E+00 0. -1.
</event>
<event>
 8    1  0.1253703E-006  0.9118800E+02  0.7816164E-02  0.1184000E+00
        -11   -1    0    0    0    0  0.00000000000E+00  0.00000000000E+00  0.45593999997E+02  0.45594000000E+02  0.51100000000E-03 0.  1.
         11   -1    0    0    0    0 -0.00000000000E+00 -0.00000000000E+00 -0.45593999997E+02  0.45594000000E+02  0.51100000000E-03 0. -1.
         23    2    1    2    0    0  0.00000000000E+00  0.35527136788E-14  0.44408920985E-15  0.91188000000E+02  0.91188000000E+02 0.  0.
    9900012    2    3    3    0    0  0.29303630908E+02  0.22187345021E+02  0.21908840896E+01  0.54367067956E+02  0.39999963020E+02 0.  0.
         12    1    3    3    0    0 -0.29303630908E+02 -0.22187345021E+02 -0.21908840896E+01  0.36820932044E+02  0.00000000000E+00 0. -1.
         11    1    4    4    0    0  0.12567695566E+02  0.26618436814E+01 -0.93352523035E+01  0.15880154894E+02  0.51100000000E-03 0. -1.
        -11    1    4    4    0    0  0.17848788738E+02  0.99888862871E+00  0.80437549694E+01  0.19603036300E+02  0.51100000000E-03 0.  1.
        -12    1    4    4    0    0 -0.11128533955E+01  0.18526612711E+02  0.34823814237E+01  0.18883876763E+02  0.00000000000E+00 0.  1.
</event>
<event>
 8    1  0.1253703E-006  0.9118800E+02  0.7816164E-02  0.1184000E+00
        -11   -1    0    0    0    0  0.00000000000E+00  0.00000000000E+00  0.45593999997E+02  0.45594000000E+02  0.51100000000E-03 0.  1.
         11   -1    0    0    0    0 -0.00000000000E+00 -0.00000000000E+00 -0.45593999997E+02  0.45594000000E+02  0.51100000000E-03 0. -1.
         23    2    1    2    0    0  0.00000000000E+00  0.00000000000E+00  0.00000000000E+00  0.91188000000E+02  0.91188000000E+02 0.  0.
    9900012    2    3    3    0    0 -0.23339121605E+02 -0.18984098175E+02 -0.21228999645E+02  0.54367068361E+02  0.39999963942E+02 0.  0.
         12    1    3    3    0    0  0.23339121605E+02  0.18984098175E+02  0.21228999645E+02  0.36820931639E+02  0.00000000000E+00 0. -1.
         11    1    4    4    0    0 -0.20581178988E+02 -0.25641512660E+02 -0.11113702065E+02  0.34707153065E+02  0.51100000000E-03 0. -1.
        -11    1    4    4    0    0  0.37665524402E+01  0.86712859760E+01 -0.33024323389E+01  0.10014198789E+02  0.51100000000E-03 0.  1.
         12    1    4    4    0    0 -0.65244950581E+01 -0.20138714910E+01 -0.68128652410E+01  0.96457165073E+01  0.00000000000E+00 0. -1.
</event>
<event>
 8    1  0.1253703E-006  0.9118800E+02  0.7816164E-02  0.1184000E+00
        -11   -1    0    0    0    0  0.00000000000E+00  0.00000000000E+00  0.45593999997E+02  0.45594000000E+02  0.51100000000E-03 0. -1.
         11   -1    0    0    0    0 -0.00000000000E+00 -0.00000000000E+00 -0.45593999997E+02  0.45594000000E+02  0.51100000000E-03 0.  1.
         23    2    1    2    0    0  0.11102230246E-15  0.22204460493E-15  0.00000000000E+00  0.91188000000E+02  0.91188000000E+02 0.  0.
    9900012    2    3    3    0    0 -0.94698263304E+00  0.19777186351E+01  0.36755504373E+02  0.54367146550E+02  0.40000142189E+02 0.  0.
        -12    1    3    3    0    0  0.94698263304E+00 -0.19777186351E+01 -0.36755504373E+02  0.36820853450E+02  0.00000000000E+00 0.  1.
         11    1    4    4    0    0 -0.17871661773E+01  0.10492280311E+01  0.22940789127E+02  0.23034206052E+02  0.51100000000E-03 0. -1.
        -11    1    4    4    0    0 -0.38591809466E+01  0.59282723426E+01  0.20540686707E+02  0.21724582878E+02  0.51100000000E-03 0.  1.
        -12    1    4    4    0    0  0.46993644909E+01 -0.49997817386E+01 -0.67259714614E+01  0.96083576198E+01  0.00000000000E+00 0.  1.
</event>
<event>
 8    1  0.1253703E-006  0.9118800E+02  0.7816164E-02  0.1184000E+00
        -11   -1    0    0    0    0  0.00000000000E+00  0.00000000000E+00  0.45593999997E+02  0.45594000000E+02  0.51100000000E-03 0.  1.
         11   -1    0    0    0    0 -0.00000000000E+00 -0.00000000000E+00 -0.45593999997E+02  0.45594000000E+02  0.51100000000E-03 0. -1.
         23    2    1    2    0    0  0.00000000000E+00  0.00000000000E+00 -0.88817841970E-15  0.91188000000E+02  0.91188000000E+02 0.  0.
    9900012    2    3    3    0    0 -0.13599817308E+02  0.33402590672E+02 -0.74219864636E+01  0.54367163813E+02  0.40000181545E+02 0.  0.
        -12    1    3    3    0    0  0.13599817308E+02 -0.33402590672E+02  0.74219864636E+01  0.36820836187E+02  0.00000000000E+00 0.  1.
         11    1    4    4    0    0 -0.14717359591E+02  0.15404465136E+02 -0.13291397607E+02  0.25110943233E+02  0.51100000000E-03 0. -1.
        -11    1    4    4    0    0  0.69866853404E+01  0.20197912920E+02  0.11368771201E+01  0.21402381835E+02  0.51100000000E-03 0.  1.
         12    1    4    4    0    0 -0.58691430571E+01 -0.21997873834E+01  0.47325340230E+01  0.78538387452E+01  0.00000000000E+00 0. -1.
</event>
<event>
 8    1  0.1253703E-006  0.9118800E+02  0.7816164E-02  0.1184000E+00
        -11   -1    0    0    0    0  0.00000000000E+00  0.00000000000E+00  0.45593999997E+02  0.45594000000E+02  0.51100000000E-03 0.  1.
         11   -1    0    0    0    0 -0.00000000000E+00 -0.00000000000E+00 -0.45593999997E+02  0.45594000000E+02  0.51100000000E-03 0. -1.
         23    2    1    2    0    0  0.00000000000E+00  0.00000000000E+00  0.00000000000E+00  0.91188000000E+02  0.91188000000E+02 0.  0.
    9900012    2    3    3    0    0 -0.22986673871E+02 -0.14592905170E+02 -0.24787897241E+02  0.54367083300E+02  0.39999998000E+02 0.  0.
        -12    1    3    3    0    0  0.22986673871E+02  0.14592905170E+02  0.24787897241E+02  0.36820916700E+02  0.00000000000E+00 0.  1.
         11    1    4    4    0    0 -0.15057773140E+02 -0.22470571437E+02 -0.95536804770E+01  0.28686859772E+02  0.51100000000E-03 0. -1.
        -11    1    4    4    0    0  0.10076850129E+01 -0.43826626952E+01 -0.48875020159E+00  0.45234984698E+01  0.51100000000E-03 0.  1.
         12    1    4    4    0    0 -0.89365857440E+01  0.12260328963E+02 -0.14745466563E+02  0.21156725058E+02  0.00000000000E+00 0. -1.
</event>
<event>
 8    1  0.1253703E-006  0.9118800E+02  0.7816164E-02  0.1184000E+00
        -11   -1    0    0    0    0  0.00000000000E+00  0.00000000000E+00  0.45593999997E+02  0.45594000000E+02  0.51100000000E-03 0.  1.
         11   -1    0    0    0    0 -0.00000000000E+00 -0.00000000000E+00 -0.45593999997E+02  0.45594000000E+02  0.51100000000E-03 0. -1.
         23    2    1    2    0    0  0.71054273576E-14  0.00000000000E+00  0.35527136788E-14  0.91188000000E+02  0.91188000000E+02 0.  0.
    9900012    2    3    3    0    0  0.25930123692E+02  0.44166948091E+01  0.25766213935E+02  0.54367132435E+02  0.40000110011E+02 0.  0.
         12    1    3    3    0    0 -0.25930123692E+02 -0.44166948091E+01 -0.25766213935E+02  0.36820867565E+02  0.00000000000E+00 0. -1.
         11    1    4    4    0    0  0.12740776199E+02  0.58029497078E+01  0.11781386958E+02  0.18297614117E+02  0.51100000000E-03 0.  1.
        -11    1    4    4    0    0 -0.75449739050E+01  0.63292934568E+01 -0.89813396393E-01  0.98485863755E+01  0.51100000000E-03 0. -1.
        -12    1    4    4    0    0  0.20734321398E+02 -0.77155483555E+01  0.14074640373E+02  0.26220931942E+02  0.00000000000E+00 0.  1.
</event>
<event>
 8    1  0.1253703E-006  0.9118800E+02  0.7816164E-02  0.1184000E+00
        -11   -1    0    0    0    0  0.00000000000E+00  0.00000000000E+00  0.45593999997E+02  0.45594000000E+02  0.51100000000E-03 0. -1.
         11   -1    0    0    0    0 -0.00000000000E+00 -0.00000000000E+00 -0.45593999997E+02  0.45594000000E+02  0.51100000000E-03 0.  1.
         23    2    1    2    0    0 -0.66613381478E-15 -0.35527136788E-14 -0.35527136788E-14  0.91188000000E+02  0.91188000000E+02 0.  0.
    9900012    2    3    3    0    0  0.13622620928E+01  0.30422749585E+02 -0.20697396675E+02  0.54367059227E+02  0.39999943119E+02 0.  0.
         12    1    3    3    0    0 -0.13622620928E+01 -0.30422749585E+02  0.20697396675E+02  0.36820940773E+02  0.00000000000E+00 0. -1.
         11    1    4    4    0    0 -0.49216121666E+01  0.16475784200E+02 -0.80557052958E+00  0.17214025545E+02  0.51100000000E-03 0. -1.
        -11    1    4    4    0    0 -0.43877983379E+01  0.52867884349E+01 -0.22180586114E+02  0.23220277923E+02  0.51100000000E-03 0.  1.
         12    1    4    4    0    0  0.10671672597E+02  0.86601769501E+01  0.22887599687E+01  0.13932755758E+02  0.00000000000E+00 0. -1.
</event>
<event>
 8    1  0.1253703E-006  0.9118800E+02  0.7816164E-02  0.1184000E+00
        -11   -1    0    0    0    0  0.00000000000E+00  0.00000000000E+00  0.45593999997E+02  0.45594000000E+02  0.51100000000E-03 0.  1.
         11   -1    0    0    0    0 -0.00000000000E+00 -0.00000000000E+00 -0.45593999997E+02  0.45594000000E+02  0.51100000000E-03 0. -1.
         23    2    1    2    0    0  0.35527136788E-14  0.00000000000E+00  0.33306690739E-15  0.91188000000E+02  0.91188000000E+02 0.  0.
    9900012    2    3    3    0    0 -0.26093605513E+02 -0.25961068625E+02 -0.96272911973E+00  0.54367079586E+02  0.39999989531E+02 0.  0.
         12    1    3    3    0    0  0.26093605513E+02  0.25961068625E+02  0.96272911973E+00  0.36820920414E+02  0.00000000000E+00 0. -1.
         11    1    4    4    0    0  0.75902858842E+01  0.14504499462E+01 -0.47583163207E+01  0.90751208983E+01  0.51100000000E-03 0. -1.
        -11    1    4    4    0    0 -0.31480609061E+02 -0.28470835474E+02  0.24850819052E+01  0.42518147323E+02  0.51100000000E-03 0.  1.
         12    1    4    4    0    0 -0.22032823364E+01  0.10593169031E+01  0.13105052958E+01  0.27738113645E+01  0.00000000000E+00 0. -1.
</event>
<event>
 8    1  0.1253703E-006  0.9118800E+02  0.7816164E-02  0.1184000E+00
        -11   -1    0    0    0    0  0.00000000000E+00  0.00000000000E+00  0.45593999997E+02  0.45594000000E+02  0.51100000000E-03 0.  1.
         11   -1    0    0    0    0 -0.00000000000E+00 -0.00000000000E+00 -0.45593999997E+02  0.45594000000E+02  0.51100000000E-03 0. -1.
         23    2    1    2    0    0 -0.35527136788E-14 -0.35527136788E-14 -0.17763568394E-14  0.91188000000E+02  0.91188000000E+02 0.  0.
    9900012    2    3    3    0    0 -0.27220254942E+02 -0.20362424507E+02 -0.14149470244E+02  0.54367107573E+02  0.40000053334E+02 0.  0.
         12    1    3    3    0    0  0.27220254942E+02  0.20362424507E+02  0.14149470244E+02  0.36820892427E+02  0.00000000000E+00 0. -1.
         11    1    4    4    0    0 -0.18735101023E+01 -0.14894283960E+02  0.39256622629E+01  0.15516460913E+02  0.51100000000E-03 0. -1.
        -11    1    4    4    0    0 -0.34088977769E+01 -0.47107756563E+01 -0.15735357314E+02  0.16775382601E+02  0.51100000000E-03 0.  1.
        -12    1    4    4    0    0 -0.21937847063E+02 -0.75736489054E+00 -0.23397751923E+01  0.22075264059E+02  0.00000000000E+00 0.  1.
</event>
<event>
 8    1  0.1253703E-006  0.9118800E+02  0.7816164E-02  0.1184000E+00
        -11   -1    0    0    0    0  0.00000000000E+00  0.00000000000E+00  0.45593999997E+02  0.45594000000E+02  0.51100000000E-03 0.  1.
         11   -1    0    0    0    0 -0.00000000000E+00 -0.00000000000E+00 -0.45593999997E+02  0.45594000000E+02  0.51100000000E-03 0. -1.
         23    2    1    2    0    0 -0.71054273576E-14 -0.35527136788E-14  0.00000000000E+00  0.91188000000E+02  0.91188000000E+02 0.  0.
    9900012    2    3    3    0    0 -0.32731970418E+02 -0.16627827498E+02  0.28133504366E+01  0.54367061997E+02  0.39999949435E+02 0.  0.
        -12    1    3    3    0    0  0.32731970418E+02  0.16627827498E+02 -0.28133504366E+01  0.36820938003E+02  0.00000000000E+00 0.  1.
         11    1    4    4    0    0 -0.31688603652E+02 -0.17455490468E+02  0.68837254515E+01  0.36827264700E+02  0.51100000000E-03 0. -1.
        -11    1    4    4    0    0  0.47488623796E+01  0.18310526580E+01  0.47355833969E+01  0.69519923840E+01  0.51100000000E-03 0.  1.
        -12    1    4    4    0    0 -0.57922291455E+01 -0.10033896873E+01 -0.88059584118E+01  0.10587804914E+02  0.00000000000E+00 0.  1.
</event>
<event>
 8    1  0.1253703E-006  0.9118800E+02  0.7816164E-02  0.1184000E+00
        -11   -1    0    0    0    0  0.00000000000E+00  0.00000000000E+00  0.45593999997E+02  0.45594000000E+02  0.51100000000E-03 0.  1.
         11   -1    0    0    0    0 -0.00000000000E+00 -0.00000000000E+00 -0.45593999997E+02  0.45594000000E+02  0.51100000000E-03 0. -1.
         23    2    1    2    0    0  0.17763568394E-14  0.00000000000E+00  0.00000000000E+00  0.91188000000E+02  0.91188000000E+02 0.  0.
    9900012    2    3    3    0    0 -0.14327187097E+02  0.26203798725E+02 -0.21537740743E+02  0.54367059843E+02  0.39999944523E+02 0.  0.
         12    1    3    3    0    0  0.14327187097E+02 -0.26203798725E+02  0.21537740743E+02  0.36820940157E+02  0.00000000000E+00 0. -1.
         11    1    4    4    0    0  0.19653844404E+01  0.71021583770E+01 -0.21146418291E+02  0.22393624012E+02  0.51100000000E-03 0. -1.
        -11    1    4    4    0    0  0.36853464308E+01  0.86865070573E+01  0.14956600867E+00  0.94371369293E+01  0.51100000000E-03 0.  1.
         12    1    4    4    0    0 -0.19977917969E+02  0.10415133291E+02 -0.54088846085E+00  0.22536298901E+02  0.00000000000E+00 0. -1.
</event>
<event>
 8    1  0.1253703E-006  0.9118800E+02  0.7816164E-02  0.1184000E+00
        -11   -1    0    0    0    0  0.00000000000E+00  0.00000000000E+00  0.45593999997E+02  0.45594000000E+02  0.51100000000E-03 0. -1.
         11   -1    0    0    0    0 -0.00000000000E+00 -0.00000000000E+00 -0.45593999997E+02  0.45594000000E+02  0.51100000000E-03 0.  1.
         23    2    1    2    0    0  0.00000000000E+00 -0.71054273576E-14  0.88817841970E-15  0.91188000000E+02  0.91188000000E+02 0.  0.
    9900012    2    3    3    0    0 -0.10932975189E+02 -0.34706165113E+02  0.56327942528E+01  0.54367133438E+02  0.40000112297E+02 0.  0.
        -12    1    3    3    0    0  0.10932975189E+02  0.34706165113E+02 -0.56327942528E+01  0.36820866562E+02  0.00000000000E+00 0.  1.
         11    1    4    4    0    0 -0.11124793290E+02 -0.35669105107E+01  0.10446927980E+02  0.15672338078E+02  0.51100000000E-03 0. -1.
        -11    1    4    4    0    0  0.15467695737E+01 -0.98497570517E+00 -0.81247142418E+01  0.83290848853E+01  0.51100000000E-03 0.  1.
         12    1    4    4    0    0 -0.13549514727E+01 -0.30154278897E+02  0.33105805145E+01  0.30365710475E+02  0.00000000000E+00 0. -1.
</event>
<event>
 8    1  0.1253703E-006  0.9118800E+02  0.7816164E-02  0.1184000E+00
        -11   -1    0    0    0    0  0.00000000000E+00  0.00000000000E+00  0.45593999997E+02  0.45594000000E+02  0.51100000000E-03 0.  1.
         11   -1    0    0    0    0 -0.00000000000E+00 -0.00000000000E+00 -0.45593999997E+02  0.45594000000E+02  0.51100000000E-03 0. -1.
         23    2    1    2    0    0  0.35527136788E-14  0.00000000000E+00  0.00000000000E+00  0.91188000000E+02  0.91188000000E+02 0.  0.
    9900012    2    3    3    0    0 -0.27940005283E+02 -0.19893579399E+02  0.13393266067E+02  0.54367109564E+02  0.40000057874E+02 0.  0.
         12    1    3    3    0    0  0.27940005283E+02  0.19893579399E+02 -0.13393266067E+02  0.36820890436E+02  0.00000000000E+00 0. -1.
         11    1    4    4    0    0 -0.13470014203E+01  0.57479283154E+01 -0.62090899428E+01  0.85677237890E+01  0.51100000000E-03 0. -1.
        -11    1    4    4    0    0 -0.11973178934E+02 -0.35524038161E+01  0.13931831385E+02  0.18710224816E+02  0.51100000000E-03 0.  1.
        -12    1    4    4    0    0 -0.14619824929E+02 -0.22089103899E+02  0.56705246246E+01  0.27089160960E+02  0.00000000000E+00 0.  1.
</event>
<event>
 8    1  0.1253703E-006  0.9118800E+02  0.7816164E-02  0.1184000E+00
        -11   -1    0    0    0    0  0.00000000000E+00  0.00000000000E+00  0.45593999997E+02  0.45594000000E+02  0.51100000000E-03 0. -1.
         11   -1    0    0    0    0 -0.00000000000E+00 -0.00000000000E+00 -0.45593999997E+02  0.45594000000E+02  0.51100000000E-03 0.  1.
         23    2    1    2    0    0  0.00000000000E+00 -0.17763568394E-14  0.00000000000E+00  0.91188000000E+02  0.91188000000E+02 0.  0.
    9900012    2    3    3    0    0  0.28114536960E+02  0.15111579805E+02 -0.18357369028E+02  0.54367081621E+02  0.39999994171E+02 0.  0.
         12    1    3    3    0    0 -0.28114536960E+02 -0.15111579805E+02  0.18357369028E+02  0.36820918379E+02  0.00000000000E+00 0. -1.
         11    1    4    4    0    0 -0.18866346054E+01 -0.89996871544E+01 -0.60093261660E+01  0.10984796777E+02  0.51100000000E-03 0. -1.
        -11    1    4    4    0    0  0.22259722970E+02  0.92537864989E+01 -0.32696684202E+01  0.24327321330E+02  0.51100000000E-03 0.  1.
         12    1    4    4    0    0  0.77414485955E+01  0.14857480461E+02 -0.90783744414E+01  0.19054963513E+02  0.00000000000E+00 0. -1.
</event>
<event>
 8    1  0.1253703E-006  0.9118800E+02  0.7816164E-02  0.1184000E+00
        -11   -1    0    0    0    0  0.00000000000E+00  0.00000000000E+00  0.45593999997E+02  0.45594000000E+02  0.51100000000E-03 0. -1.
         11   -1    0    0    0    0 -0.00000000000E+00 -0.00000000000E+00 -0.45593999997E+02  0.45594000000E+02  0.51100000000E-03 0.  1.
         23    2    1    2    0    0  0.00000000000E+00  0.17763568394E-14  0.00000000000E+00  0.91188000000E+02  0.91188000000E+02 0.  0.
    9900012    2    3    3    0    0  0.34278235386E+02  0.10453735041E+02 -0.84558407993E+01  0.54367092337E+02  0.40000018602E+02 0.  0.
        -12    1    3    3    0    0 -0.34278235386E+02 -0.10453735041E+02  0.84558407993E+01  0.36820907663E+02  0.00000000000E+00 0.  1.
         11    1    4    4    0    0  0.92374851934E+01  0.86716560836E+00 -0.10061265216E+02  0.13686203524E+02  0.51100000000E-03 0. -1.
        -11    1    4    4    0    0  0.68976708900E+01  0.16801246165E+01 -0.13854348628E+02  0.15567390873E+02  0.51100000000E-03 0.  1.
         12    1    4    4    0    0  0.18143079303E+02  0.79064448157E+01  0.15459773045E+02  0.25113497940E+02  0.00000000000E+00 0. -1.
</event>
<event>
 8    1  0.1253703E-006  0.9118800E+02  0.7816164E-02  0.1184000E+00
        -11   -1    0    0    0    0  0.00000000000E+00  0.00000000000E+00  0.45593999997E+02  0.45594000000E+02  0.51100000000E-03 0. -1.
         11   -1    0    0    0    0 -0.00000000000E+00 -0.00000000000E+00 -0.45593999997E+02  0.45594000000E+02  0.51100000000E-03 0.  1.
         23    2    1    2    0    0  0.35527136788E-14  0.00000000000E+00  0.17763568394E-14  0.91188000000E+02  0.91188000000E+02 0.  0.
    9900012    2    3    3    0    0  0.23729768682E+02  0.23619888100E+02 -0.15322465610E+02  0.54367095775E+02  0.40000026439E+02 0.  0.
         12    1    3    3    0    0 -0.23729768682E+02 -0.23619888100E+02  0.15322465610E+02  0.36820904225E+02  0.00000000000E+00 0. -1.
         11    1    4    4    0    0  0.24432271040E+02  0.28707281040E+02 -0.10997296072E+02  0.39268108868E+02  0.51100000000E-03 0. -1.
        -11    1    4    4    0    0 -0.86623276068E+00  0.40497075595E+01 -0.42866235537E+01  0.59603382677E+01  0.51100000000E-03 0.  1.
         12    1    4    4    0    0  0.16373040250E+00 -0.91371004990E+01 -0.38545983857E-01  0.91386486401E+01  0.00000000000E+00 0. -1.
</event>
<event>
 8    1  0.1253703E-006  0.9118800E+02  0.7816164E-02  0.1184000E+00
        -11   -1    0    0    0    0  0.00000000000E+00  0.00000000000E+00  0.45593999997E+02  0.45594000000E+02  0.51100000000E-03 0.  1.
         11   -1    0    0    0    0 -0.00000000000E+00 -0.00000000000E+00 -0.45593999997E+02  0.45594000000E+02  0.51100000000E-03 0. -1.
         23    2    1    2    0    0  0.17763568394E-14 -0.35527136788E-14 -0.35527136788E-14  0.91188000000E+02  0.91188000000E+02 0.  0.
    9900012    2    3    3    0    0 -0.99547542731E+01  0.31365523583E+02  0.16519176580E+02  0.54367130957E+02  0.40000106641E+02 0.  0.
         12    1    3    3    0    0  0.99547542731E+01 -0.31365523583E+02 -0.16519176580E+02  0.36820869043E+02  0.00000000000E+00 0. -1.
         11    1    4    4    0    0 -0.62286958813E+00  0.23157834035E+02  0.20014101891E+02  0.30614335180E+02  0.51100000000E-03 0. -1.
        -11    1    4    4    0    0 -0.66633447905E+01  0.11463722946E+02  0.50806170061E+01  0.14199640031E+02  0.51100000000E-03 0.  1.
         12    1    4    4    0    0 -0.26685398944E+01 -0.32560333989E+01 -0.85755423176E+01  0.95531557458E+01  0.00000000000E+00 0. -1.
</event>
<event>
 8    1  0.1253703E-006  0.9118800E+02  0.7816164E-02  0.1184000E+00
        -11   -1    0    0    0    0  0.00000000000E+00  0.00000000000E+00  0.45593999997E+02  0.45594000000E+02  0.51100000000E-03 0.  1.
         11   -1    0    0    0    0 -0.00000000000E+00 -0.00000000000E+00 -0.45593999997E+02  0.45594000000E+02  0.51100000000E-03 0. -1.
         23    2    1    2    0    0  0.17763568394E-14 -0.17763568394E-14  0.00000000000E+00  0.91188000000E+02  0.91188000000E+02 0.  0.
    9900012    2    3    3    0    0  0.12700891935E+02 -0.14900372751E+02  0.31184061077E+02  0.54367089782E+02  0.40000012776E+02 0.  0.
         12    1    3    3    0    0 -0.12700891935E+02  0.14900372751E+02 -0.31184061077E+02  0.36820910218E+02  0.00000000000E+00 0. -1.
         11    1    4    4    0    0  0.16648436029E+01 -0.63119623647E+00 -0.57106317897E+01  0.59817579866E+01  0.51100000000E-03 0. -1.
        -11    1    4    4    0    0  0.71990960661E+01 -0.18808738331E+01  0.34378616531E+02  0.35174620757E+02  0.51100000000E-03 0.  1.
        -12    1    4    4    0    0  0.38369522661E+01 -0.12388302681E+02  0.25160763355E+01  0.13210711038E+02  0.00000000000E+00 0.  1.
</event>
<event>
 8    1  0.1253703E-006  0.9118800E+02  0.7816164E-02  0.1184000E+00
        -11   -1    0    0    0    0  0.00000000000E+00  0.00000000000E+00  0.45593999997E+02  0.45594000000E+02  0.51100000000E-03 0. -1.
         11   -1    0    0    0    0 -0.00000000000E+00 -0.00000000000E+00 -0.45593999997E+02  0.45594000000E+02  0.51100000000E-03 0.  1.
         23    2    1    2    0    0  0.00000000000E+00 -0.44408920985E-15  0.00000000000E+00  0.91188000000E+02  0.91188000000E+02 0.  0.
    9900012    2    3    3    0    0  0.27038453165E+02 -0.20547179268E+01  0.24909435781E+02  0.54367084663E+02  0.40000001106E+02 0.  0.
        -12    1    3    3    0    0 -0.27038453165E+02  0.20547179268E+01 -0.24909435781E+02  0.36820915337E+02  0.00000000000E+00 0.  1.
         11    1    4    4    0    0 -0.46001062941E+01  0.46325774365E+01  0.81048035736E+00  0.65786495797E+01  0.51100000000E-03 0. -1.
        -11    1    4    4    0    0  0.29436098515E+02 -0.12080292266E+02  0.11368530713E+02  0.33788472114E+02  0.51100000000E-03 0.  1.
        -12    1    4    4    0    0  0.22024609447E+01  0.53929969023E+01  0.12730424711E+02  0.13999962969E+02  0.00000000000E+00 0.  1.
</event>
<event>
 8    1  0.1253703E-006  0.9118800E+02  0.7816164E-02  0.1184000E+00
        -11   -1    0    0    0    0  0.00000000000E+00  0.00000000000E+00  0.45593999997E+02  0.45594000000E+02  0.51100000000E-03 0. -1.
         11   -1    0    0    0    0 -0.00000000000E+00 -0.00000000000E+00 -0.45593999997E+02  0.45594000000E+02  0.51100000000E-03 0.  1.
         23    2    1    2    0    0 -0.35527136788E-14 -0.71054273576E-14  0.00000000000E+00  0.91188000000E+02  0.91188000000E+02 0.  0.
    9900012    2    3    3    0    0 -0.23690438733E+02 -0.27379716940E+02 -0.67002549575E+01  0.54367092847E+02  0.40000019763E+02 0.  0.
         12    1    3    3    0    0  0.23690438733E+02  0.27379716940E+02  0.67002549575E+01  0.36820907153E+02  0.00000000000E+00 0. -1.
         11    1    4    4    0    0  0.23505861411E+01 -0.93293454522E+00 -0.59994031790E+01  0.65106421218E+01  0.51100000000E-03 0. -1.
        -11    1    4    4    0    0 -0.11676608209E+02 -0.10526800319E+02 -0.15282904436E+02  0.21925416130E+02  0.51100000000E-03 0.  1.
         12    1    4    4    0    0 -0.14364416666E+02 -0.15919982076E+02  0.14582052658E+02  0.25931034595E+02  0.00000000000E+00 0. -1.
</event>
<event>
 8    1  0.1253703E-006  0.9118800E+02  0.7816164E-02  0.1184000E+00
        -11   -1    0    0    0    0  0.00000000000E+00  0.00000000000E+00  0.45593999997E+02  0.45594000000E+02  0.51100000000E-03 0.  1.
         11   -1    0    0    0    0 -0.00000000000E+00 -0.00000000000E+00 -0.45593999997E+02  0.45594000000E+02  0.51100000000E-03 0. -1.
         23    2    1    2    0    0  0.00000000000E+00 -0.88817841970E-15  0.00000000000E+00  0.91188000000E+02  0.91188000000E+02 0.  0.
    9900012    2    3    3    0    0 -0.23944916639E+02  0.54530808995E+01  0.27435092113E+02  0.54367090134E+02  0.40000013577E+02 0.  0.
         12    1    3    3    0    0  0.23944916639E+02 -0.54530808995E+01 -0.27435092113E+02  0.36820909866E+02  0.00000000000E+00 0. -1.
         11    1    4    4    0    0 -0.91251268776E+01 -0.11131984892E+01  0.18632049631E+02  0.20776439183E+02  0.51100000000E-03 0. -1.
        -11    1    4    4    0    0 -0.80054040002E+01 -0.41272145218E+01  0.16470696578E+02  0.18772432952E+02  0.51100000000E-03 0.  1.
         12    1    4    4    0    0 -0.68143857615E+01  0.10693493910E+02 -0.76676540961E+01  0.14818217999E+02  0.00000000000E+00 0. -1.
</event>
<event>
 8    1  0.1253703E-006  0.9118800E+02  0.7816164E-02  0.1184000E+00
        -11   -1    0    0    0    0  0.00000000000E+00  0.00000000000E+00  0.45593999997E+02  0.45594000000E+02  0.51100000000E-03 0.  1.
         11   -1    0    0    0    0 -0.00000000000E+00 -0.00000000000E+00 -0.45593999997E+02  0.45594000000E+02  0.51100000000E-03 0. -1.
         23    2    1    2    0    0  0.66613381478E-15 -0.88817841970E-15 -0.71054273576E-14  0.91188000000E+02  0.91188000000E+02 0.  0.
    9900012    2    3    3    0    0  0.11976412593E+01  0.57634391991E+01 -0.36347325925E+02  0.54367086406E+02  0.40000005080E+02 0.  0.
        -12    1    3    3    0    0 -0.11976412593E+01 -0.57634391991E+01  0.36347325925E+02  0.36820913594E+02  0.00000000000E+00 0.  1.
         11    1    4    4    0    0 -0.55146405086E+01  0.89314460461E+01 -0.18027838326E+02  0.20861086822E+02  0.51100000000E-03 0. -1.
        -11    1    4    4    0    0 -0.43987472840E+01 -0.80655986390E+01  0.23957013012E+01  0.94943269408E+01  0.51100000000E-03 0.  1.
        -12    1    4    4    0    0  0.11111029052E+02  0.48975917920E+01 -0.20715188901E+02  0.24011672643E+02  0.00000000000E+00 0.  1.
</event>
<event>
 8    1  0.1253703E-006  0.9118800E+02  0.7816164E-02  0.1184000E+00
        -11   -1    0    0    0    0  0.00000000000E+00  0.00000000000E+00  0.45593999997E+02  0.45594000000E+02  0.51100000000E-03 0.  1.
         11   -1    0    0    0    0 -0.00000000000E+00 -0.00000000000E+00 -0.45593999997E+02  0.45594000000E+02  0.51100000000E-03 0. -1.
         23    2    1    2    0    0 -0.71054273576E-14  0.35527136788E-14  0.11102230246E-14  0.91188000000E+02  0.91188000000E+02 0.  0.
    9900012    2    3    3    0    0  0.32568928042E+02 -0.17115654438E+02  0.14477849667E+01  0.54367125730E+02  0.40000094728E+02 0.  0.
         12    1    3    3    0    0 -0.32568928042E+02  0.17115654438E+02 -0.14477849667E+01  0.36820874270E+02  0.00000000000E+00 0. -1.
         11    1    4    4    0    0  0.13914018134E+02 -0.68187766717E+01 -0.43364047864E+00  0.15501085777E+02  0.51100000000E-03 0. -1.
        -11    1    4    4    0    0 -0.73300310556E+01  0.25355183009E+01  0.57129145994E+01  0.96330473793E+01  0.51100000000E-03 0.  1.
        -12    1    4    4    0    0  0.25984940964E+02 -0.12832396067E+02 -0.38314891541E+01  0.29232992574E+02  0.00000000000E+00 0.  1.
</event>
<event>
 8    1  0.1253703E-006  0.9118800E+02  0.7816164E-02  0.1184000E+00
        -11   -1    0    0    0    0  0.00000000000E+00  0.00000000000E+00  0.45593999997E+02  0.45594000000E+02  0.51100000000E-03 0.  1.
         11   -1    0    0    0    0 -0.00000000000E+00 -0.00000000000E+00 -0.45593999997E+02  0.45594000000E+02  0.51100000000E-03 0. -1.
         23    2    1    2    0    0 -0.35527136788E-14  0.35527136788E-14  0.00000000000E+00  0.91188000000E+02  0.91188000000E+02 0.  0.
    9900012    2    3    3    0    0  0.21415000607E+02  0.24692511736E+02  0.16954600424E+02  0.54367070322E+02  0.39999968413E+02 0.  0.
         12    1    3    3    0    0 -0.21415000607E+02 -0.24692511736E+02 -0.16954600424E+02  0.36820929678E+02  0.00000000000E+00 0. -1.
         11    1    4    4    0    0  0.21472334409E+02  0.18463861590E+01  0.15188719045E+02  0.26366028774E+02  0.51100000000E-03 0. -1.
        -11    1    4    4    0    0 -0.23665494211E+01  0.43363829495E+00 -0.40685944249E+01  0.47267387477E+01  0.51100000000E-03 0.  1.
        -12    1    4    4    0    0  0.23092156194E+01  0.22412487282E+02  0.58344758037E+01  0.23274302800E+02  0.00000000000E+00 0.  1.
</event>
<event>
 8    1  0.1253703E-006  0.9118800E+02  0.7816164E-02  0.1184000E+00
        -11   -1    0    0    0    0  0.00000000000E+00  0.00000000000E+00  0.45593999997E+02  0.45594000000E+02  0.51100000000E-03 0. -1.
         11   -1    0    0    0    0 -0.00000000000E+00 -0.00000000000E+00 -0.45593999997E+02  0.45594000000E+02  0.51100000000E-03 0.  1.
         23    2    1    2    0    0  0.35527136788E-14 -0.88817841970E-15  0.00000000000E+00  0.91188000000E+02  0.91188000000E+02 0.  0.
    9900012    2    3    3    0    0  0.23515290940E+02  0.63390204248E+01 -0.27615713813E+02  0.54367085599E+02  0.40000003240E+02 0.  0.
         12    1    3    3    0    0 -0.23515290940E+02 -0.63390204248E+01  0.27615713813E+02  0.36820914401E+02  0.00000000000E+00 0. -1.
         11    1    4    4    0    0 -0.55903667724E+00  0.12085197115E+02 -0.13723837567E+02  0.18295032909E+02  0.51100000000E-03 0. -1.
        -11    1    4    4    0    0 -0.35685604458E+01  0.18795887546E+01  0.36167186361E+00  0.40494795147E+01  0.51100000000E-03 0.  1.
        -12    1    4    4    0    0  0.27642888063E+02 -0.76257654447E+01 -0.14253548110E+02  0.32022573176E+02  0.00000000000E+00 0.  1.
</event>
<event>
 8    1  0.1253703E-006  0.9118800E+02  0.7816164E-02  0.1184000E+00
        -11   -1    0    0    0    0  0.00000000000E+00  0.00000000000E+00  0.45593999997E+02  0.45594000000E+02  0.51100000000E-03 0. -1.
         11   -1    0    0    0    0 -0.00000000000E+00 -0.00000000000E+00 -0.45593999997E+02  0.45594000000E+02  0.51100000000E-03 0.  1.
         23    2    1    2    0    0  0.71054273576E-14  0.35527136788E-14 -0.88817841970E-15  0.91188000000E+02  0.91188000000E+02 0.  0.
    9900012    2    3    3    0    0 -0.27948342187E+02 -0.23878371737E+02  0.21196199193E+01  0.54367092130E+02  0.40000018128E+02 0.  0.
        -12    1    3    3    0    0  0.27948342187E+02  0.23878371737E+02 -0.21196199193E+01  0.36820907870E+02  0.00000000000E+00 0.  1.
         11    1    4    4    0    0 -0.26953300131E+02 -0.18083205106E+02  0.95344066522E+01  0.33828798461E+02  0.51100000000E-03 0. -1.
        -11    1    4    4    0    0 -0.77572687560E+01  0.27721434244E+01 -0.32880874754E+01  0.88696965690E+01  0.51100000000E-03 0.  1.
        -12    1    4    4    0    0  0.67622266995E+01 -0.85673100547E+01 -0.41266992576E+01  0.11668597100E+02  0.00000000000E+00 0.  1.
</event>
<event>
 8    1  0.1253703E-006  0.9118800E+02  0.7816164E-02  0.1184000E+00
        -11   -1    0    0    0    0  0.00000000000E+00  0.00000000000E+00  0.45593999997E+02  0.45594000000E+02  0.51100000000E-03 0.  1.
         11   -1    0    0    0    0 -0.00000000000E+00 -0.00000000000E+00 -0.45593999997E+02  0.45594000000E+02  0.51100000000E-03 0. -1.
         23    2    1    2    0    0  0.00000000000E+00  0.44408920985E-15  0.00000000000E+00  0.91188000000E+02  0.91188000000E+02 0.  0.
    9900012    2    3    3    0    0  0.20162879695E+02  0.38069807482E+01  0.30573596471E+02  0.54367087176E+02  0.40000006836E+02 0.  0.
        -12    1    3    3    0    0 -0.20162879695E+02 -0.38069807482E+01 -0.30573596471E+02  0.36820912824E+02  0.00000000000E+00 0.  1.
         11    1    4    4    0    0  0.16687801433E+02 -0.40138849438E-01  0.21933986135E+01  0.16831379193E+02  0.51100000000E-03 0. -1.
        -11    1    4    4    0    0 -0.36219832688E+01  0.10062993636E+02  0.40425820356E+01  0.11433506614E+02  0.51100000000E-03 0.  1.
        -12    1    4    4    0    0  0.70970615309E+01 -0.62158740385E+01  0.24337615822E+02  0.26102201369E+02  0.00000000000E+00 0.  1.
</event>
<event>
 8    1  0.1253703E-006  0.9118800E+02  0.7816164E-02  0.1184000E+00
        -11   -1    0    0    0    0  0.00000000000E+00  0.00000000000E+00  0.45593999997E+02  0.45594000000E+02  0.51100000000E-03 0.  1.
         11   -1    0    0    0    0 -0.00000000000E+00 -0.00000000000E+00 -0.45593999997E+02  0.45594000000E+02  0.51100000000E-03 0. -1.
         23    2    1    2    0    0  0.00000000000E+00  0.35527136788E-14 -0.33306690739E-15  0.91188000000E+02  0.91188000000E+02 0.  0.
    9900012    2    3    3    0    0  0.24823514570E+02  0.27191631697E+02  0.43332296874E+00  0.54367089111E+02  0.40000011246E+02 0.  0.
        -12    1    3    3    0    0 -0.24823514570E+02 -0.27191631697E+02 -0.43332296874E+00  0.36820910889E+02  0.00000000000E+00 0.  1.
         11    1    4    4    0    0  0.27007404710E+01  0.96334526715E+01  0.17400546478E+01  0.10155057848E+02  0.51100000000E-03 0. -1.
        -11    1    4    4    0    0  0.22043173978E+02  0.24578608507E+02  0.65676670571E+01  0.33662200849E+02  0.51100000000E-03 0.  1.
        -12    1    4    4    0    0  0.79600121148E-01 -0.70204294823E+01 -0.78743987361E+01  0.10549830413E+02  0.00000000000E+00 0.  1.
</event>
<event>
 8    1  0.1253703E-006  0.9118800E+02  0.7816164E-02  0.1184000E+00
        -11   -1    0    0    0    0  0.00000000000E+00  0.00000000000E+00  0.45593999997E+02  0.45594000000E+02  0.51100000000E-03 0.  1.
         11   -1    0    0    0    0 -0.00000000000E+00 -0.00000000000E+00 -0.45593999997E+02  0.45594000000E+02  0.51100000000E-03 0. -1.
         23    2    1    2    0    0  0.00000000000E+00 -0.71054273576E-14 -0.88817841970E-15  0.91188000000E+02  0.91188000000E+02 0.  0.
    9900012    2    3    3    0    0 -0.10821461139E+02  0.34424240299E+02  0.73243901671E+01  0.54367095167E+02  0.40000025053E+02 0.  0.
         12    1    3    3    0    0  0.10821461139E+02 -0.34424240299E+02 -0.73243901671E+01  0.36820904833E+02  0.00000000000E+00 0. -1.
         11    1    4    4    0    0 -0.19361748063E+01  0.12267772010E+02  0.26534632617E+01  0.12699916162E+02  0.51100000000E-03 0. -1.
        -11    1    4    4    0    0 -0.27625160786E+00  0.29699042099E+02  0.54447232075E+01  0.30195271611E+02  0.51100000000E-03 0.  1.
         12    1    4    4    0    0 -0.86090347244E+01 -0.75425738100E+01 -0.77379630214E+00  0.11471907395E+02  0.00000000000E+00 0. -1.
</event>
<event>
 8    1  0.1253703E-006  0.9118800E+02  0.7816164E-02  0.1184000E+00
        -11   -1    0    0    0    0  0.00000000000E+00  0.00000000000E+00  0.45593999997E+02  0.45594000000E+02  0.51100000000E-03 0. -1.
         11   -1    0    0    0    0 -0.00000000000E+00 -0.00000000000E+00 -0.45593999997E+02  0.45594000000E+02  0.51100000000E-03 0.  1.
         23    2    1    2    0    0  0.00000000000E+00  0.35527136788E-14  0.00000000000E+00  0.91188000000E+02  0.91188000000E+02 0.  0.
    9900012    2    3    3    0    0 -0.16293980965E+02 -0.14920962465E+02  0.29455925074E+02  0.54367075806E+02  0.39999980914E+02 0.  0.
        -12    1    3    3    0    0  0.16293980965E+02  0.14920962465E+02 -0.29455925074E+02  0.36820924194E+02  0.00000000000E+00 0.  1.
         11    1    4    4    0    0  0.12718946903E+01  0.55464846727E+01 -0.27957839109E+01  0.63401590094E+01  0.51100000000E-03 0. -1.
        -11    1    4    4    0    0  0.35450059091E+01 -0.93506058046E+00 -0.12497630139E+01  0.38734110338E+01  0.51100000000E-03 0.  1.
         12    1    4    4    0    0 -0.21110881565E+02 -0.19532386557E+02  0.33501471998E+02  0.44153505763E+02  0.00000000000E+00 0. -1.
</event>
<event>
 8    1  0.1253703E-006  0.9118800E+02  0.7816164E-02  0.1184000E+00
        -11   -1    0    0    0    0  0.00000000000E+00  0.00000000000E+00  0.45593999997E+02  0.45594000000E+02  0.51100000000E-03 0.  1.
         11   -1    0    0    0    0 -0.00000000000E+00 -0.00000000000E+00 -0.45593999997E+02  0.45594000000E+02  0.51100000000E-03 0. -1.
         23    2    1    2    0    0  0.17763568394E-14  0.00000000000E+00  0.00000000000E+00  0.91188000000E+02  0.91188000000E+02 0.  0.
    9900012    2    3    3    0    0 -0.84631360229E+01  0.98290833964E+01  0.34460759192E+02  0.54367089150E+02  0.40000011334E+02 0.  0.
         12    1    3    3    0    0  0.84631360229E+01 -0.98290833964E+01 -0.34460759192E+02  0.36820910850E+02  0.00000000000E+00 0. -1.
         11    1    4    4    0    0 -0.10124962864E+02  0.19407410311E+02  0.16346094122E+02  0.27319539551E+02  0.51100000000E-03 0. -1.
        -11    1    4    4    0    0 -0.21135368017E+01 -0.14037127435E+02  0.13662423210E+02  0.19702025090E+02  0.51100000000E-03 0.  1.
         12    1    4    4    0    0  0.37753636431E+01  0.44588005207E+01  0.44522418600E+01  0.73455245082E+01  0.00000000000E+00 0. -1.
</event>
<event>
 8    1  0.1253703E-006  0.9118800E+02  0.7816164E-02  0.1184000E+00
        -11   -1    0    0    0    0  0.00000000000E+00  0.00000000000E+00  0.45593999997E+02  0.45594000000E+02  0.51100000000E-03 0. -1.
         11   -1    0    0    0    0 -0.00000000000E+00 -0.00000000000E+00 -0.45593999997E+02  0.45594000000E+02  0.51100000000E-03 0.  1.
         23    2    1    2    0    0  0.00000000000E+00  0.00000000000E+00  0.00000000000E+00  0.91188000000E+02  0.91188000000E+02 0.  0.
    9900012    2    3    3    0    0  0.25034448489E+02  0.16925152633E+02  0.21037949326E+02  0.54367085907E+02  0.40000003943E+02 0.  0.
        -12    1    3    3    0    0 -0.25034448489E+02 -0.16925152633E+02 -0.21037949326E+02  0.36820914093E+02  0.00000000000E+00 0.  1.
         11    1    4    4    0    0  0.83615573816E+01  0.16780763964E+02  0.47083693489E+01  0.19330763649E+02  0.51100000000E-03 0. -1.
        -11    1    4    4    0    0  0.20683238845E+01 -0.28656492881E+01 -0.67149128621E+01  0.75881463178E+01  0.51100000000E-03 0.  1.
        -12    1    4    4    0    0  0.14604567222E+02  0.30100379570E+01  0.23044492839E+02  0.27448175941E+02  0.00000000000E+00 0.  1.
</event>
<event>
 8    1  0.1253703E-006  0.9118800E+02  0.7816164E-02  0.1184000E+00
        -11   -1    0    0    0    0  0.00000000000E+00  0.00000000000E+00  0.45593999997E+02  0.45594000000E+02  0.51100000000E-03 0. -1.
         11   -1    0    0    0    0 -0.00000000000E+00 -0.00000000000E+00 -0.45593999997E+02  0.45594000000E+02  0.51100000000E-03 0.  1.
         23    2    1    2    0    0 -0.16098233857E-14  0.00000000000E+00  0.00000000000E+00  0.91188000000E+02  0.91188000000E+02 0.  0.
    9900012    2    3    3    0    0 -0.48747941756E+00  0.12288328215E+02  0.34706463670E+02  0.54367091986E+02  0.40000017801E+02 0.  0.
        -12    1    3    3    0    0  0.48747941756E+00 -0.12288328215E+02 -0.34706463670E+02  0.36820908014E+02  0.00000000000E+00 0.  1.
         11    1    4    4    0    0  0.61997812385E+00  0.23064819707E+01  0.26632040947E+02  0.26738919896E+02  0.51100000000E-03 0. -1.
        -11    1    4    4    0    0  0.11339838780E+02  0.16931614181E+01  0.33402214958E+01  0.11942186527E+02  0.51100000000E-03 0.  1.
        -12    1    4    4    0    0 -0.12447296321E+02  0.82886848259E+01  0.47342012276E+01  0.15685985564E+02  0.00000000000E+00 0.  1.
</event>
<event>
 8    1  0.1253703E-006  0.9118800E+02  0.7816164E-02  0.1184000E+00
        -11   -1    0    0    0    0  0.00000000000E+00  0.00000000000E+00  0.45593999997E+02  0.45594000000E+02  0.51100000000E-03 0. -1.
         11   -1    0    0    0    0 -0.00000000000E+00 -0.00000000000E+00 -0.45593999997E+02  0.45594000000E+02  0.51100000000E-03 0.  1.
         23    2    1    2    0    0  0.88817841970E-15 -0.35527136788E-14 -0.71054273576E-14  0.91188000000E+02  0.91188000000E+02 0.  0.
    9900012    2    3    3    0    0 -0.72659677100E+01  0.10340373720E+02  0.34584178998E+02  0.54367040583E+02  0.39999900617E+02 0.  0.
        -12    1    3    3    0    0  0.72659677100E+01 -0.10340373720E+02 -0.34584178998E+02  0.36820959417E+02  0.00000000000E+00 0.  1.
         11    1    4    4    0    0 -0.55370404314E+01  0.21028316542E+02  0.21105294198E+02  0.30303174038E+02  0.51100000000E-03 0. -1.
        -11    1    4    4    0    0 -0.58846684648E+01 -0.27593193273E+01  0.13641453606E+02  0.15110672481E+02  0.51100000000E-03 0.  1.
        -12    1    4    4    0    0  0.41557411861E+01 -0.79286234947E+01 -0.16256880552E+00  0.89531940637E+01  0.00000000000E+00 0.  1.
</event>
<event>
 8    1  0.1253703E-006  0.9118800E+02  0.7816164E-02  0.1184000E+00
        -11   -1    0    0    0    0  0.00000000000E+00  0.00000000000E+00  0.45593999997E+02  0.45594000000E+02  0.51100000000E-03 0.  1.
         11   -1    0    0    0    0 -0.00000000000E+00 -0.00000000000E+00 -0.45593999997E+02  0.45594000000E+02  0.51100000000E-03 0. -1.
         23    2    1    2    0    0 -0.17763568394E-14  0.00000000000E+00  0.35527136788E-14  0.91188000000E+02  0.91188000000E+02 0.  0.
    9900012    2    3    3    0    0 -0.15190390604E+02  0.27177164525E+02  0.19657851959E+02  0.54367117583E+02  0.40000076153E+02 0.  0.
         12    1    3    3    0    0  0.15190390604E+02 -0.27177164525E+02 -0.19657851959E+02  0.36820882417E+02  0.00000000000E+00 0. -1.
         11    1    4    4    0    0  0.29294541636E+01  0.12151302047E+02  0.21235540936E+02  0.24641104729E+02  0.51100000000E-03 0. -1.
        -11    1    4    4    0    0 -0.95887779261E+01  0.64912309659E+01  0.82049085336E+01  0.14191591379E+02  0.51100000000E-03 0.  1.
        -12    1    4    4    0    0 -0.85310668413E+01  0.85346315122E+01 -0.97825975105E+01  0.15534421475E+02  0.00000000000E+00 0.  1.
</event>
<event>
 8    1  0.1253703E-006  0.9118800E+02  0.7816164E-02  0.1184000E+00
        -11   -1    0    0    0    0  0.00000000000E+00  0.00000000000E+00  0.45593999997E+02  0.45594000000E+02  0.51100000000E-03 0.  1.
         11   -1    0    0    0    0 -0.00000000000E+00 -0.00000000000E+00 -0.45593999997E+02  0.45594000000E+02  0.51100000000E-03 0. -1.
         23    2    1    2    0    0 -0.13322676296E-14  0.00000000000E+00  0.00000000000E+00  0.91188000000E+02  0.91188000000E+02 0.  0.
    9900012    2    3    3    0    0 -0.22800821804E+01  0.30522682436E+02  0.20468176065E+02  0.54367093585E+02  0.40000021445E+02 0.  0.
         12    1    3    3    0    0  0.22800821804E+01 -0.30522682436E+02 -0.20468176065E+02  0.36820906415E+02  0.00000000000E+00 0. -1.
         11    1    4    4    0    0 -0.52587986872E+01  0.31161010582E+02  0.20195013085E+02  0.37503361154E+02  0.51100000000E-03 0. -1.
        -11    1    4    4    0    0  0.71587618662E+01 -0.50788260513E+01  0.40751210364E+01  0.96772391331E+01  0.51100000000E-03 0.  1.
         12    1    4    4    0    0 -0.41800453594E+01  0.44404979050E+01 -0.38019580560E+01  0.71864932972E+01  0.00000000000E+00 0. -1.
</event>
<event>
 8    1  0.1253703E-006  0.9118800E+02  0.7816164E-02  0.1184000E+00
        -11   -1    0    0    0    0  0.00000000000E+00  0.00000000000E+00  0.45593999997E+02  0.45594000000E+02  0.51100000000E-03 0.  1.
         11   -1    0    0    0    0 -0.00000000000E+00 -0.00000000000E+00 -0.45593999997E+02  0.45594000000E+02  0.51100000000E-03 0. -1.
         23    2    1    2    0    0  0.46074255522E-14  0.71054273576E-14 -0.17763568394E-14  0.91188000000E+02  0.91188000000E+02 0.  0.
    9900012    2    3    3    0    0 -0.46869269188E+00 -0.33647349821E+02 -0.14947099956E+02  0.54367087193E+02  0.40000006875E+02 0.  0.
        -12    1    3    3    0    0  0.46869269188E+00  0.33647349821E+02  0.14947099956E+02  0.36820912807E+02  0.00000000000E+00 0.  1.
         11    1    4    4    0    0 -0.17477391915E+02 -0.78975179065E+01 -0.80580945281E+01  0.20802954235E+02  0.51100000000E-03 0. -1.
        -11    1    4    4    0    0  0.17055696313E+02 -0.21625706749E+02 -0.26815683362E+01  0.27672346812E+02  0.51100000000E-03 0.  1.
         12    1    4    4    0    0 -0.46997090013E-01 -0.41241251658E+01 -0.42074370917E+01  0.58917861460E+01  0.00000000000E+00 0. -1.
</event>
<event>
 8    1  0.1253703E-006  0.9118800E+02  0.7816164E-02  0.1184000E+00
        -11   -1    0    0    0    0  0.00000000000E+00  0.00000000000E+00  0.45593999997E+02  0.45594000000E+02  0.51100000000E-03 0. -1.
         11   -1    0    0    0    0 -0.00000000000E+00 -0.00000000000E+00 -0.45593999997E+02  0.45594000000E+02  0.51100000000E-03 0.  1.
         23    2    1    2    0    0 -0.71054273576E-14 -0.17763568394E-14 -0.35527136788E-14  0.91188000000E+02  0.91188000000E+02 0.  0.
    9900012    2    3    3    0    0 -0.33537866968E+02 -0.44269808582E+01 -0.14539409424E+02  0.54367067004E+02  0.39999960849E+02 0.  0.
        -12    1    3    3    0    0  0.33537866968E+02  0.44269808582E+01  0.14539409424E+02  0.36820932996E+02  0.00000000000E+00 0.  1.
         11    1    4    4    0    0 -0.10052346982E+02 -0.10861439195E+02  0.89798386310E+01  0.17310633822E+02  0.51100000000E-03 0.  1.
        -11    1    4    4    0    0 -0.69303821444E+01  0.54541979848E+01 -0.69942867960E+00  0.88469018907E+01  0.51100000000E-03 0. -1.
        -12    1    4    4    0    0 -0.16555137842E+02  0.98026035185E+00 -0.22819819375E+02  0.28209531291E+02  0.00000000000E+00 0.  1.
</event>
<event>
 8    1  0.1253703E-006  0.9118800E+02  0.7816164E-02  0.1184000E+00
        -11   -1    0    0    0    0  0.00000000000E+00  0.00000000000E+00  0.45593999997E+02  0.45594000000E+02  0.51100000000E-03 0. -1.
         11   -1    0    0    0    0 -0.00000000000E+00 -0.00000000000E+00 -0.45593999997E+02  0.45594000000E+02  0.51100000000E-03 0.  1.
         23    2    1    2    0    0  0.00000000000E+00  0.00000000000E+00  0.00000000000E+00  0.91188000000E+02  0.91188000000E+02 0.  0.
    9900012    2    3    3    0    0 -0.24055433568E+02 -0.20718771880E+02  0.18650683641E+02  0.54367090279E+02  0.40000013910E+02 0.  0.
         12    1    3    3    0    0  0.24055433568E+02  0.20718771880E+02 -0.18650683641E+02  0.36820909721E+02  0.00000000000E+00 0. -1.
         11    1    4    4    0    0 -0.52913790909E+01  0.82692484868E+01  0.15507695111E+02  0.18353957915E+02  0.51100000000E-03 0. -1.
        -11    1    4    4    0    0 -0.14660611187E+02 -0.26483771491E+02  0.53219767581E+01  0.30735112000E+02  0.51100000000E-03 0.  1.
        -12    1    4    4    0    0 -0.41034432906E+01 -0.25042488761E+01 -0.21789882285E+01  0.52780203649E+01  0.00000000000E+00 0.  1.
</event>
<event>
 8    1  0.1253703E-006  0.9118800E+02  0.7816164E-02  0.1184000E+00
        -11   -1    0    0    0    0  0.00000000000E+00  0.00000000000E+00  0.45593999997E+02  0.45594000000E+02  0.51100000000E-03 0.  1.
         11   -1    0    0    0    0 -0.00000000000E+00 -0.00000000000E+00 -0.45593999997E+02  0.45594000000E+02  0.51100000000E-03 0. -1.
         23    2    1    2    0    0 -0.35527136788E-14  0.00000000000E+00  0.35527136788E-14  0.91188000000E+02  0.91188000000E+02 0.  0.
    9900012    2    3    3    0    0  0.18045321475E+02 -0.10956724095E+02 -0.30167805125E+02  0.54367083443E+02  0.39999998325E+02 0.  0.
        -12    1    3    3    0    0 -0.18045321475E+02  0.10956724095E+02  0.30167805125E+02  0.36820916557E+02  0.00000000000E+00 0.  1.
         11    1    4    4    0    0 -0.24263908700E+01 -0.10604215693E+02 -0.19786649403E+02  0.22579819707E+02  0.51100000000E-03 0. -1.
        -11    1    4    4    0    0  0.21602300076E+02 -0.73596501874E+01 -0.91299048639E+01  0.24580052534E+02  0.51100000000E-03 0.  1.
        -12    1    4    4    0    0 -0.11305877313E+01  0.70071417850E+01 -0.12512508576E+01  0.72072112028E+01  0.00000000000E+00 0.  1.
</event>
<event>
 8    1  0.1253703E-006  0.9118800E+02  0.7816164E-02  0.1184000E+00
        -11   -1    0    0    0    0  0.00000000000E+00  0.00000000000E+00  0.45593999997E+02  0.45594000000E+02  0.51100000000E-03 0.  1.
         11   -1    0    0    0    0 -0.00000000000E+00 -0.00000000000E+00 -0.45593999997E+02  0.45594000000E+02  0.51100000000E-03 0. -1.
         23    2    1    2    0    0 -0.35527136788E-14  0.35527136788E-14  0.17763568394E-14  0.91188000000E+02  0.91188000000E+02 0.  0.
    9900012    2    3    3    0    0  0.27248226686E+02 -0.23142282324E+02 -0.88174809418E+01  0.54367094812E+02  0.40000024243E+02 0.  0.
        -12    1    3    3    0    0 -0.27248226686E+02  0.23142282324E+02  0.88174809418E+01  0.36820905188E+02  0.00000000000E+00 0.  1.
         11    1    4    4    0    0  0.53003779547E+00  0.49005100580E+01 -0.16983957034E+01  0.52134908765E+01  0.51100000000E-03 0.  1.
        -11    1    4    4    0    0  0.72559635173E+01  0.23870207334E+01 -0.10377456071E+02  0.12885591539E+02  0.51100000000E-03 0. -1.
         12    1    4    4    0    0  0.19462225373E+02 -0.30429813116E+02  0.32583708324E+01  0.36268012397E+02  0.00000000000E+00 0. -1.
</event>
<event>
 8    1  0.1253703E-006  0.9118800E+02  0.7816164E-02  0.1184000E+00
        -11   -1    0    0    0    0  0.00000000000E+00  0.00000000000E+00  0.45593999997E+02  0.45594000000E+02  0.51100000000E-03 0. -1.
         11   -1    0    0    0    0 -0.00000000000E+00 -0.00000000000E+00 -0.45593999997E+02  0.45594000000E+02  0.51100000000E-03 0.  1.
         23    2    1    2    0    0  0.71054273576E-14  0.00000000000E+00  0.00000000000E+00  0.91188000000E+02  0.91188000000E+02 0.  0.
    9900012    2    3    3    0    0 -0.32263949732E+02  0.14844398526E+02  0.97190535339E+01  0.54367100751E+02  0.40000037782E+02 0.  0.
        -12    1    3    3    0    0  0.32263949732E+02 -0.14844398526E+02 -0.97190535339E+01  0.36820899249E+02  0.00000000000E+00 0.  1.
         11    1    4    4    0    0 -0.27589428469E+01  0.32755153776E+00  0.72800572221E+01  0.77921941108E+01  0.51100000000E-03 0. -1.
        -11    1    4    4    0    0 -0.17647938889E+01  0.69006074047E+01  0.13892404266E+02  0.15611911368E+02  0.51100000000E-03 0.  1.
        -12    1    4    4    0    0 -0.27740212996E+02  0.76162395832E+01 -0.11453407954E+02  0.30962995272E+02  0.00000000000E+00 0.  1.
</event>
<event>
 8    1  0.1253703E-006  0.9118800E+02  0.7816164E-02  0.1184000E+00
        -11   -1    0    0    0    0  0.00000000000E+00  0.00000000000E+00  0.45593999997E+02  0.45594000000E+02  0.51100000000E-03 0. -1.
         11   -1    0    0    0    0 -0.00000000000E+00 -0.00000000000E+00 -0.45593999997E+02  0.45594000000E+02  0.51100000000E-03 0.  1.
         23    2    1    2    0    0 -0.17763568394E-14  0.35527136788E-14  0.35527136788E-14  0.91188000000E+02  0.91188000000E+02 0.  0.
    9900012    2    3    3    0    0  0.74178623281E+01  0.25313587793E+02  0.25690022883E+02  0.54367086320E+02  0.40000004884E+02 0.  0.
        -12    1    3    3    0    0 -0.74178623281E+01 -0.25313587793E+02 -0.25690022883E+02  0.36820913680E+02  0.00000000000E+00 0.  1.
         11    1    4    4    0    0  0.11052753063E+02  0.96692931761E+01 -0.16639151903E+01  0.14779282622E+02  0.51100000000E-03 0.  1.
        -11    1    4    4    0    0  0.89223199890E+01  0.11885763536E+02  0.18676225434E+02  0.23867982017E+02  0.51100000000E-03 0. -1.
         12    1    4    4    0    0 -0.12557210724E+02  0.37585310812E+01  0.86777126389E+01  0.15719821682E+02  0.00000000000E+00 0. -1.
</event>
<event>
 8    1  0.1253703E-006  0.9118800E+02  0.7816164E-02  0.1184000E+00
        -11   -1    0    0    0    0  0.00000000000E+00  0.00000000000E+00  0.45593999997E+02  0.45594000000E+02  0.51100000000E-03 0. -1.
         11   -1    0    0    0    0 -0.00000000000E+00 -0.00000000000E+00 -0.45593999997E+02  0.45594000000E+02  0.51100000000E-03 0.  1.
         23    2    1    2    0    0  0.00000000000E+00  0.00000000000E+00  0.35527136788E-14  0.91188000000E+02  0.91188000000E+02 0.  0.
    9900012    2    3    3    0    0  0.23098712258E+02  0.12562083997E+02  0.25776376115E+02  0.54367108811E+02  0.40000056157E+02 0.  0.
         12    1    3    3    0    0 -0.23098712258E+02 -0.12562083997E+02 -0.25776376115E+02  0.36820891189E+02  0.00000000000E+00 0. -1.
         11    1    4    4    0    0  0.13684710074E+02  0.70643810340E+01  0.12767667304E+02  0.20004751881E+02  0.51100000000E-03 0. -1.
        -11    1    4    4    0    0 -0.53930258824E+01  0.19437951903E+01 -0.71083658007E+01  0.91319183378E+01  0.51100000000E-03 0.  1.
        -12    1    4    4    0    0  0.14807028067E+02  0.35539077731E+01  0.20117074612E+02  0.25230438592E+02  0.00000000000E+00 0.  1.
</event>
<event>
 8    1  0.1253703E-006  0.9118800E+02  0.7816164E-02  0.1184000E+00
        -11   -1    0    0    0    0  0.00000000000E+00  0.00000000000E+00  0.45593999997E+02  0.45594000000E+02  0.51100000000E-03 0. -1.
         11   -1    0    0    0    0 -0.00000000000E+00 -0.00000000000E+00 -0.45593999997E+02  0.45594000000E+02  0.51100000000E-03 0.  1.
         23    2    1    2    0    0  0.17763568394E-14  0.00000000000E+00  0.35527136788E-14  0.91188000000E+02  0.91188000000E+02 0.  0.
    9900012    2    3    3    0    0  0.11916076934E+02  0.19762214088E+02  0.28692179145E+02  0.54367093721E+02  0.40000021755E+02 0.  0.
        -12    1    3    3    0    0 -0.11916076934E+02 -0.19762214088E+02 -0.28692179145E+02  0.36820906279E+02  0.00000000000E+00 0.  1.
         11    1    4    4    0    0  0.14788993895E+02  0.12237961139E+02  0.80590236455E+01  0.20818979217E+02  0.51100000000E-03 0. -1.
        -11    1    4    4    0    0  0.24983331160E+01 -0.10693831971E+01 -0.51620048436E+01  0.58336560618E+01  0.51100000000E-03 0.  1.
         12    1    4    4    0    0 -0.53712500772E+01  0.85936361463E+01  0.25795160343E+02  0.27714458442E+02  0.00000000000E+00 0. -1.
</event>
<event>
 8    1  0.1253703E-006  0.9118800E+02  0.7816164E-02  0.1184000E+00
        -11   -1    0    0    0    0  0.00000000000E+00  0.00000000000E+00  0.45593999997E+02  0.45594000000E+02  0.51100000000E-03 0.  1.
         11   -1    0    0    0    0 -0.00000000000E+00 -0.00000000000E+00 -0.45593999997E+02  0.45594000000E+02  0.51100000000E-03 0. -1.
         23    2    1    2    0    0 -0.17763568394E-14  0.00000000000E+00  0.17763568394E-14  0.91188000000E+02  0.91188000000E+02 0.  0.
    9900012    2    3    3    0    0 -0.13501439482E+02 -0.32841475442E+02  0.97431222283E+01  0.54367084638E+02  0.40000001050E+02 0.  0.
        -12    1    3    3    0    0  0.13501439482E+02  0.32841475442E+02 -0.97431222283E+01  0.36820915362E+02  0.00000000000E+00 0.  1.
         11    1    4    4    0    0 -0.41852032525E+01 -0.97136528095E+01 -0.12436167136E+02  0.16325722969E+02  0.51100000000E-03 0. -1.
        -11    1    4    4    0    0 -0.64809208641E+00  0.13245576838E+01  0.86641887063E+01  0.87887793584E+01  0.51100000000E-03 0.  1.
        -12    1    4    4    0    0 -0.86681441431E+01 -0.24452380317E+02  0.13515100658E+02  0.29252582311E+02  0.00000000000E+00 0.  1.
</event>
<event>
 8    1  0.1253703E-006  0.9118800E+02  0.7816164E-02  0.1184000E+00
        -11   -1    0    0    0    0  0.00000000000E+00  0.00000000000E+00  0.45593999997E+02  0.45594000000E+02  0.51100000000E-03 0.  1.
         11   -1    0    0    0    0 -0.00000000000E+00 -0.00000000000E+00 -0.45593999997E+02  0.45594000000E+02  0.51100000000E-03 0. -1.
         23    2    1    2    0    0  0.00000000000E+00 -0.88817841970E-15  0.00000000000E+00  0.91188000000E+02  0.91188000000E+02 0.  0.
    9900012    2    3    3    0    0 -0.29802292374E+02 -0.76559857985E+01 -0.20223477801E+02  0.54367084698E+02  0.40000001187E+02 0.  0.
        -12    1    3    3    0    0  0.29802292374E+02  0.76559857985E+01  0.20223477801E+02  0.36820915302E+02  0.00000000000E+00 0.  1.
         11    1    4    4    0    0 -0.17397366245E+02 -0.84408643682E+01 -0.22426630326E+02  0.29611995738E+02  0.51100000000E-03 0. -1.
        -11    1    4    4    0    0  0.58360473018E+01 -0.20655952860E+01  0.73931907525E+00  0.62347995116E+01  0.51100000000E-03 0.  1.
        -12    1    4    4    0    0 -0.18240973430E+02  0.28504738557E+01  0.14638334496E+01  0.18520289449E+02  0.00000000000E+00 0.  1.
</event>
<event>
 8    1  0.1253703E-006  0.9118800E+02  0.7816164E-02  0.1184000E+00
        -11   -1    0    0    0    0  0.00000000000E+00  0.00000000000E+00  0.45593999997E+02  0.45594000000E+02  0.51100000000E-03 0.  1.
         11   -1    0    0    0    0 -0.00000000000E+00 -0.00000000000E+00 -0.45593999997E+02  0.45594000000E+02  0.51100000000E-03 0. -1.
         23    2    1    2    0    0 -0.35527136788E-14  0.35527136788E-14 -0.88817841970E-15  0.91188000000E+02  0.91188000000E+02 0.  0.
    9900012    2    3    3    0    0 -0.18465063579E+02  0.31218702643E+02 -0.63414857261E+01  0.54367076480E+02  0.39999982451E+02 0.  0.
         12    1    3    3    0    0  0.18465063579E+02 -0.31218702643E+02  0.63414857261E+01  0.36820923520E+02  0.00000000000E+00 0. -1.
         11    1    4    4    0    0  0.83907718578E+01  0.84612292708E+01 -0.76304287630E+01  0.14149943340E+02  0.51100000000E-03 0. -1.
        -11    1    4    4    0    0 -0.27734077733E+02  0.24566276742E+02 -0.11358301893E+01  0.37067116575E+02  0.51100000000E-03 0.  1.
         12    1    4    4    0    0  0.87824229679E+00 -0.18088033705E+01  0.24247732262E+01  0.31500165656E+01  0.00000000000E+00 0. -1.
</event>
<event>
 8    1  0.1253703E-006  0.9118800E+02  0.7816164E-02  0.1184000E+00
        -11   -1    0    0    0    0  0.00000000000E+00  0.00000000000E+00  0.45593999997E+02  0.45594000000E+02  0.51100000000E-03 0. -1.
         11   -1    0    0    0    0 -0.00000000000E+00 -0.00000000000E+00 -0.45593999997E+02  0.45594000000E+02  0.51100000000E-03 0.  1.
         23    2    1    2    0    0 -0.35527136788E-14  0.35527136788E-14  0.00000000000E+00  0.91188000000E+02  0.91188000000E+02 0.  0.
    9900012    2    3    3    0    0 -0.29575200410E+02  0.19700287079E+02  0.96429056217E+01  0.54367089920E+02  0.40000013092E+02 0.  0.
        -12    1    3    3    0    0  0.29575200410E+02 -0.19700287079E+02 -0.96429056217E+01  0.36820910080E+02  0.00000000000E+00 0.  1.
         11    1    4    4    0    0 -0.33311144466E+01 -0.39523460926E+01  0.37308834925E+01  0.63747043059E+01  0.51100000000E-03 0. -1.
        -11    1    4    4    0    0 -0.30381017536E+02  0.28206407368E+02  0.46981939251E+01  0.41721465333E+02  0.51100000000E-03 0.  1.
        -12    1    4    4    0    0  0.41369315726E+01 -0.45537741965E+01  0.12138282041E+01  0.62709202816E+01  0.00000000000E+00 0.  1.
</event>
<event>
 8    1  0.1253703E-006  0.9118800E+02  0.7816164E-02  0.1184000E+00
        -11   -1    0    0    0    0  0.00000000000E+00  0.00000000000E+00  0.45593999997E+02  0.45594000000E+02  0.51100000000E-03 0.  1.
         11   -1    0    0    0    0 -0.00000000000E+00 -0.00000000000E+00 -0.45593999997E+02  0.45594000000E+02  0.51100000000E-03 0. -1.
         23    2    1    2    0    0  0.00000000000E+00  0.00000000000E+00  0.17763568394E-14  0.91188000000E+02  0.91188000000E+02 0.  0.
    9900012    2    3    3    0    0  0.28778235250E+02 -0.22452407528E+02  0.48458539405E+01  0.54367085721E+02  0.40000003518E+02 0.  0.
        -12    1    3    3    0    0 -0.28778235250E+02  0.22452407528E+02 -0.48458539405E+01  0.36820914279E+02  0.00000000000E+00 0.  1.
         11    1    4    4    0    0  0.20219797986E+02 -0.14086306087E+02  0.16059364385E+02  0.29413728674E+02  0.51100000000E-03 0. -1.
        -11    1    4    4    0    0  0.22594254015E+01  0.26817768560E+01  0.38710741985E+01  0.52232313716E+01  0.51100000000E-03 0.  1.
        -12    1    4    4    0    0  0.62990118626E+01 -0.11047878297E+02 -0.15084584643E+02  0.19730125676E+02  0.00000000000E+00 0.  1.
</event>
<event>
 8    1  0.1253703E-006  0.9118800E+02  0.7816164E-02  0.1184000E+00
        -11   -1    0    0    0    0  0.00000000000E+00  0.00000000000E+00  0.45593999997E+02  0.45594000000E+02  0.51100000000E-03 0.  1.
         11   -1    0    0    0    0 -0.00000000000E+00 -0.00000000000E+00 -0.45593999997E+02  0.45594000000E+02  0.51100000000E-03 0. -1.
         23    2    1    2    0    0  0.17763568394E-14  0.00000000000E+00  0.35527136788E-14  0.91188000000E+02  0.91188000000E+02 0.  0.
    9900012    2    3    3    0    0  0.14863829012E+02  0.14039848311E+02  0.30622407364E+02  0.54367046912E+02  0.39999915046E+02 0.  0.
         12    1    3    3    0    0 -0.14863829012E+02 -0.14039848311E+02 -0.30622407364E+02  0.36820953088E+02  0.00000000000E+00 0. -1.
         11    1    4    4    0    0  0.42469373574E+01  0.46671090481E+01 -0.96306198017E+00  0.63832493625E+01  0.51100000000E-03 0. -1.
        -11    1    4    4    0    0  0.20526151055E+02  0.96081258152E+01  0.11120781859E+02  0.25245014324E+02  0.51100000000E-03 0.  1.
         12    1    4    4    0    0 -0.99092594003E+01 -0.23538655224E+00  0.20464687485E+02  0.22738783225E+02  0.00000000000E+00 0. -1.
</event>
<event>
 8    1  0.1253703E-006  0.9118800E+02  0.7816164E-02  0.1184000E+00
        -11   -1    0    0    0    0  0.00000000000E+00  0.00000000000E+00  0.45593999997E+02  0.45594000000E+02  0.51100000000E-03 0. -1.
         11   -1    0    0    0    0 -0.00000000000E+00 -0.00000000000E+00 -0.45593999997E+02  0.45594000000E+02  0.51100000000E-03 0.  1.
         23    2    1    2    0    0 -0.35527136788E-14 -0.71054273576E-14  0.17763568394E-14  0.91188000000E+02  0.91188000000E+02 0.  0.
    9900012    2    3    3    0    0  0.16204801988E+02  0.30612331446E+02 -0.12492788256E+02  0.54367079283E+02  0.39999988842E+02 0.  0.
         12    1    3    3    0    0 -0.16204801988E+02 -0.30612331446E+02  0.12492788256E+02  0.36820920717E+02  0.00000000000E+00 0. -1.
         11    1    4    4    0    0  0.59142557704E+01 -0.43088991922E+01  0.81849995997E+01  0.10979036947E+02  0.51100000000E-03 0. -1.
        -11    1    4    4    0    0 -0.13351732654E+01  0.70921352522E+01 -0.78663276888E+00  0.72594670231E+01  0.51100000000E-03 0.  1.
        -12    1    4    4    0    0  0.11625719483E+02  0.27829095386E+02 -0.19891155087E+02  0.36128575313E+02  0.00000000000E+00 0.  1.
</event>
<event>
 8    1  0.1253703E-006  0.9118800E+02  0.7816164E-02  0.1184000E+00
        -11   -1    0    0    0    0  0.00000000000E+00  0.00000000000E+00  0.45593999997E+02  0.45594000000E+02  0.51100000000E-03 0. -1.
         11   -1    0    0    0    0 -0.00000000000E+00 -0.00000000000E+00 -0.45593999997E+02  0.45594000000E+02  0.51100000000E-03 0.  1.
         23    2    1    2    0    0  0.00000000000E+00  0.17763568394E-14  0.00000000000E+00  0.91188000000E+02  0.91188000000E+02 0.  0.
    9900012    2    3    3    0    0  0.34760069464E+02 -0.79732838806E+01  0.91620819113E+01  0.54367089773E+02  0.40000012755E+02 0.  0.
        -12    1    3    3    0    0 -0.34760069464E+02  0.79732838806E+01 -0.91620819113E+01  0.36820910227E+02  0.00000000000E+00 0.  1.
         11    1    4    4    0    0  0.30737837878E+01 -0.65301255714E+01  0.46138902290E+01  0.85661350713E+01  0.51100000000E-03 0. -1.
        -11    1    4    4    0    0  0.42171935630E+00 -0.10923370380E+02 -0.46213987424E+01  0.11868243100E+02  0.51100000000E-03 0.  1.
        -12    1    4    4    0    0  0.31264566320E+02  0.94802120707E+01  0.91695904247E+01  0.33932711602E+02  0.00000000000E+00 0.  1.
</event>
<event>
 8    1  0.1253703E-006  0.9118800E+02  0.7816164E-02  0.1184000E+00
        -11   -1    0    0    0    0  0.00000000000E+00  0.00000000000E+00  0.45593999997E+02  0.45594000000E+02  0.51100000000E-03 0.  1.
         11   -1    0    0    0    0 -0.00000000000E+00 -0.00000000000E+00 -0.45593999997E+02  0.45594000000E+02  0.51100000000E-03 0. -1.
         23    2    1    2    0    0 -0.71054273576E-14 -0.71054273576E-14  0.88817841970E-15  0.91188000000E+02  0.91188000000E+02 0.  0.
    9900012    2    3    3    0    0  0.24683850061E+02  0.26374213520E+02 -0.71337097429E+01  0.54367062921E+02  0.39999951542E+02 0.  0.
        -12    1    3    3    0    0 -0.24683850061E+02 -0.26374213520E+02  0.71337097429E+01  0.36820937079E+02  0.00000000000E+00 0.  1.
         11    1    4    4    0    0  0.42171125842E+01  0.63000599594E+01  0.91622283168E-01  0.75817668748E+01  0.51100000000E-03 0. -1.
        -11    1    4    4    0    0  0.30220386827E+01  0.26429753976E+02 -0.91214407658E+01  0.28122327338E+02  0.51100000000E-03 0.  1.
         12    1    4    4    0    0  0.17444698794E+02 -0.63556004148E+01  0.18961087397E+01  0.18662968708E+02  0.00000000000E+00 0. -1.
</event>
<event>
 8    1  0.1253703E-006  0.9118800E+02  0.7816164E-02  0.1184000E+00
        -11   -1    0    0    0    0  0.00000000000E+00  0.00000000000E+00  0.45593999997E+02  0.45594000000E+02  0.51100000000E-03 0. -1.
         11   -1    0    0    0    0 -0.00000000000E+00 -0.00000000000E+00 -0.45593999997E+02  0.45594000000E+02  0.51100000000E-03 0.  1.
         23    2    1    2    0    0  0.00000000000E+00 -0.88817841970E-15  0.00000000000E+00  0.91188000000E+02  0.91188000000E+02 0.  0.
    9900012    2    3    3    0    0 -0.21563844086E+02 -0.69981709671E+01 -0.29013894045E+02  0.54367084527E+02  0.40000000796E+02 0.  0.
         12    1    3    3    0    0  0.21563844086E+02  0.69981709671E+01  0.29013894045E+02  0.36820915473E+02  0.00000000000E+00 0. -1.
         11    1    4    4    0    0  0.77691295985E+01  0.46898235481E+01 -0.34481487890E+01  0.97079117200E+01  0.51100000000E-03 0. -1.
        -11    1    4    4    0    0 -0.10755372767E+02 -0.14098771538E+02 -0.14461415219E+02  0.22882000188E+02  0.51100000000E-03 0.  1.
         12    1    4    4    0    0 -0.18577600917E+02  0.24107770223E+01 -0.11104330037E+02  0.21777172618E+02  0.00000000000E+00 0. -1.
</event>
<event>
 8    1  0.1253703E-006  0.9118800E+02  0.7816164E-02  0.1184000E+00
        -11   -1    0    0    0    0  0.00000000000E+00  0.00000000000E+00  0.45593999997E+02  0.45594000000E+02  0.51100000000E-03 0. -1.
         11   -1    0    0    0    0 -0.00000000000E+00 -0.00000000000E+00 -0.45593999997E+02  0.45594000000E+02  0.51100000000E-03 0.  1.
         23    2    1    2    0    0  0.11102230246E-14  0.17763568394E-14  0.00000000000E+00  0.91188000000E+02  0.91188000000E+02 0.  0.
    9900012    2    3    3    0    0 -0.13712696815E+01 -0.15796923529E+02 -0.33231854574E+02  0.54367091104E+02  0.40000015790E+02 0.  0.
         12    1    3    3    0    0  0.13712696815E+01  0.15796923529E+02  0.33231854574E+02  0.36820908896E+02  0.00000000000E+00 0. -1.
         11    1    4    4    0    0  0.94574060878E+01 -0.11773139884E+02 -0.24494678707E+02  0.28775660512E+02  0.51100000000E-03 0. -1.
        -11    1    4    4    0    0  0.33914593270E+01 -0.53134221489E+01 -0.93767954348E+01  0.11298616915E+02  0.51100000000E-03 0.  1.
         12    1    4    4    0    0 -0.14220135096E+02  0.12896385044E+01  0.63961956870E+00  0.14292813678E+02  0.00000000000E+00 0. -1.
</event>
<event>
 8    1  0.1253703E-006  0.9118800E+02  0.7816164E-02  0.1184000E+00
        -11   -1    0    0    0    0  0.00000000000E+00  0.00000000000E+00  0.45593999997E+02  0.45594000000E+02  0.51100000000E-03 0.  1.
         11   -1    0    0    0    0 -0.00000000000E+00 -0.00000000000E+00 -0.45593999997E+02  0.45594000000E+02  0.51100000000E-03 0. -1.
         23    2    1    2    0    0  0.00000000000E+00  0.71054273576E-14  0.00000000000E+00  0.91188000000E+02  0.91188000000E+02 0.  0.
    9900012    2    3    3    0    0 -0.16192149820E+02  0.31817360366E+02  0.90139253583E+01  0.54367068632E+02  0.39999964560E+02 0.  0.
         12    1    3    3    0    0  0.16192149820E+02 -0.31817360366E+02 -0.90139253583E+01  0.36820931368E+02  0.00000000000E+00 0. -1.
         11    1    4    4    0    0 -0.76283663395E+01  0.14161120318E+02 -0.12209438968E+02  0.20194051150E+02  0.51100000000E-03 0. -1.
        -11    1    4    4    0    0 -0.45933059672E+01 -0.78299372978E+00  0.12598876108E+02  0.13432915481E+02  0.51100000000E-03 0.  1.
        -12    1    4    4    0    0 -0.39704775137E+01  0.18439233777E+02  0.86244882183E+01  0.20740102001E+02  0.00000000000E+00 0.  1.
</event>
<event>
 8    1  0.1253703E-006  0.9118800E+02  0.7816164E-02  0.1184000E+00
        -11   -1    0    0    0    0  0.00000000000E+00  0.00000000000E+00  0.45593999997E+02  0.45594000000E+02  0.51100000000E-03 0.  1.
         11   -1    0    0    0    0 -0.00000000000E+00 -0.00000000000E+00 -0.45593999997E+02  0.45594000000E+02  0.51100000000E-03 0. -1.
         23    2    1    2    0    0  0.35527136788E-14  0.00000000000E+00  0.35527136788E-14  0.91188000000E+02  0.91188000000E+02 0.  0.
    9900012    2    3    3    0    0 -0.31288670629E+02  0.15174246930E+02 -0.12105420020E+02  0.54367083750E+02  0.39999999024E+02 0.  0.
        -12    1    3    3    0    0  0.31288670629E+02 -0.15174246930E+02  0.12105420020E+02  0.36820916250E+02  0.00000000000E+00 0.  1.
         11    1    4    4    0    0 -0.13657274448E+01  0.56931801152E+01  0.27666363565E+01  0.64754759105E+01  0.51100000000E-03 0. -1.
        -11    1    4    4    0    0  0.53196793390E+01  0.69501006653E-01 -0.96808800519E+01  0.11046413785E+02  0.51100000000E-03 0.  1.
         12    1    4    4    0    0 -0.35242622523E+02  0.94115658084E+01 -0.51911763245E+01  0.36845194055E+02  0.00000000000E+00 0. -1.
</event>
<event>
 8    1  0.1253703E-006  0.9118800E+02  0.7816164E-02  0.1184000E+00
        -11   -1    0    0    0    0  0.00000000000E+00  0.00000000000E+00  0.45593999997E+02  0.45594000000E+02  0.51100000000E-03 0. -1.
         11   -1    0    0    0    0 -0.00000000000E+00 -0.00000000000E+00 -0.45593999997E+02  0.45594000000E+02  0.51100000000E-03 0.  1.
         23    2    1    2    0    0 -0.17763568394E-14  0.35527136788E-14 -0.35527136788E-14  0.91188000000E+02  0.91188000000E+02 0.  0.
    9900012    2    3    3    0    0  0.14423868459E+02  0.23844483294E+02 -0.24065951481E+02  0.54367117534E+02  0.40000076041E+02 0.  0.
         12    1    3    3    0    0 -0.14423868459E+02 -0.23844483294E+02  0.24065951481E+02  0.36820882466E+02  0.00000000000E+00 0. -1.
         11    1    4    4    0    0 -0.39912806283E+01 -0.60542613449E+01 -0.83350104323E+01  0.11047931963E+02  0.51100000000E-03 0. -1.
        -11    1    4    4    0    0  0.31029687502E+01  0.72814191681E+01 -0.13836567530E+02  0.15940454242E+02  0.51100000000E-03 0.  1.
        -12    1    4    4    0    0  0.15312180337E+02  0.22617325471E+02 -0.18943735188E+01  0.27378731329E+02  0.00000000000E+00 0.  1.
</event>
<event>
 8    1  0.1253703E-006  0.9118800E+02  0.7816164E-02  0.1184000E+00
        -11   -1    0    0    0    0  0.00000000000E+00  0.00000000000E+00  0.45593999997E+02  0.45594000000E+02  0.51100000000E-03 0.  1.
         11   -1    0    0    0    0 -0.00000000000E+00 -0.00000000000E+00 -0.45593999997E+02  0.45594000000E+02  0.51100000000E-03 0. -1.
         23    2    1    2    0    0  0.00000000000E+00  0.44408920985E-15  0.00000000000E+00  0.91188000000E+02  0.91188000000E+02 0.  0.
    9900012    2    3    3    0    0  0.29698221953E+02 -0.33513279505E+01  0.21507287230E+02  0.54367093029E+02  0.40000020177E+02 0.  0.
         12    1    3    3    0    0 -0.29698221953E+02  0.33513279505E+01 -0.21507287230E+02  0.36820906971E+02  0.00000000000E+00 0. -1.
         11    1    4    4    0    0  0.83055260131E+01 -0.59823473277E+01  0.14317814945E+02  0.17600285991E+02  0.51100000000E-03 0. -1.
        -11    1    4    4    0    0  0.21156077900E+02  0.37292805569E+01  0.16687726588E+02  0.27202341526E+02  0.51100000000E-03 0.  1.
         12    1    4    4    0    0  0.23661803950E+00 -0.10982611797E+01 -0.94982543025E+01  0.95644655110E+01  0.00000000000E+00 0. -1.
</event>
<event>
 8    1  0.1253703E-006  0.9118800E+02  0.7816164E-02  0.1184000E+00
        -11   -1    0    0    0    0  0.00000000000E+00  0.00000000000E+00  0.45593999997E+02  0.45594000000E+02  0.51100000000E-03 0. -1.
         11   -1    0    0    0    0 -0.00000000000E+00 -0.00000000000E+00 -0.45593999997E+02  0.45594000000E+02  0.51100000000E-03 0.  1.
         23    2    1    2    0    0 -0.28865798640E-14 -0.13322676296E-14  0.00000000000E+00  0.91188000000E+02  0.91188000000E+02 0.  0.
    9900012    2    3    3    0    0 -0.15518442161E+01 -0.25490842209E+01  0.36699802696E+02  0.54367060729E+02  0.39999946544E+02 0.  0.
        -12    1    3    3    0    0  0.15518442161E+01  0.25490842209E+01 -0.36699802696E+02  0.36820939271E+02  0.00000000000E+00 0.  1.
         11    1    4    4    0    0  0.12537980955E+02 -0.10529101784E+02  0.73952891044E+01  0.17965334732E+02  0.51100000000E-03 0. -1.
        -11    1    4    4    0    0 -0.79394922933E+01  0.69980631306E+01  0.57639961248E+01  0.12051227201E+02  0.51100000000E-03 0.  1.
         12    1    4    4    0    0 -0.61503328783E+01  0.98195443289E+00  0.23540517467E+02  0.24350498797E+02  0.00000000000E+00 0. -1.
</event>
<event>
 8    1  0.1253703E-006  0.9118800E+02  0.7816164E-02  0.1184000E+00
        -11   -1    0    0    0    0  0.00000000000E+00  0.00000000000E+00  0.45593999997E+02  0.45594000000E+02  0.51100000000E-03 0. -1.
         11   -1    0    0    0    0 -0.00000000000E+00 -0.00000000000E+00 -0.45593999997E+02  0.45594000000E+02  0.51100000000E-03 0.  1.
         23    2    1    2    0    0 -0.88817841970E-15 -0.35527136788E-14  0.00000000000E+00  0.91188000000E+02  0.91188000000E+02 0.  0.
    9900012    2    3    3    0    0  0.73155823284E+01 -0.16852394412E+02  0.31910170394E+02  0.54367083162E+02  0.39999997685E+02 0.  0.
        -12    1    3    3    0    0 -0.73155823284E+01  0.16852394412E+02 -0.31910170394E+02  0.36820916838E+02  0.00000000000E+00 0.  1.
         11    1    4    4    0    0  0.17509438036E+02  0.29614873280E+01  0.15481668909E+02  0.23559136232E+02  0.51100000000E-03 0. -1.
        -11    1    4    4    0    0 -0.21988779731E+01  0.48560138954E+00 -0.13837076284E+01  0.26430134529E+01  0.51100000000E-03 0.  1.
         12    1    4    4    0    0 -0.79949777346E+01 -0.20299483129E+02  0.17812209113E+02  0.28164933477E+02  0.00000000000E+00 0. -1.
</event>
<event>
 8    1  0.1253703E-006  0.9118800E+02  0.7816164E-02  0.1184000E+00
        -11   -1    0    0    0    0  0.00000000000E+00  0.00000000000E+00  0.45593999997E+02  0.45594000000E+02  0.51100000000E-03 0. -1.
         11   -1    0    0    0    0 -0.00000000000E+00 -0.00000000000E+00 -0.45593999997E+02  0.45594000000E+02  0.51100000000E-03 0.  1.
         23    2    1    2    0    0  0.00000000000E+00  0.17763568394E-14 -0.71054273576E-14  0.91188000000E+02  0.91188000000E+02 0.  0.
    9900012    2    3    3    0    0  0.24447735967E+02  0.82409158038E+01 -0.26271073387E+02  0.54367166439E+02  0.40000187531E+02 0.  0.
         12    1    3    3    0    0 -0.24447735967E+02 -0.82409158038E+01  0.26271073387E+02  0.36820833561E+02  0.00000000000E+00 0. -1.
         11    1    4    4    0    0  0.46206483643E+01 -0.34349113155E+01  0.95492543051E+00  0.58361708243E+01  0.51100000000E-03 0. -1.
        -11    1    4    4    0    0  0.25795816200E+02  0.13478835009E+02 -0.10941645336E+02  0.31093773163E+02  0.51100000000E-03 0.  1.
         12    1    4    4    0    0 -0.59687285974E+01 -0.18030078893E+01 -0.16284353481E+02  0.17437222452E+02  0.00000000000E+00 0. -1.
</event>
<event>
 8    1  0.1253703E-006  0.9118800E+02  0.7816164E-02  0.1184000E+00
        -11   -1    0    0    0    0  0.00000000000E+00  0.00000000000E+00  0.45593999997E+02  0.45594000000E+02  0.51100000000E-03 0. -1.
         11   -1    0    0    0    0 -0.00000000000E+00 -0.00000000000E+00 -0.45593999997E+02  0.45594000000E+02  0.51100000000E-03 0.  1.
         23    2    1    2    0    0 -0.71054273576E-14  0.17763568394E-14  0.00000000000E+00  0.91188000000E+02  0.91188000000E+02 0.  0.
    9900012    2    3    3    0    0  0.34661813930E+02 -0.11022249572E+02 -0.57313962329E+01  0.54367078864E+02  0.39999987887E+02 0.  0.
        -12    1    3    3    0    0 -0.34661813930E+02  0.11022249572E+02  0.57313962329E+01  0.36820921136E+02  0.00000000000E+00 0.  1.
         11    1    4    4    0    0  0.16304285103E+02  0.17727196198E+01  0.37071804794E+01  0.16814143895E+02  0.51100000000E-03 0. -1.
        -11    1    4    4    0    0  0.25063975374E+02 -0.49464040966E+01 -0.39184013714E+01  0.25846153381E+02  0.51100000000E-03 0.  1.
        -12    1    4    4    0    0 -0.67064465474E+01 -0.78485650947E+01 -0.55201753409E+01  0.11706781587E+02  0.00000000000E+00 0.  1.
</event>
<event>
 8    1  0.1253703E-006  0.9118800E+02  0.7816164E-02  0.1184000E+00
        -11   -1    0    0    0    0  0.00000000000E+00  0.00000000000E+00  0.45593999997E+02  0.45594000000E+02  0.51100000000E-03 0.  1.
         11   -1    0    0    0    0 -0.00000000000E+00 -0.00000000000E+00 -0.45593999997E+02  0.45594000000E+02  0.51100000000E-03 0. -1.
         23    2    1    2    0    0  0.44408920985E-15  0.88817841970E-15  0.00000000000E+00  0.91188000000E+02  0.91188000000E+02 0.  0.
    9900012    2    3    3    0    0 -0.22252606654E+01  0.55134806310E+01 -0.36337723596E+02  0.54367076467E+02  0.39999982422E+02 0.  0.
        -12    1    3    3    0    0  0.22252606654E+01 -0.55134806310E+01  0.36337723596E+02  0.36820923533E+02  0.00000000000E+00 0.  1.
         11    1    4    4    0    0 -0.12828355426E+02 -0.77096231719E+01 -0.30320351580E+02  0.33813144080E+02  0.51100000000E-03 0. -1.
        -11    1    4    4    0    0  0.16267987609E+01 -0.15062830613E+01  0.18241781382E+00  0.22245537505E+01  0.51100000000E-03 0.  1.
         12    1    4    4    0    0  0.89762959998E+01  0.14729386864E+02 -0.61997898297E+01  0.18329378637E+02  0.00000000000E+00 0. -1.
</event>
<event>
 8    1  0.1253703E-006  0.9118800E+02  0.7816164E-02  0.1184000E+00
        -11   -1    0    0    0    0  0.00000000000E+00  0.00000000000E+00  0.45593999997E+02  0.45594000000E+02  0.51100000000E-03 0. -1.
         11   -1    0    0    0    0 -0.00000000000E+00 -0.00000000000E+00 -0.45593999997E+02  0.45594000000E+02  0.51100000000E-03 0.  1.
         23    2    1    2    0    0  0.00000000000E+00  0.00000000000E+00  0.71054273576E-14  0.91188000000E+02  0.91188000000E+02 0.  0.
    9900012    2    3    3    0    0 -0.27421613329E+02 -0.76710201772E+01 -0.23344995389E+02  0.54367105961E+02  0.40000049659E+02 0.  0.
         12    1    3    3    0    0  0.27421613329E+02  0.76710201772E+01  0.23344995389E+02  0.36820894039E+02  0.00000000000E+00 0. -1.
         11    1    4    4    0    0 -0.18099099198E+02  0.57122419019E+01 -0.94009742514E+01  0.21179835138E+02  0.51100000000E-03 0.  1.
        -11    1    4    4    0    0 -0.29641625085E+01 -0.90757227767E+01  0.63649510077E+01  0.11474650534E+02  0.51100000000E-03 0. -1.
        -12    1    4    4    0    0 -0.63583516225E+01 -0.43075393025E+01 -0.20308972145E+02  0.21712620289E+02  0.00000000000E+00 0.  1.
</event>
<event>
 8    1  0.1253703E-006  0.9118800E+02  0.7816164E-02  0.1184000E+00
        -11   -1    0    0    0    0  0.00000000000E+00  0.00000000000E+00  0.45593999997E+02  0.45594000000E+02  0.51100000000E-03 0.  1.
         11   -1    0    0    0    0 -0.00000000000E+00 -0.00000000000E+00 -0.45593999997E+02  0.45594000000E+02  0.51100000000E-03 0. -1.
         23    2    1    2    0    0  0.00000000000E+00  0.00000000000E+00  0.00000000000E+00  0.91188000000E+02  0.91188000000E+02 0.  0.
    9900012    2    3    3    0    0 -0.34131530320E+02 -0.45122312640E+01  0.13056002208E+02  0.54367071351E+02  0.39999970758E+02 0.  0.
         12    1    3    3    0    0  0.34131530320E+02  0.45122312640E+01 -0.13056002208E+02  0.36820928649E+02  0.00000000000E+00 0. -1.
         11    1    4    4    0    0 -0.17122139233E+02  0.11949888135E+02 -0.50790192191E+01  0.21488692721E+02  0.51100000000E-03 0. -1.
        -11    1    4    4    0    0 -0.20341285419E+01 -0.65931519765E+01 -0.62087140735E+00  0.69276845681E+01  0.51100000000E-03 0.  1.
        -12    1    4    4    0    0 -0.14975262545E+02 -0.98689674225E+01  0.18755892835E+02  0.25950694062E+02  0.00000000000E+00 0.  1.
</event>
<event>
 8    1  0.1253703E-006  0.9118800E+02  0.7816164E-02  0.1184000E+00
        -11   -1    0    0    0    0  0.00000000000E+00  0.00000000000E+00  0.45593999997E+02  0.45594000000E+02  0.51100000000E-03 0. -1.
         11   -1    0    0    0    0 -0.00000000000E+00 -0.00000000000E+00 -0.45593999997E+02  0.45594000000E+02  0.51100000000E-03 0.  1.
         23    2    1    2    0    0  0.44408920985E-15  0.00000000000E+00  0.35527136788E-14  0.91188000000E+02  0.91188000000E+02 0.  0.
    9900012    2    3    3    0    0  0.33366686381E+01  0.25467790138E+02  0.26382560013E+02  0.54367066213E+02  0.39999959045E+02 0.  0.
        -12    1    3    3    0    0 -0.33366686381E+01 -0.25467790138E+02 -0.26382560013E+02  0.36820933787E+02  0.00000000000E+00 0.  1.
         11    1    4    4    0    0  0.11133009368E+02  0.46189811883E+01  0.17455913263E+02  0.21212915710E+02  0.51100000000E-03 0. -1.
        -11    1    4    4    0    0  0.48560030788E+01  0.73598753113E+00 -0.37900593560E+01  0.62037886594E+01  0.51100000000E-03 0.  1.
        -12    1    4    4    0    0 -0.12652343809E+02  0.20112821419E+02  0.12716706106E+02  0.26950361843E+02  0.00000000000E+00 0.  1.
</event>
<event>
 8    1  0.1253703E-006  0.9118800E+02  0.7816164E-02  0.1184000E+00
        -11   -1    0    0    0    0  0.00000000000E+00  0.00000000000E+00  0.45593999997E+02  0.45594000000E+02  0.51100000000E-03 0.  1.
         11   -1    0    0    0    0 -0.00000000000E+00 -0.00000000000E+00 -0.45593999997E+02  0.45594000000E+02  0.51100000000E-03 0. -1.
         23    2    1    2    0    0 -0.71054273576E-14  0.00000000000E+00  0.88817841970E-15  0.91188000000E+02  0.91188000000E+02 0.  0.
    9900012    2    3    3    0    0 -0.34502437787E+02  0.10898757426E+02  0.68247899121E+01  0.54367097186E+02  0.40000029655E+02 0.  0.
         12    1    3    3    0    0  0.34502437787E+02 -0.10898757426E+02 -0.68247899121E+01  0.36820902814E+02  0.00000000000E+00 0. -1.
         11    1    4    4    0    0 -0.10397129851E+02  0.21072901096E+02  0.30306013970E+01  0.23692868438E+02  0.51100000000E-03 0. -1.
        -11    1    4    4    0    0 -0.53480973180E+01 -0.10280670640E+02  0.26135052220E+01  0.11879593577E+02  0.51100000000E-03 0.  1.
         12    1    4    4    0    0 -0.18757210618E+02  0.10652697042E+00  0.11806832931E+01  0.18794635171E+02  0.00000000000E+00 0. -1.
</event>
<event>
 8    1  0.1253703E-006  0.9118800E+02  0.7816164E-02  0.1184000E+00
        -11   -1    0    0    0    0  0.00000000000E+00  0.00000000000E+00  0.45593999997E+02  0.45594000000E+02  0.51100000000E-03 0.  1.
         11   -1    0    0    0    0 -0.00000000000E+00 -0.00000000000E+00 -0.45593999997E+02  0.45594000000E+02  0.51100000000E-03 0. -1.
         23    2    1    2    0    0 -0.71054273576E-14  0.44408920985E-15  0.00000000000E+00  0.91188000000E+02  0.91188000000E+02 0.  0.
    9900012    2    3    3    0    0 -0.34645599211E+02 -0.29549000495E+01  0.12113251044E+02  0.54367084343E+02  0.40000000377E+02 0.  0.
         12    1    3    3    0    0  0.34645599211E+02  0.29549000495E+01 -0.12113251044E+02  0.36820915657E+02  0.00000000000E+00 0. -1.
         11    1    4    4    0    0 -0.27628020126E+01 -0.12958178019E+02  0.47965357096E+01  0.14090926429E+02  0.51100000000E-03 0. -1.
        -11    1    4    4    0    0 -0.20303227180E+02  0.24733880098E+01  0.14144960219E+02  0.24868023284E+02  0.51100000000E-03 0.  1.
        -12    1    4    4    0    0 -0.11579570018E+02  0.75298899599E+01 -0.68282448845E+01  0.15408134631E+02  0.00000000000E+00 0.  1.
</event>
<event>
 8    1  0.1253703E-006  0.9118800E+02  0.7816164E-02  0.1184000E+00
        -11   -1    0    0    0    0  0.00000000000E+00  0.00000000000E+00  0.45593999997E+02  0.45594000000E+02  0.51100000000E-03 0. -1.
         11   -1    0    0    0    0 -0.00000000000E+00 -0.00000000000E+00 -0.45593999997E+02  0.45594000000E+02  0.51100000000E-03 0.  1.
         23    2    1    2    0    0  0.00000000000E+00  0.00000000000E+00  0.00000000000E+00  0.91188000000E+02  0.91188000000E+02 0.  0.
    9900012    2    3    3    0    0  0.67932215847E+01  0.33766157575E+02 -0.13018758042E+02  0.54366955503E+02  0.39999706659E+02 0.  0.
        -12    1    3    3    0    0 -0.67932215847E+01 -0.33766157575E+02  0.13018758042E+02  0.36821044497E+02  0.00000000000E+00 0.  1.
         11    1    4    4    0    0  0.20163818942E+01  0.11877050444E+01  0.92629062703E+01  0.95539453656E+01  0.51100000000E-03 0. -1.
        -11    1    4    4    0    0 -0.24364592138E+01  0.30150755022E+02 -0.13309668067E+02  0.33047717413E+02  0.51100000000E-03 0.  1.
         12    1    4    4    0    0  0.72132989043E+01  0.24276975093E+01 -0.89719962450E+01  0.11765292725E+02  0.00000000000E+00 0. -1.
</event>
<event>
 8    1  0.1253703E-006  0.9118800E+02  0.7816164E-02  0.1184000E+00
        -11   -1    0    0    0    0  0.00000000000E+00  0.00000000000E+00  0.45593999997E+02  0.45594000000E+02  0.51100000000E-03 0.  1.
         11   -1    0    0    0    0 -0.00000000000E+00 -0.00000000000E+00 -0.45593999997E+02  0.45594000000E+02  0.51100000000E-03 0. -1.
         23    2    1    2    0    0  0.00000000000E+00 -0.17763568394E-14  0.35527136788E-14  0.91188000000E+02  0.91188000000E+02 0.  0.
    9900012    2    3    3    0    0 -0.27021224419E+02 -0.70561159831E+01  0.23996755989E+02  0.54367086922E+02  0.40000006256E+02 0.  0.
         12    1    3    3    0    0  0.27021224419E+02  0.70561159831E+01 -0.23996755989E+02  0.36820913078E+02  0.00000000000E+00 0. -1.
         11    1    4    4    0    0 -0.73498603832E+00 -0.83350203736E+01  0.52744932784E+01  0.98910590287E+01  0.51100000000E-03 0. -1.
        -11    1    4    4    0    0  0.88095121607E+00 -0.61738735112E+01  0.14765631260E+02  0.16028619901E+02  0.51100000000E-03 0.  1.
         12    1    4    4    0    0 -0.27167189597E+02  0.74527779017E+01  0.39566314514E+01  0.28447407992E+02  0.00000000000E+00 0. -1.
</event>
<event>
 8    1  0.1253703E-006  0.9118800E+02  0.7816164E-02  0.1184000E+00
        -11   -1    0    0    0    0  0.00000000000E+00  0.00000000000E+00  0.45593999997E+02  0.45594000000E+02  0.51100000000E-03 0.  1.
         11   -1    0    0    0    0 -0.00000000000E+00 -0.00000000000E+00 -0.45593999997E+02  0.45594000000E+02  0.51100000000E-03 0. -1.
         23    2    1    2    0    0  0.35527136788E-14  0.00000000000E+00 -0.35527136788E-14  0.91188000000E+02  0.91188000000E+02 0.  0.
    9900012    2    3    3    0    0 -0.24558749470E+02  0.88885208237E+01 -0.25954563973E+02  0.54367117759E+02  0.40000076555E+02 0.  0.
        -12    1    3    3    0    0  0.24558749470E+02 -0.88885208237E+01  0.25954563973E+02  0.36820882241E+02  0.00000000000E+00 0.  1.
         11    1    4    4    0    0 -0.25576364970E+02  0.73743703930E+01 -0.84215782061E+01  0.27918717082E+02  0.51100000000E-03 0. -1.
        -11    1    4    4    0    0  0.87750687998E+01  0.41643014949E+01 -0.14996626721E+02  0.17867345988E+02  0.51100000000E-03 0.  1.
        -12    1    4    4    0    0 -0.77574532995E+01 -0.26501510642E+01 -0.25363590457E+01  0.85810546884E+01  0.00000000000E+00 0.  1.
</event>
<event>
 8    1  0.1253703E-006  0.9118800E+02  0.7816164E-02  0.1184000E+00
        -11   -1    0    0    0    0  0.00000000000E+00  0.00000000000E+00  0.45593999997E+02  0.45594000000E+02  0.51100000000E-03 0.  1.
         11   -1    0    0    0    0 -0.00000000000E+00 -0.00000000000E+00 -0.45593999997E+02  0.45594000000E+02  0.51100000000E-03 0. -1.
         23    2    1    2    0    0 -0.35527136788E-14  0.35527136788E-14 -0.17763568394E-14  0.91188000000E+02  0.91188000000E+02 0.  0.
    9900012    2    3    3    0    0  0.21725694504E+02 -0.25602470099E+02  0.15109187186E+02  0.54367084554E+02  0.40000000857E+02 0.  0.
         12    1    3    3    0    0 -0.21725694504E+02  0.25602470099E+02 -0.15109187186E+02  0.36820915446E+02  0.00000000000E+00 0. -1.
         11    1    4    4    0    0 -0.22410426346E+01  0.44655644161E+01 -0.27099140467E+01  0.56839398348E+01  0.51100000000E-03 0. -1.
        -11    1    4    4    0    0  0.28296562268E+02 -0.26548423567E+02  0.11983929709E+02  0.40609466896E+02  0.51100000000E-03 0.  1.
        -12    1    4    4    0    0 -0.43298251287E+01 -0.35196109484E+01  0.58351715237E+01  0.80736778227E+01  0.00000000000E+00 0.  1.
</event>
<event>
 8    1  0.1253703E-006  0.9118800E+02  0.7816164E-02  0.1184000E+00
        -11   -1    0    0    0    0  0.00000000000E+00  0.00000000000E+00  0.45593999997E+02  0.45594000000E+02  0.51100000000E-03 0.  1.
         11   -1    0    0    0    0 -0.00000000000E+00 -0.00000000000E+00 -0.45593999997E+02  0.45594000000E+02  0.51100000000E-03 0. -1.
         23    2    1    2    0    0  0.44408920985E-15 -0.44408920985E-15 -0.71054273576E-14  0.91188000000E+02  0.91188000000E+02 0.  0.
    9900012    2    3    3    0    0 -0.24916986247E+01 -0.39009772098E+01 -0.36528887326E+02  0.54367003347E+02  0.39999815730E+02 0.  0.
        -12    1    3    3    0    0  0.24916986247E+01  0.39009772098E+01  0.36528887326E+02  0.36820996653E+02  0.00000000000E+00 0.  1.
         11    1    4    4    0    0 -0.27181500793E+01 -0.13970726329E+01 -0.12609604408E+02  0.12974678238E+02  0.51100000000E-03 0. -1.
        -11    1    4    4    0    0 -0.12533025158E+02  0.51234330438E+01 -0.22758565182E+02  0.26481664887E+02  0.51100000000E-03 0.  1.
        -12    1    4    4    0    0  0.12759476612E+02 -0.76273376206E+01 -0.11607177360E+01  0.14910660222E+02  0.00000000000E+00 0.  1.
</event>
<event>
 8    1  0.1253703E-006  0.9118800E+02  0.7816164E-02  0.1184000E+00
        -11   -1    0    0    0    0  0.00000000000E+00  0.00000000000E+00  0.45593999997E+02  0.45594000000E+02  0.51100000000E-03 0.  1.
         11   -1    0    0    0    0 -0.00000000000E+00 -0.00000000000E+00 -0.45593999997E+02  0.45594000000E+02  0.51100000000E-03 0. -1.
         23    2    1    2    0    0  0.00000000000E+00  0.00000000000E+00 -0.88817841970E-15  0.91188000000E+02  0.91188000000E+02 0.  0.
    9900012    2    3    3    0    0 -0.93302833070E+01 -0.34944847129E+02  0.68980422331E+01  0.54367088630E+02  0.40000010150E+02 0.  0.
        -12    1    3    3    0    0  0.93302833070E+01  0.34944847129E+02 -0.68980422331E+01  0.36820911370E+02  0.00000000000E+00 0.  1.
         11    1    4    4    0    0 -0.26916085089E+01 -0.18501348986E+02  0.97258332124E+01  0.21074546320E+02  0.51100000000E-03 0. -1.
        -11    1    4    4    0    0 -0.17434206397E+02 -0.68707924652E+01 -0.18705179417E+01  0.18832370521E+02  0.51100000000E-03 0.  1.
         12    1    4    4    0    0  0.10795531599E+02 -0.95727056777E+01 -0.95727303763E+00  0.14460171789E+02  0.00000000000E+00 0. -1.
</event>
<event>
 8    1  0.1253703E-006  0.9118800E+02  0.7816164E-02  0.1184000E+00
        -11   -1    0    0    0    0  0.00000000000E+00  0.00000000000E+00  0.45593999997E+02  0.45594000000E+02  0.51100000000E-03 0. -1.
         11   -1    0    0    0    0 -0.00000000000E+00 -0.00000000000E+00 -0.45593999997E+02  0.45594000000E+02  0.51100000000E-03 0.  1.
         23    2    1    2    0    0  0.00000000000E+00 -0.17763568394E-14  0.71054273576E-14  0.91188000000E+02  0.91188000000E+02 0.  0.
    9900012    2    3    3    0    0  0.16752258841E+02 -0.52488299563E+01  0.32366507199E+02  0.54367093162E+02  0.40000020480E+02 0.  0.
        -12    1    3    3    0    0 -0.16752258841E+02  0.52488299563E+01 -0.32366507199E+02  0.36820906838E+02  0.00000000000E+00 0.  1.
         11    1    4    4    0    0 -0.47797000596E+00 -0.16625119507E+02  0.10828875914E+02  0.19846601920E+02  0.51100000000E-03 0. -1.
        -11    1    4    4    0    0  0.10615223720E+02  0.18567508263E+01  0.85435262714E+00  0.10810199671E+02  0.51100000000E-03 0.  1.
         12    1    4    4    0    0  0.66150051269E+01  0.95195387242E+01  0.20683278657E+02  0.23710291571E+02  0.00000000000E+00 0. -1.
</event>
<event>
 8    1  0.1253703E-006  0.9118800E+02  0.7816164E-02  0.1184000E+00
        -11   -1    0    0    0    0  0.00000000000E+00  0.00000000000E+00  0.45593999997E+02  0.45594000000E+02  0.51100000000E-03 0. -1.
         11   -1    0    0    0    0 -0.00000000000E+00 -0.00000000000E+00 -0.45593999997E+02  0.45594000000E+02  0.51100000000E-03 0.  1.
         23    2    1    2    0    0 -0.17763568394E-14 -0.71054273576E-14  0.00000000000E+00  0.91188000000E+02  0.91188000000E+02 0.  0.
    9900012    2    3    3    0    0 -0.72702211029E+01 -0.34162404598E+02  0.11655219313E+02  0.54367215923E+02  0.40000300339E+02 0.  0.
         12    1    3    3    0    0  0.72702211029E+01  0.34162404598E+02 -0.11655219313E+02  0.36820784077E+02  0.00000000000E+00 0. -1.
         11    1    4    4    0    0 -0.19138603958E+01 -0.20038586507E+02  0.11645951812E+02  0.23255881077E+02  0.51100000000E-03 0. -1.
        -11    1    4    4    0    0 -0.13730869595E+02 -0.10339402550E+01  0.52132407464E+01  0.14723576048E+02  0.51100000000E-03 0.  1.
        -12    1    4    4    0    0  0.83745088884E+01 -0.13089877836E+02 -0.52039732459E+01  0.16387758798E+02  0.00000000000E+00 0.  1.
</event>
<event>
 8    1  0.1253703E-006  0.9118800E+02  0.7816164E-02  0.1184000E+00
        -11   -1    0    0    0    0  0.00000000000E+00  0.00000000000E+00  0.45593999997E+02  0.45594000000E+02  0.51100000000E-03 0.  1.
         11   -1    0    0    0    0 -0.00000000000E+00 -0.00000000000E+00 -0.45593999997E+02  0.45594000000E+02  0.51100000000E-03 0. -1.
         23    2    1    2    0    0  0.35527136788E-14  0.00000000000E+00 -0.17763568394E-14  0.91188000000E+02  0.91188000000E+02 0.  0.
    9900012    2    3    3    0    0  0.22071445792E+02 -0.25620318011E+02 -0.14568153316E+02  0.54367075170E+02  0.39999979465E+02 0.  0.
         12    1    3    3    0    0 -0.22071445792E+02  0.25620318011E+02  0.14568153316E+02  0.36820924830E+02  0.00000000000E+00 0. -1.
         11    1    4    4    0    0  0.95522829296E+01  0.34223932387E+01 -0.39584191153E+01  0.10891646652E+02  0.51100000000E-03 0. -1.
        -11    1    4    4    0    0 -0.53817151394E+01 -0.94004650082E+01  0.57545581299E+01  0.12265665075E+02  0.51100000000E-03 0.  1.
        -12    1    4    4    0    0  0.17900878001E+02 -0.19642246241E+02 -0.16364292331E+02  0.31209763442E+02  0.00000000000E+00 0.  1.
</event>
<event>
 8    1  0.1253703E-006  0.9118800E+02  0.7816164E-02  0.1184000E+00
        -11   -1    0    0    0    0  0.00000000000E+00  0.00000000000E+00  0.45593999997E+02  0.45594000000E+02  0.51100000000E-03 0. -1.
         11   -1    0    0    0    0 -0.00000000000E+00 -0.00000000000E+00 -0.45593999997E+02  0.45594000000E+02  0.51100000000E-03 0.  1.
         23    2    1    2    0    0  0.35527136788E-14  0.35527136788E-14  0.88817841970E-15  0.91188000000E+02  0.91188000000E+02 0.  0.
    9900012    2    3    3    0    0  0.28192772301E+02 -0.22386242913E+02  0.77332714176E+01  0.54367085174E+02  0.40000002272E+02 0.  0.
        -12    1    3    3    0    0 -0.28192772301E+02  0.22386242913E+02 -0.77332714176E+01  0.36820914826E+02  0.00000000000E+00 0.  1.
         11    1    4    4    0    0  0.19342348765E+01  0.25065979575E+01 -0.29036951738E+01  0.42960148745E+01  0.51100000000E-03 0.  1.
        -11    1    4    4    0    0 -0.75724178298E+01 -0.73423841634E+01  0.17580541361E+00  0.10549076964E+02  0.51100000000E-03 0. -1.
         12    1    4    4    0    0  0.33830955254E+02 -0.17550456707E+02  0.10461161178E+02  0.39521993336E+02  0.00000000000E+00 0. -1.
</event>
<event>
 8    1  0.1253703E-006  0.9118800E+02  0.7816164E-02  0.1184000E+00
        -11   -1    0    0    0    0  0.00000000000E+00  0.00000000000E+00  0.45593999997E+02  0.45594000000E+02  0.51100000000E-03 0. -1.
         11   -1    0    0    0    0 -0.00000000000E+00 -0.00000000000E+00 -0.45593999997E+02  0.45594000000E+02  0.51100000000E-03 0.  1.
         23    2    1    2    0    0 -0.35527136788E-14 -0.88817841970E-15  0.00000000000E+00  0.91188000000E+02  0.91188000000E+02 0.  0.
    9900012    2    3    3    0    0  0.29204537351E+02  0.64589245383E+01  0.21474664103E+02  0.54367028986E+02  0.39999874180E+02 0.  0.
        -12    1    3    3    0    0 -0.29204537351E+02 -0.64589245383E+01 -0.21474664103E+02  0.36820971014E+02  0.00000000000E+00 0.  1.
         11    1    4    4    0    0  0.20783853018E+02  0.11462079911E+02  0.24355716777E+02  0.34008069074E+02  0.51100000000E-03 0. -1.
        -11    1    4    4    0    0 -0.40025937885E+00  0.48491798334E+01 -0.49878898488E+01  0.69680555417E+01  0.51100000000E-03 0.  1.
         12    1    4    4    0    0  0.88209437109E+01 -0.98523352063E+01  0.21068371750E+01  0.13390904370E+02  0.00000000000E+00 0. -1.
</event>
<event>
 8    1  0.1253703E-006  0.9118800E+02  0.7816164E-02  0.1184000E+00
        -11   -1    0    0    0    0  0.00000000000E+00  0.00000000000E+00  0.45593999997E+02  0.45594000000E+02  0.51100000000E-03 0.  1.
         11   -1    0    0    0    0 -0.00000000000E+00 -0.00000000000E+00 -0.45593999997E+02  0.45594000000E+02  0.51100000000E-03 0. -1.
         23    2    1    2    0    0  0.35527136788E-14  0.35527136788E-14  0.00000000000E+00  0.91188000000E+02  0.91188000000E+02 0.  0.
    9900012    2    3    3    0    0  0.21509973816E+02  0.20677943076E+02  0.21575989554E+02  0.54367087075E+02  0.40000006604E+02 0.  0.
         12    1    3    3    0    0 -0.21509973816E+02 -0.20677943076E+02 -0.21575989554E+02  0.36820912925E+02  0.00000000000E+00 0. -1.
         11    1    4    4    0    0  0.88869595134E+01  0.96113267871E+01 -0.90945079581E+01  0.15939439365E+02  0.51100000000E-03 0. -1.
        -11    1    4    4    0    0  0.61278792867E+01  0.12189356995E+02  0.10524306852E+02  0.17230564805E+02  0.51100000000E-03 0.  1.
         12    1    4    4    0    0  0.64951350155E+01 -0.11227407065E+01  0.20146190660E+02  0.21197082905E+02  0.00000000000E+00 0. -1.
</event>
<event>
 8    1  0.1253703E-006  0.9118800E+02  0.7816164E-02  0.1184000E+00
        -11   -1    0    0    0    0  0.00000000000E+00  0.00000000000E+00  0.45593999997E+02  0.45594000000E+02  0.51100000000E-03 0. -1.
         11   -1    0    0    0    0 -0.00000000000E+00 -0.00000000000E+00 -0.45593999997E+02  0.45594000000E+02  0.51100000000E-03 0.  1.
         23    2    1    2    0    0 -0.35527136788E-14  0.35527136788E-14  0.17763568394E-14  0.91188000000E+02  0.91188000000E+02 0.  0.
    9900012    2    3    3    0    0  0.17630780646E+02 -0.29183946776E+02 -0.13900872647E+02  0.54367062533E+02  0.39999950657E+02 0.  0.
         12    1    3    3    0    0 -0.17630780646E+02  0.29183946776E+02  0.13900872647E+02  0.36820937467E+02  0.00000000000E+00 0. -1.
         11    1    4    4    0    0 -0.39417660105E+00  0.48765411997E+01 -0.85422113635E+01  0.98440542717E+01  0.51100000000E-03 0. -1.
        -11    1    4    4    0    0  0.49677491107E+01 -0.15302768972E+02 -0.12722301027E+02  0.20511221639E+02  0.51100000000E-03 0.  1.
        -12    1    4    4    0    0  0.13057208137E+02 -0.18757719003E+02  0.73636397435E+01  0.24011786622E+02  0.00000000000E+00 0.  1.
</event>
<event>
 8    1  0.1253703E-006  0.9118800E+02  0.7816164E-02  0.1184000E+00
        -11   -1    0    0    0    0  0.00000000000E+00  0.00000000000E+00  0.45593999997E+02  0.45594000000E+02  0.51100000000E-03 0.  1.
         11   -1    0    0    0    0 -0.00000000000E+00 -0.00000000000E+00 -0.45593999997E+02  0.45594000000E+02  0.51100000000E-03 0. -1.
         23    2    1    2    0    0  0.00000000000E+00  0.35527136788E-14  0.00000000000E+00  0.91188000000E+02  0.91188000000E+02 0.  0.
    9900012    2    3    3    0    0 -0.14265677542E+02  0.30217150673E+02 -0.15465498654E+02  0.54367253143E+02  0.40000385187E+02 0.  0.
         12    1    3    3    0    0  0.14265677542E+02 -0.30217150673E+02  0.15465498654E+02  0.36820746857E+02  0.00000000000E+00 0. -1.
         11    1    4    4    0    0  0.75905587847E+00 -0.14215531221E+00 -0.10226667972E+02  0.10255784321E+02  0.51100000000E-03 0. -1.
        -11    1    4    4    0    0 -0.13646810767E+02  0.99499763092E+00 -0.54116865133E+01  0.14714340474E+02  0.51100000000E-03 0.  1.
         12    1    4    4    0    0 -0.13779226528E+01  0.29364308354E+02  0.17285583141E+00  0.29397128348E+02  0.00000000000E+00 0. -1.
</event>
<event>
 8    1  0.1253703E-006  0.9118800E+02  0.7816164E-02  0.1184000E+00
        -11   -1    0    0    0    0  0.00000000000E+00  0.00000000000E+00  0.45593999997E+02  0.45594000000E+02  0.51100000000E-03 0.  1.
         11   -1    0    0    0    0 -0.00000000000E+00 -0.00000000000E+00 -0.45593999997E+02  0.45594000000E+02  0.51100000000E-03 0. -1.
         23    2    1    2    0    0  0.00000000000E+00  0.00000000000E+00  0.35527136788E-14  0.91188000000E+02  0.91188000000E+02 0.  0.
    9900012    2    3    3    0    0 -0.19646993247E+02  0.26152878286E+02  0.16905713470E+02  0.54367074778E+02  0.39999978571E+02 0.  0.
        -12    1    3    3    0    0  0.19646993247E+02 -0.26152878286E+02 -0.16905713470E+02  0.36820925222E+02  0.00000000000E+00 0.  1.
         11    1    4    4    0    0 -0.25118498629E+02  0.12358896173E+01  0.12054376112E+02  0.27888606639E+02  0.51100000000E-03 0. -1.
        -11    1    4    4    0    0  0.31417360807E+01  0.19710204914E+02  0.18817441637E+01  0.20047534629E+02  0.51100000000E-03 0.  1.
         12    1    4    4    0    0  0.23297693021E+01  0.52067837547E+01  0.29695931947E+01  0.64309335101E+01  0.00000000000E+00 0. -1.
</event>
<event>
 8    1  0.1253703E-006  0.9118800E+02  0.7816164E-02  0.1184000E+00
        -11   -1    0    0    0    0  0.00000000000E+00  0.00000000000E+00  0.45593999997E+02  0.45594000000E+02  0.51100000000E-03 0. -1.
         11   -1    0    0    0    0 -0.00000000000E+00 -0.00000000000E+00 -0.45593999997E+02  0.45594000000E+02  0.51100000000E-03 0.  1.
         23    2    1    2    0    0  0.00000000000E+00  0.00000000000E+00 -0.88817841970E-15  0.91188000000E+02  0.91188000000E+02 0.  0.
    9900012    2    3    3    0    0  0.31847425658E+02 -0.16793211318E+02 -0.77142312054E+01  0.54367084334E+02  0.40000000356E+02 0.  0.
         12    1    3    3    0    0 -0.31847425658E+02  0.16793211318E+02  0.77142312054E+01  0.36820915666E+02  0.00000000000E+00 0. -1.
         11    1    4    4    0    0  0.10268210544E+02  0.15280387885E+01  0.57797133706E+01  0.11881756487E+02  0.51100000000E-03 0. -1.
        -11    1    4    4    0    0  0.24874447386E+02 -0.35518357553E+01 -0.76785946983E+01  0.26273836545E+02  0.51100000000E-03 0.  1.
        -12    1    4    4    0    0 -0.32952322722E+01 -0.14769414352E+02 -0.58153498777E+01  0.16211491301E+02  0.00000000000E+00 0.  1.
</event>
<event>
 8    1  0.1253703E-006  0.9118800E+02  0.7816164E-02  0.1184000E+00
        -11   -1    0    0    0    0  0.00000000000E+00  0.00000000000E+00  0.45593999997E+02  0.45594000000E+02  0.51100000000E-03 0. -1.
         11   -1    0    0    0    0 -0.00000000000E+00 -0.00000000000E+00 -0.45593999997E+02  0.45594000000E+02  0.51100000000E-03 0.  1.
         23    2    1    2    0    0  0.17763568394E-14  0.35527136788E-14  0.35527136788E-14  0.91188000000E+02  0.91188000000E+02 0.  0.
    9900012    2    3    3    0    0  0.88782613978E+01 -0.23753124769E+02 -0.26697330840E+02  0.54367055747E+02  0.39999935186E+02 0.  0.
         12    1    3    3    0    0 -0.88782613978E+01  0.23753124769E+02  0.26697330840E+02  0.36820944253E+02  0.00000000000E+00 0. -1.
         11    1    4    4    0    0 -0.53825027106E+01 -0.17126198296E+02 -0.66955938450E+01  0.19160088223E+02  0.51100000000E-03 0. -1.
        -11    1    4    4    0    0  0.13967403602E+02 -0.89845034890E+01 -0.16356627459E+01  0.16687871620E+02  0.51100000000E-03 0.  1.
         12    1    4    4    0    0  0.29336050606E+00  0.23575770163E+01 -0.18366074249E+02  0.18519095904E+02  0.00000000000E+00 0. -1.
</event>
<event>
 8    1  0.1253703E-006  0.9118800E+02  0.7816164E-02  0.1184000E+00
        -11   -1    0    0    0    0  0.00000000000E+00  0.00000000000E+00  0.45593999997E+02  0.45594000000E+02  0.51100000000E-03 0.  1.
         11   -1    0    0    0    0 -0.00000000000E+00 -0.00000000000E+00 -0.45593999997E+02  0.45594000000E+02  0.51100000000E-03 0. -1.
         23    2    1    2    0    0  0.00000000000E+00  0.88817841970E-15  0.35527136788E-14  0.91188000000E+02  0.91188000000E+02 0.  0.
    9900012    2    3    3    0    0  0.18182602208E+02  0.78210905681E+01  0.31048415109E+02  0.54367074407E+02  0.39999977727E+02 0.  0.
         12    1    3    3    0    0 -0.18182602208E+02 -0.78210905681E+01 -0.31048415109E+02  0.36820925593E+02  0.00000000000E+00 0. -1.
         11    1    4    4    0    0  0.48154339784E+01  0.68981307771E+01  0.21276877372E+02  0.22879644306E+02  0.51100000000E-03 0.  1.
        -11    1    4    4    0    0  0.11493694003E+02  0.12375464376E+02  0.10453208734E+02  0.19862696027E+02  0.51100000000E-03 0. -1.
        -12    1    4    4    0    0  0.18734742264E+01 -0.11452504585E+02 -0.68167099720E+00  0.11624734074E+02  0.00000000000E+00 0.  1.
</event>
<event>
 8    1  0.1253703E-006  0.9118800E+02  0.7816164E-02  0.1184000E+00
        -11   -1    0    0    0    0  0.00000000000E+00  0.00000000000E+00  0.45593999997E+02  0.45594000000E+02  0.51100000000E-03 0. -1.
         11   -1    0    0    0    0 -0.00000000000E+00 -0.00000000000E+00 -0.45593999997E+02  0.45594000000E+02  0.51100000000E-03 0.  1.
         23    2    1    2    0    0  0.00000000000E+00  0.88817841970E-15  0.44408920985E-15  0.91188000000E+02  0.91188000000E+02 0.  0.
    9900012    2    3    3    0    0 -0.36277573429E+02  0.53069899865E+01  0.33991213449E+01  0.54367075208E+02  0.39999979553E+02 0.  0.
         12    1    3    3    0    0  0.36277573429E+02 -0.53069899865E+01 -0.33991213449E+01  0.36820924792E+02  0.00000000000E+00 0. -1.
         11    1    4    4    0    0 -0.19718107087E+02  0.13847618651E+02  0.26851198916E+01  0.24243971591E+02  0.51100000000E-03 0. -1.
        -11    1    4    4    0    0 -0.16463530832E+02 -0.90713221024E+01 -0.86863954573E+01  0.20707249900E+02  0.51100000000E-03 0.  1.
        -12    1    4    4    0    0 -0.95935509388E-01  0.53069343815E+00  0.94003969105E+01  0.94158537171E+01  0.00000000000E+00 0.  1.
</event>
<event>
 8    1  0.1253703E-006  0.9118800E+02  0.7816164E-02  0.1184000E+00
        -11   -1    0    0    0    0  0.00000000000E+00  0.00000000000E+00  0.45593999997E+02  0.45594000000E+02  0.51100000000E-03 0. -1.
         11   -1    0    0    0    0 -0.00000000000E+00 -0.00000000000E+00 -0.45593999997E+02  0.45594000000E+02  0.51100000000E-03 0.  1.
         23    2    1    2    0    0  0.00000000000E+00  0.00000000000E+00  0.00000000000E+00  0.91188000000E+02  0.91188000000E+02 0.  0.
    9900012    2    3    3    0    0  0.30025843465E+02  0.41494371882E+01  0.20904821387E+02  0.54367073043E+02  0.39999974617E+02 0.  0.
        -12    1    3    3    0    0 -0.30025843465E+02 -0.41494371882E+01 -0.20904821387E+02  0.36820926957E+02  0.00000000000E+00 0.  1.
         11    1    4    4    0    0  0.17443300949E+02  0.81014130738E+01  0.31199665401E+02  0.36651340537E+02  0.51100000000E-03 0. -1.
        -11    1    4    4    0    0  0.12880593731E+02 -0.33104964884E+01 -0.84922747647E+01  0.15779347667E+02  0.51100000000E-03 0.  1.
         12    1    4    4    0    0 -0.29805121536E+00 -0.64147939721E+00 -0.18025692495E+01  0.19363848386E+01  0.00000000000E+00 0. -1.
</event>
<event>
 8    1  0.1253703E-006  0.9118800E+02  0.7816164E-02  0.1184000E+00
        -11   -1    0    0    0    0  0.00000000000E+00  0.00000000000E+00  0.45593999997E+02  0.45594000000E+02  0.51100000000E-03 0.  1.
         11   -1    0    0    0    0 -0.00000000000E+00 -0.00000000000E+00 -0.45593999997E+02  0.45594000000E+02  0.51100000000E-03 0. -1.
         23    2    1    2    0    0  0.17763568394E-14  0.22204460493E-14  0.00000000000E+00  0.91188000000E+02  0.91188000000E+02 0.  0.
    9900012    2    3    3    0    0  0.10026961264E+02  0.22792486584E+01 -0.35355960270E+02  0.54367097604E+02  0.40000030608E+02 0.  0.
        -12    1    3    3    0    0 -0.10026961264E+02 -0.22792486584E+01  0.35355960270E+02  0.36820902396E+02  0.00000000000E+00 0.  1.
         11    1    4    4    0    0 -0.30751440555E+00  0.79950437121E+00 -0.32010444500E+01  0.33136774407E+01  0.51100000000E-03 0. -1.
        -11    1    4    4    0    0 -0.42968407056E+01 -0.98443965928E+01 -0.30665069474E+02  0.32491867758E+02  0.51100000000E-03 0.  1.
        -12    1    4    4    0    0  0.14631316375E+02  0.11324140880E+02 -0.14898463460E+01  0.18561552405E+02  0.00000000000E+00 0.  1.
</event>
<event>
 8    1  0.1253703E-006  0.9118800E+02  0.7816164E-02  0.1184000E+00
        -11   -1    0    0    0    0  0.00000000000E+00  0.00000000000E+00  0.45593999997E+02  0.45594000000E+02  0.51100000000E-03 0. -1.
         11   -1    0    0    0    0 -0.00000000000E+00 -0.00000000000E+00 -0.45593999997E+02  0.45594000000E+02  0.51100000000E-03 0.  1.
         23    2    1    2    0    0  0.88817841970E-15  0.71054273576E-14 -0.17763568394E-14  0.91188000000E+02  0.91188000000E+02 0.  0.
    9900012    2    3    3    0    0 -0.58859123957E+01 -0.35177026247E+02  0.91494443487E+01  0.54367089199E+02  0.40000011447E+02 0.  0.
         12    1    3    3    0    0  0.58859123957E+01  0.35177026247E+02 -0.91494443487E+01  0.36820910801E+02  0.00000000000E+00 0. -1.
         11    1    4    4    0    0  0.67843479993E+01 -0.14441660715E+01 -0.22722933060E+01  0.72990623060E+01  0.51100000000E-03 0. -1.
        -11    1    4    4    0    0  0.48587199937E+01 -0.98440663227E+01 -0.61862862129E+01  0.12600910249E+02  0.51100000000E-03 0.  1.
        -12    1    4    4    0    0 -0.17528980389E+02 -0.23888793853E+02  0.17608023868E+02  0.34467116644E+02  0.00000000000E+00 0.  1.
</event>
<event>
 8    1  0.1253703E-006  0.9118800E+02  0.7816164E-02  0.1184000E+00
        -11   -1    0    0    0    0  0.00000000000E+00  0.00000000000E+00  0.45593999997E+02  0.45594000000E+02  0.51100000000E-03 0.  1.
         11   -1    0    0    0    0 -0.00000000000E+00 -0.00000000000E+00 -0.45593999997E+02  0.45594000000E+02  0.51100000000E-03 0. -1.
         23    2    1    2    0    0  0.88817841970E-15  0.00000000000E+00  0.71054273576E-14  0.91188000000E+02  0.91188000000E+02 0.  0.
    9900012    2    3    3    0    0 -0.59763782878E+01 -0.32888317276E+01  0.36183464697E+02  0.54367127807E+02  0.40000099462E+02 0.  0.
         12    1    3    3    0    0  0.59763782878E+01  0.32888317276E+01 -0.36183464697E+02  0.36820872193E+02  0.00000000000E+00 0. -1.
         11    1    4    4    0    0  0.54665399855E+01 -0.10240435576E+01  0.52968105158E+01  0.76803597912E+01  0.51100000000E-03 0. -1.
        -11    1    4    4    0    0  0.82410198820E+01  0.90993375132E+01  0.10487867529E+02  0.16146445969E+02  0.51100000000E-03 0.  1.
         12    1    4    4    0    0 -0.19683938155E+02 -0.11364125683E+02  0.20398786652E+02  0.30540322047E+02  0.00000000000E+00 0. -1.
</event>
<event>
 8    1  0.1253703E-006  0.9118800E+02  0.7816164E-02  0.1184000E+00
        -11   -1    0    0    0    0  0.00000000000E+00  0.00000000000E+00  0.45593999997E+02  0.45594000000E+02  0.51100000000E-03 0.  1.
         11   -1    0    0    0    0 -0.00000000000E+00 -0.00000000000E+00 -0.45593999997E+02  0.45594000000E+02  0.51100000000E-03 0. -1.
         23    2    1    2    0    0 -0.71054273576E-14 -0.88817841970E-15  0.00000000000E+00  0.91188000000E+02  0.91188000000E+02 0.  0.
    9900012    2    3    3    0    0 -0.34193149998E+02  0.40435333272E+01 -0.13048256929E+02  0.54367099991E+02  0.40000036050E+02 0.  0.
        -12    1    3    3    0    0  0.34193149998E+02 -0.40435333272E+01  0.13048256929E+02  0.36820900009E+02  0.00000000000E+00 0.  1.
         11    1    4    4    0    0 -0.13235488707E+02  0.91008778147E+01 -0.58476868400E+01  0.17093846260E+02  0.51100000000E-03 0. -1.
        -11    1    4    4    0    0  0.32249108515E+01  0.36246444983E+01 -0.10307522922E+02  0.11392239762E+02  0.51100000000E-03 0.  1.
        -12    1    4    4    0    0 -0.24182572143E+02 -0.86819889859E+01  0.31069528329E+01  0.25881013969E+02  0.00000000000E+00 0.  1.
</event>
<event>
 8    1  0.1253703E-006  0.9118800E+02  0.7816164E-02  0.1184000E+00
        -11   -1    0    0    0    0  0.00000000000E+00  0.00000000000E+00  0.45593999997E+02  0.45594000000E+02  0.51100000000E-03 0. -1.
         11   -1    0    0    0    0 -0.00000000000E+00 -0.00000000000E+00 -0.45593999997E+02  0.45594000000E+02  0.51100000000E-03 0.  1.
         23    2    1    2    0    0 -0.35527136788E-14  0.00000000000E+00  0.00000000000E+00  0.91188000000E+02  0.91188000000E+02 0.  0.
    9900012    2    3    3    0    0 -0.27361904186E+02 -0.13703081033E+02 -0.20477597235E+02  0.54367079058E+02  0.39999988328E+02 0.  0.
         12    1    3    3    0    0  0.27361904186E+02  0.13703081033E+02  0.20477597235E+02  0.36820920942E+02  0.00000000000E+00 0. -1.
         11    1    4    4    0    0  0.40726912158E+01  0.71148302010E+01 -0.13572541749E+01  0.83096186245E+01  0.51100000000E-03 0. -1.
        -11    1    4    4    0    0 -0.15716600397E+02 -0.51297854421E+01  0.33088734353E+00  0.16535891673E+02  0.51100000000E-03 0.  1.
         12    1    4    4    0    0 -0.15717995005E+02 -0.15688125792E+02 -0.19451230404E+02  0.29521568760E+02  0.00000000000E+00 0. -1.
</event>
<event>
 8    1  0.1253703E-006  0.9118800E+02  0.7816164E-02  0.1184000E+00
        -11   -1    0    0    0    0  0.00000000000E+00  0.00000000000E+00  0.45593999997E+02  0.45594000000E+02  0.51100000000E-03 0. -1.
         11   -1    0    0    0    0 -0.00000000000E+00 -0.00000000000E+00 -0.45593999997E+02  0.45594000000E+02  0.51100000000E-03 0.  1.
         23    2    1    2    0    0  0.00000000000E+00  0.00000000000E+00  0.00000000000E+00  0.91188000000E+02  0.91188000000E+02 0.  0.
    9900012    2    3    3    0    0  0.28613915974E+02  0.16346928139E+02  0.16425645529E+02  0.54367080973E+02  0.39999992694E+02 0.  0.
        -12    1    3    3    0    0 -0.28613915974E+02 -0.16346928139E+02 -0.16425645529E+02  0.36820919027E+02  0.00000000000E+00 0.  1.
         11    1    4    4    0    0  0.34978346342E+02  0.81262936690E+01  0.13862092119E+02  0.38492583179E+02  0.51100000000E-03 0. -1.
        -11    1    4    4    0    0  0.25917912917E+01 -0.62138475304E+00 -0.91360217964E+00  0.28174758765E+01  0.51100000000E-03 0.  1.
         12    1    4    4    0    0 -0.89562216597E+01  0.88420192231E+01  0.34771555894E+01  0.13057021917E+02  0.00000000000E+00 0. -1.
</event>
<event>
 8    1  0.1253703E-006  0.9118800E+02  0.7816164E-02  0.1184000E+00
        -11   -1    0    0    0    0  0.00000000000E+00  0.00000000000E+00  0.45593999997E+02  0.45594000000E+02  0.51100000000E-03 0.  1.
         11   -1    0    0    0    0 -0.00000000000E+00 -0.00000000000E+00 -0.45593999997E+02  0.45594000000E+02  0.51100000000E-03 0. -1.
         23    2    1    2    0    0 -0.17763568394E-14  0.00000000000E+00  0.13322676296E-14  0.91188000000E+02  0.91188000000E+02 0.  0.
    9900012    2    3    3    0    0 -0.84033218467E+01  0.35672039480E+02  0.35593520258E+01  0.54367092820E+02  0.40000019701E+02 0.  0.
        -12    1    3    3    0    0  0.84033218467E+01 -0.35672039480E+02 -0.35593520258E+01  0.36820907180E+02  0.00000000000E+00 0.  1.
         11    1    4    4    0    0 -0.86402920947E+01  0.35423974523E+01 -0.28743338357E+01  0.97706203719E+01  0.51100000000E-03 0. -1.
        -11    1    4    4    0    0  0.99131171556E+01  0.48788491776E+00  0.58136808821E+01  0.11502469695E+02  0.51100000000E-03 0.  1.
        -12    1    4    4    0    0 -0.96761469075E+01  0.31641757110E+02  0.62000497936E+00  0.33094002752E+02  0.00000000000E+00 0.  1.
</event>
<event>
 8    1  0.1253703E-006  0.9118800E+02  0.7816164E-02  0.1184000E+00
        -11   -1    0    0    0    0  0.00000000000E+00  0.00000000000E+00  0.45593999997E+02  0.45594000000E+02  0.51100000000E-03 0.  1.
         11   -1    0    0    0    0 -0.00000000000E+00 -0.00000000000E+00 -0.45593999997E+02  0.45594000000E+02  0.51100000000E-03 0. -1.
         23    2    1    2    0    0  0.17763568394E-14 -0.88817841970E-15  0.00000000000E+00  0.91188000000E+02  0.91188000000E+02 0.  0.
    9900012    2    3    3    0    0 -0.13754788324E+02 -0.32918615085E+01  0.33996337429E+02  0.54367061491E+02  0.39999948282E+02 0.  0.
         12    1    3    3    0    0  0.13754788324E+02  0.32918615085E+01 -0.33996337429E+02  0.36820938509E+02  0.00000000000E+00 0. -1.
         11    1    4    4    0    0 -0.85041454779E+01 -0.30633724095E+01 -0.18099059551E+01  0.92184868962E+01  0.51100000000E-03 0. -1.
        -11    1    4    4    0    0  0.13057920206E+01  0.54869754153E+01  0.36009267715E+02  0.36448310711E+02  0.51100000000E-03 0.  1.
        -12    1    4    4    0    0 -0.65564348670E+01 -0.57154645143E+01 -0.20302433097E+00  0.87002638844E+01  0.00000000000E+00 0.  1.
</event>
<event>
 8    1  0.1253703E-006  0.9118800E+02  0.7816164E-02  0.1184000E+00
        -11   -1    0    0    0    0  0.00000000000E+00  0.00000000000E+00  0.45593999997E+02  0.45594000000E+02  0.51100000000E-03 0.  1.
         11   -1    0    0    0    0 -0.00000000000E+00 -0.00000000000E+00 -0.45593999997E+02  0.45594000000E+02  0.51100000000E-03 0. -1.
         23    2    1    2    0    0  0.00000000000E+00  0.00000000000E+00  0.00000000000E+00  0.91188000000E+02  0.91188000000E+02 0.  0.
    9900012    2    3    3    0    0  0.15103632093E+02  0.29497261289E+02  0.16049015986E+02  0.54367095067E+02  0.40000024825E+02 0.  0.
         12    1    3    3    0    0 -0.15103632093E+02 -0.29497261289E+02 -0.16049015986E+02  0.36820904933E+02  0.00000000000E+00 0. -1.
         11    1    4    4    0    0  0.11014658764E+01 -0.34298567011E+01  0.17472641122E+02  0.17840132625E+02  0.51100000000E-03 0. -1.
        -11    1    4    4    0    0  0.71981488813E+01  0.10325476793E+02  0.17612746097E+01  0.12709480982E+02  0.51100000000E-03 0.  1.
         12    1    4    4    0    0  0.68040173350E+01  0.22601641197E+02 -0.31848997455E+01  0.23817481460E+02  0.00000000000E+00 0. -1.
</event>
<event>
 8    1  0.1253703E-006  0.9118800E+02  0.7816164E-02  0.1184000E+00
        -11   -1    0    0    0    0  0.00000000000E+00  0.00000000000E+00  0.45593999997E+02  0.45594000000E+02  0.51100000000E-03 0.  1.
         11   -1    0    0    0    0 -0.00000000000E+00 -0.00000000000E+00 -0.45593999997E+02  0.45594000000E+02  0.51100000000E-03 0. -1.
         23    2    1    2    0    0  0.00000000000E+00  0.00000000000E+00  0.26645352591E-14  0.91188000000E+02  0.91188000000E+02 0.  0.
    9900012    2    3    3    0    0 -0.23176114231E+01  0.36438528482E+02 -0.47584182310E+01  0.54367078980E+02  0.39999988152E+02 0.  0.
         12    1    3    3    0    0  0.23176114231E+01 -0.36438528482E+02  0.47584182310E+01  0.36820921020E+02  0.00000000000E+00 0. -1.
         11    1    4    4    0    0 -0.29284382485E+01  0.20594816540E+02 -0.14859452752E+02  0.25564145893E+02  0.51100000000E-03 0. -1.
        -11    1    4    4    0    0  0.51269496020E+01  0.18313255481E+02  0.18888218991E+01  0.19110954632E+02  0.51100000000E-03 0.  1.
        -12    1    4    4    0    0 -0.45161227766E+01 -0.24695435386E+01  0.82122126221E+01  0.96919784551E+01  0.00000000000E+00 0.  1.
</event>
<event>
 8    1  0.1253703E-006  0.9118800E+02  0.7816164E-02  0.1184000E+00
        -11   -1    0    0    0    0  0.00000000000E+00  0.00000000000E+00  0.45593999997E+02  0.45594000000E+02  0.51100000000E-03 0. -1.
         11   -1    0    0    0    0 -0.00000000000E+00 -0.00000000000E+00 -0.45593999997E+02  0.45594000000E+02  0.51100000000E-03 0.  1.
         23    2    1    2    0    0  0.00000000000E+00  0.88817841970E-15  0.00000000000E+00  0.91188000000E+02  0.91188000000E+02 0.  0.
    9900012    2    3    3    0    0  0.11113581937E+02  0.61991364316E+01 -0.34551961776E+02  0.54367094816E+02  0.40000024253E+02 0.  0.
         12    1    3    3    0    0 -0.11113581937E+02 -0.61991364316E+01  0.34551961776E+02  0.36820905184E+02  0.00000000000E+00 0. -1.
         11    1    4    4    0    0  0.58996965890E+01 -0.12923862923E+02 -0.20158198056E+02  0.24661419298E+02  0.51100000000E-03 0. -1.
        -11    1    4    4    0    0  0.36262902947E+00  0.20096008945E+02 -0.80282259134E+01  0.21643324304E+02  0.51100000000E-03 0.  1.
         12    1    4    4    0    0  0.48512563189E+01 -0.97300959098E+00 -0.63655378068E+01  0.80623512145E+01  0.00000000000E+00 0. -1.
</event>
<event>
 8    1  0.1253703E-006  0.9118800E+02  0.7816164E-02  0.1184000E+00
        -11   -1    0    0    0    0  0.00000000000E+00  0.00000000000E+00  0.45593999997E+02  0.45594000000E+02  0.51100000000E-03 0.  1.
         11   -1    0    0    0    0 -0.00000000000E+00 -0.00000000000E+00 -0.45593999997E+02  0.45594000000E+02  0.51100000000E-03 0. -1.
         23    2    1    2    0    0  0.00000000000E+00  0.00000000000E+00  0.00000000000E+00  0.91188000000E+02  0.91188000000E+02 0.  0.
    9900012    2    3    3    0    0  0.88846820522E+01  0.13720217108E+02  0.32993946690E+02  0.54367048752E+02  0.39999919240E+02 0.  0.
         12    1    3    3    0    0 -0.88846820522E+01 -0.13720217108E+02 -0.32993946690E+02  0.36820951248E+02  0.00000000000E+00 0. -1.
         11    1    4    4    0    0  0.14492857425E+01  0.52530711709E+01 -0.32703014777E+01  0.63553172939E+01  0.51100000000E-03 0. -1.
        -11    1    4    4    0    0 -0.52487398420E+01  0.10201328932E+02  0.22809012982E+01  0.11696960841E+02  0.51100000000E-03 0.  1.
        -12    1    4    4    0    0  0.12684136152E+02 -0.17341829956E+01  0.33983346869E+02  0.36314770617E+02  0.00000000000E+00 0.  1.
</event>
<event>
 8    1  0.1253703E-006  0.9118800E+02  0.7816164E-02  0.1184000E+00
        -11   -1    0    0    0    0  0.00000000000E+00  0.00000000000E+00  0.45593999997E+02  0.45594000000E+02  0.51100000000E-03 0.  1.
         11   -1    0    0    0    0 -0.00000000000E+00 -0.00000000000E+00 -0.45593999997E+02  0.45594000000E+02  0.51100000000E-03 0. -1.
         23    2    1    2    0    0 -0.44408920985E-15  0.35527136788E-14  0.00000000000E+00  0.91188000000E+02  0.91188000000E+02 0.  0.
    9900012    2    3    3    0    0  0.39620418580E+01  0.20266525321E+02  0.30485243535E+02  0.54367083422E+02  0.39999998277E+02 0.  0.
        -12    1    3    3    0    0 -0.39620418580E+01 -0.20266525321E+02 -0.30485243535E+02  0.36820916578E+02  0.00000000000E+00 0.  1.
         11    1    4    4    0    0  0.53822902434E+01 -0.23646444252E+01 -0.84139715415E+00  0.59387322683E+01  0.51100000000E-03 0. -1.
        -11    1    4    4    0    0  0.34865644760E+01  0.28684397104E+02  0.26834643540E+02  0.39434107867E+02  0.51100000000E-03 0.  1.
        -12    1    4    4    0    0 -0.49068128615E+01 -0.60532273582E+01  0.44919971495E+01  0.89942432866E+01  0.00000000000E+00 0.  1.
</event>
<event>
 8    1  0.1253703E-006  0.9118800E+02  0.7816164E-02  0.1184000E+00
        -11   -1    0    0    0    0  0.00000000000E+00  0.00000000000E+00  0.45593999997E+02  0.45594000000E+02  0.51100000000E-03 0.  1.
         11   -1    0    0    0    0 -0.00000000000E+00 -0.00000000000E+00 -0.45593999997E+02  0.45594000000E+02  0.51100000000E-03 0. -1.
         23    2    1    2    0    0 -0.17763568394E-14  0.00000000000E+00  0.00000000000E+00  0.91188000000E+02  0.91188000000E+02 0.  0.
    9900012    2    3    3    0    0  0.14528059347E+02 -0.25177403309E+02 -0.22601192751E+02  0.54367081224E+02  0.39999993265E+02 0.  0.
        -12    1    3    3    0    0 -0.14528059347E+02  0.25177403309E+02  0.22601192751E+02  0.36820918776E+02  0.00000000000E+00 0.  1.
         11    1    4    4    0    0 -0.37683060154E+01 -0.13297440447E+02 -0.40516367291E+01  0.14402701591E+02  0.51100000000E-03 0. -1.
        -11    1    4    4    0    0  0.14782953678E+02  0.47139761480E+01 -0.98614960583E+00  0.15547661621E+02  0.51100000000E-03 0.  1.
        -12    1    4    4    0    0  0.35134116840E+01 -0.16593939010E+02 -0.17563406416E+02  0.24416718012E+02  0.00000000000E+00 0.  1.
</event>
<event>
 8    1  0.1253703E-006  0.9118800E+02  0.7816164E-02  0.1184000E+00
        -11   -1    0    0    0    0  0.00000000000E+00  0.00000000000E+00  0.45593999997E+02  0.45594000000E+02  0.51100000000E-03 0. -1.
         11   -1    0    0    0    0 -0.00000000000E+00 -0.00000000000E+00 -0.45593999997E+02  0.45594000000E+02  0.51100000000E-03 0.  1.
         23    2    1    2    0    0  0.88817841970E-15  0.88817841970E-15  0.00000000000E+00  0.91188000000E+02  0.91188000000E+02 0.  0.
    9900012    2    3    3    0    0  0.53826092795E+01 -0.19375361673E+01  0.36373815515E+02  0.54367068667E+02  0.39999964641E+02 0.  0.
        -12    1    3    3    0    0 -0.53826092795E+01  0.19375361673E+01 -0.36373815515E+02  0.36820931333E+02  0.00000000000E+00 0.  1.
         11    1    4    4    0    0  0.11927740081E+02 -0.32455450173E+01  0.79843774498E+01  0.14715802031E+02  0.51100000000E-03 0. -1.
        -11    1    4    4    0    0 -0.61618387265E+01  0.62827513170E+01 -0.18588325713E+01  0.89942470164E+01  0.51100000000E-03 0.  1.
        -12    1    4    4    0    0 -0.38329207510E+00 -0.49747424670E+01  0.30248270637E+02  0.30657019620E+02  0.00000000000E+00 0.  1.
</event>
<event>
 8    1  0.1253703E-006  0.9118800E+02  0.7816164E-02  0.1184000E+00
        -11   -1    0    0    0    0  0.00000000000E+00  0.00000000000E+00  0.45593999997E+02  0.45594000000E+02  0.51100000000E-03 0.  1.
         11   -1    0    0    0    0 -0.00000000000E+00 -0.00000000000E+00 -0.45593999997E+02  0.45594000000E+02  0.51100000000E-03 0. -1.
         23    2    1    2    0    0 -0.35527136788E-14  0.00000000000E+00 -0.35527136788E-14  0.91188000000E+02  0.91188000000E+02 0.  0.
    9900012    2    3    3    0    0  0.10351439549E+02  0.20604672013E+02  0.28706689989E+02  0.54367097517E+02  0.40000030409E+02 0.  0.
         12    1    3    3    0    0 -0.10351439549E+02 -0.20604672013E+02 -0.28706689989E+02  0.36820902483E+02  0.00000000000E+00 0. -1.
         11    1    4    4    0    0  0.20430694857E+02  0.15555385593E+02  0.20663253494E+02  0.32959874977E+02  0.51100000000E-03 0. -1.
        -11    1    4    4    0    0 -0.97003872802E+01  0.39650177047E+01  0.12783567091E+02  0.16529926394E+02  0.51100000000E-03 0.  1.
        -12    1    4    4    0    0 -0.37886802787E+00  0.10842687159E+01 -0.47401305952E+01  0.48772961454E+01  0.00000000000E+00 0.  1.
</event>
<event>
 8    1  0.1253703E-006  0.9118800E+02  0.7816164E-02  0.1184000E+00
        -11   -1    0    0    0    0  0.00000000000E+00  0.00000000000E+00  0.45593999997E+02  0.45594000000E+02  0.51100000000E-03 0. -1.
         11   -1    0    0    0    0 -0.00000000000E+00 -0.00000000000E+00 -0.45593999997E+02  0.45594000000E+02  0.51100000000E-03 0.  1.
         23    2    1    2    0    0  0.35527136788E-14  0.35527136788E-14  0.00000000000E+00  0.91188000000E+02  0.91188000000E+02 0.  0.
    9900012    2    3    3    0    0 -0.23932627965E+02 -0.25486714303E+02  0.11551404426E+02  0.54367106047E+02  0.40000049856E+02 0.  0.
         12    1    3    3    0    0  0.23932627965E+02  0.25486714303E+02 -0.11551404426E+02  0.36820893953E+02  0.00000000000E+00 0. -1.
         11    1    4    4    0    0 -0.18259977226E+02 -0.33184555639E+02  0.14333438817E+02  0.40498011924E+02  0.51100000000E-03 0.  1.
        -11    1    4    4    0    0  0.19576399953E+01 -0.84132527045E+00 -0.30231073757E+00  0.21521093385E+01  0.51100000000E-03 0. -1.
         12    1    4    4    0    0 -0.76302907349E+01  0.85391666068E+01 -0.24797236530E+01  0.11716984784E+02  0.00000000000E+00 0. -1.
</event>
<event>
 8    1  0.1253703E-006  0.9118800E+02  0.7816164E-02  0.1184000E+00
        -11   -1    0    0    0    0  0.00000000000E+00  0.00000000000E+00  0.45593999997E+02  0.45594000000E+02  0.51100000000E-03 0.  1.
         11   -1    0    0    0    0 -0.00000000000E+00 -0.00000000000E+00 -0.45593999997E+02  0.45594000000E+02  0.51100000000E-03 0. -1.
         23    2    1    2    0    0  0.00000000000E+00 -0.71054273576E-14  0.00000000000E+00  0.91188000000E+02  0.91188000000E+02 0.  0.
    9900012    2    3    3    0    0  0.52311140861E+01 -0.17765113373E+02  0.31824786932E+02  0.54367070204E+02  0.39999968145E+02 0.  0.
        -12    1    3    3    0    0 -0.52311140861E+01  0.17765113373E+02 -0.31824786932E+02  0.36820929796E+02  0.00000000000E+00 0.  1.
         11    1    4    4    0    0  0.27579437339E+01  0.10072223209E+02  0.16735526761E+02  0.19726474349E+02  0.51100000000E-03 0.  1.
        -11    1    4    4    0    0  0.39412374568E+01 -0.23704669661E+02  0.63379494662E+01  0.24851847418E+02  0.51100000000E-03 0. -1.
         12    1    4    4    0    0 -0.14680671046E+01 -0.41326669214E+01  0.87513107047E+01  0.97887484367E+01  0.00000000000E+00 0. -1.
</event>
<event>
 8    1  0.1253703E-006  0.9118800E+02  0.7816164E-02  0.1184000E+00
        -11   -1    0    0    0    0  0.00000000000E+00  0.00000000000E+00  0.45593999997E+02  0.45594000000E+02  0.51100000000E-03 0. -1.
         11   -1    0    0    0    0 -0.00000000000E+00 -0.00000000000E+00 -0.45593999997E+02  0.45594000000E+02  0.51100000000E-03 0.  1.
         23    2    1    2    0    0  0.00000000000E+00  0.71054273576E-14  0.00000000000E+00  0.91188000000E+02  0.91188000000E+02 0.  0.
    9900012    2    3    3    0    0  0.12346317281E+02 -0.32122493296E+02 -0.13095547255E+02  0.54367089040E+02  0.40000011085E+02 0.  0.
         12    1    3    3    0    0 -0.12346317281E+02  0.32122493296E+02  0.13095547255E+02  0.36820910960E+02  0.00000000000E+00 0. -1.
         11    1    4    4    0    0  0.16512389474E+02  0.28795594523E+01 -0.63392016946E+01  0.17920277541E+02  0.51100000000E-03 0. -1.
        -11    1    4    4    0    0 -0.30356587739E+01 -0.58201697777E+01 -0.52184105347E+00  0.65849767486E+01  0.51100000000E-03 0.  1.
         12    1    4    4    0    0 -0.11304134185E+01 -0.29181882971E+02 -0.62345045069E+01  0.29861834751E+02  0.00000000000E+00 0. -1.
</event>
<event>
 8    1  0.1253703E-006  0.9118800E+02  0.7816164E-02  0.1184000E+00
        -11   -1    0    0    0    0  0.00000000000E+00  0.00000000000E+00  0.45593999997E+02  0.45594000000E+02  0.51100000000E-03 0. -1.
         11   -1    0    0    0    0 -0.00000000000E+00 -0.00000000000E+00 -0.45593999997E+02  0.45594000000E+02  0.51100000000E-03 0.  1.
         23    2    1    2    0    0  0.00000000000E+00 -0.17763568394E-14  0.00000000000E+00  0.91188000000E+02  0.91188000000E+02 0.  0.
    9900012    2    3    3    0    0 -0.24804182333E+02 -0.14724193059E+02  0.22884989964E+02  0.54367189470E+02  0.40000240034E+02 0.  0.
        -12    1    3    3    0    0  0.24804182333E+02  0.14724193059E+02 -0.22884989964E+02  0.36820810530E+02  0.00000000000E+00 0.  1.
         11    1    4    4    0    0 -0.78512331521E+00 -0.96944722791E+01  0.12343729586E+02  0.15715179660E+02  0.51100000000E-03 0. -1.
        -11    1    4    4    0    0 -0.17728582702E+00 -0.10079508666E+02 -0.33218239553E+01  0.10614256444E+02  0.51100000000E-03 0.  1.
         12    1    4    4    0    0 -0.23841773190E+02  0.50497878865E+01  0.13863084333E+02  0.28037753366E+02  0.00000000000E+00 0. -1.
</event>
<event>
 8    1  0.1253703E-006  0.9118800E+02  0.7816164E-02  0.1184000E+00
        -11   -1    0    0    0    0  0.00000000000E+00  0.00000000000E+00  0.45593999997E+02  0.45594000000E+02  0.51100000000E-03 0.  1.
         11   -1    0    0    0    0 -0.00000000000E+00 -0.00000000000E+00 -0.45593999997E+02  0.45594000000E+02  0.51100000000E-03 0. -1.
         23    2    1    2    0    0  0.17763568394E-14  0.00000000000E+00  0.00000000000E+00  0.91188000000E+02  0.91188000000E+02 0.  0.
    9900012    2    3    3    0    0  0.14734081733E+02 -0.11942420680E+02  0.31560473708E+02  0.54367108147E+02  0.40000054643E+02 0.  0.
         12    1    3    3    0    0 -0.14734081733E+02  0.11942420680E+02 -0.31560473708E+02  0.36820891853E+02  0.00000000000E+00 0. -1.
         11    1    4    4    0    0  0.71592268140E+01 -0.28862790704E+01 -0.41347559667E+01  0.87567883731E+01  0.51100000000E-03 0. -1.
        -11    1    4    4    0    0  0.11616887517E+02 -0.10357937068E+02  0.78286033487E+01  0.17421996629E+02  0.51100000000E-03 0.  1.
        -12    1    4    4    0    0 -0.40420325982E+01  0.13017954586E+01  0.27866626326E+02  0.28188323145E+02  0.00000000000E+00 0.  1.
</event>
<event>
 8    1  0.1253703E-006  0.9118800E+02  0.7816164E-02  0.1184000E+00
        -11   -1    0    0    0    0  0.00000000000E+00  0.00000000000E+00  0.45593999997E+02  0.45594000000E+02  0.51100000000E-03 0.  1.
         11   -1    0    0    0    0 -0.00000000000E+00 -0.00000000000E+00 -0.45593999997E+02  0.45594000000E+02  0.51100000000E-03 0. -1.
         23    2    1    2    0    0  0.00000000000E+00 -0.71054273576E-14 -0.88817841970E-15  0.91188000000E+02  0.91188000000E+02 0.  0.
    9900012    2    3    3    0    0  0.29854994429E+02 -0.21449166433E+02 -0.20956169989E+01  0.54367095018E+02  0.40000024714E+02 0.  0.
        -12    1    3    3    0    0 -0.29854994429E+02  0.21449166433E+02  0.20956169989E+01  0.36820904982E+02  0.00000000000E+00 0.  1.
         11    1    4    4    0    0  0.30741420316E+02 -0.65137315006E+01 -0.46147067685E+01  0.31760968813E+02  0.51100000000E-03 0. -1.
        -11    1    4    4    0    0 -0.56042334080E+01 -0.14408868646E+01 -0.38559929798E+01  0.69535795940E+01  0.51100000000E-03 0.  1.
        -12    1    4    4    0    0  0.47178075214E+01 -0.13494548068E+02  0.63750827495E+01  0.15652546612E+02  0.00000000000E+00 0.  1.
</event>
<event>
 8    1  0.1253703E-006  0.9118800E+02  0.7816164E-02  0.1184000E+00
        -11   -1    0    0    0    0  0.00000000000E+00  0.00000000000E+00  0.45593999997E+02  0.45594000000E+02  0.51100000000E-03 0.  1.
         11   -1    0    0    0    0 -0.00000000000E+00 -0.00000000000E+00 -0.45593999997E+02  0.45594000000E+02  0.51100000000E-03 0. -1.
         23    2    1    2    0    0 -0.35527136788E-14  0.00000000000E+00  0.88817841970E-15  0.91188000000E+02  0.91188000000E+02 0.  0.
    9900012    2    3    3    0    0  0.23648027367E+02 -0.27280128685E+02 -0.72350128353E+01  0.54367081622E+02  0.39999994175E+02 0.  0.
        -12    1    3    3    0    0 -0.23648027367E+02  0.27280128685E+02  0.72350128353E+01  0.36820918378E+02  0.00000000000E+00 0.  1.
         11    1    4    4    0    0  0.29656778499E+02 -0.24041952855E+02 -0.93681620829E+01  0.39310335398E+02  0.51100000000E-03 0. -1.
        -11    1    4    4    0    0  0.20126755650E+01  0.33848010084E+01  0.24709213578E+01  0.46489991841E+01  0.51100000000E-03 0.  1.
         12    1    4    4    0    0 -0.80214266970E+01 -0.66229768387E+01 -0.33777211019E+00  0.10407747041E+02  0.00000000000E+00 0. -1.
</event>
<event>
 8    1  0.1253703E-006  0.9118800E+02  0.7816164E-02  0.1184000E+00
        -11   -1    0    0    0    0  0.00000000000E+00  0.00000000000E+00  0.45593999997E+02  0.45594000000E+02  0.51100000000E-03 0.  1.
         11   -1    0    0    0    0 -0.00000000000E+00 -0.00000000000E+00 -0.45593999997E+02  0.45594000000E+02  0.51100000000E-03 0. -1.
         23    2    1    2    0    0  0.88817841970E-15 -0.35527136788E-14  0.00000000000E+00  0.91188000000E+02  0.91188000000E+02 0.  0.
    9900012    2    3    3    0    0  0.77730892097E+01  0.15017696309E+02  0.32708231301E+02  0.54367075064E+02  0.39999979224E+02 0.  0.
         12    1    3    3    0    0 -0.77730892097E+01 -0.15017696309E+02 -0.32708231301E+02  0.36820924936E+02  0.00000000000E+00 0. -1.
         11    1    4    4    0    0  0.68463347651E+01  0.60943103547E+01  0.12929306570E+02  0.15848655686E+02  0.51100000000E-03 0. -1.
        -11    1    4    4    0    0  0.55821941969E+01 -0.84497369847E+01  0.17726831450E+02  0.20415668019E+02  0.51100000000E-03 0.  1.
         12    1    4    4    0    0 -0.46554397523E+01  0.17373122939E+02  0.20520932816E+01  0.18102751359E+02  0.00000000000E+00 0. -1.
</event>
<event>
 8    1  0.1253703E-006  0.9118800E+02  0.7816164E-02  0.1184000E+00
        -11   -1    0    0    0    0  0.00000000000E+00  0.00000000000E+00  0.45593999997E+02  0.45594000000E+02  0.51100000000E-03 0.  1.
         11   -1    0    0    0    0 -0.00000000000E+00 -0.00000000000E+00 -0.45593999997E+02  0.45594000000E+02  0.51100000000E-03 0. -1.
         23    2    1    2    0    0  0.00000000000E+00  0.17763568394E-14  0.35527136788E-14  0.91188000000E+02  0.91188000000E+02 0.  0.
    9900012    2    3    3    0    0  0.21334788717E+02 -0.11831911344E+02 -0.27579226826E+02  0.54367067258E+02  0.39999961428E+02 0.  0.
        -12    1    3    3    0    0 -0.21334788717E+02  0.11831911344E+02  0.27579226826E+02  0.36820932742E+02  0.00000000000E+00 0.  1.
         11    1    4    4    0    0  0.88593326865E+00 -0.13743368289E+02 -0.18131121824E+02  0.22768456876E+02  0.51100000000E-03 0. -1.
        -11    1    4    4    0    0  0.17689011430E+02 -0.46941987644E+01  0.16675277007E+01  0.18377085631E+02  0.51100000000E-03 0.  1.
        -12    1    4    4    0    0  0.27598440191E+01  0.66056557091E+01 -0.11115632703E+02  0.13221524751E+02  0.00000000000E+00 0.  1.
</event>
<event>
 8    1  0.1253703E-006  0.9118800E+02  0.7816164E-02  0.1184000E+00
        -11   -1    0    0    0    0  0.00000000000E+00  0.00000000000E+00  0.45593999997E+02  0.45594000000E+02  0.51100000000E-03 0.  1.
         11   -1    0    0    0    0 -0.00000000000E+00 -0.00000000000E+00 -0.45593999997E+02  0.45594000000E+02  0.51100000000E-03 0. -1.
         23    2    1    2    0    0  0.17763568394E-14  0.00000000000E+00 -0.88817841970E-15  0.91188000000E+02  0.91188000000E+02 0.  0.
    9900012    2    3    3    0    0 -0.15851997582E+02 -0.32826401793E+02  0.51893998179E+01  0.54366968612E+02  0.39999736544E+02 0.  0.
        -12    1    3    3    0    0  0.15851997582E+02  0.32826401793E+02 -0.51893998179E+01  0.36821031388E+02  0.00000000000E+00 0.  1.
         11    1    4    4    0    0  0.79402811914E+01 -0.16138858204E+02 -0.14607232914E+00  0.17986999386E+02  0.51100000000E-03 0. -1.
        -11    1    4    4    0    0 -0.11729900708E+02  0.34998883348E+01 -0.10858266511E+00  0.12241387970E+02  0.51100000000E-03 0.  1.
         12    1    4    4    0    0 -0.12062378066E+02 -0.20187431923E+02  0.54440548122E+01  0.24138581256E+02  0.00000000000E+00 0. -1.
</event>
<event>
 8    1  0.1253703E-006  0.9118800E+02  0.7816164E-02  0.1184000E+00
        -11   -1    0    0    0    0  0.00000000000E+00  0.00000000000E+00  0.45593999997E+02  0.45594000000E+02  0.51100000000E-03 0.  1.
         11   -1    0    0    0    0 -0.00000000000E+00 -0.00000000000E+00 -0.45593999997E+02  0.45594000000E+02  0.51100000000E-03 0. -1.
         23    2    1    2    0    0  0.71054273576E-14  0.35527136788E-14  0.17763568394E-14  0.91188000000E+02  0.91188000000E+02 0.  0.
    9900012    2    3    3    0    0 -0.32862710190E+02 -0.12465130711E+02  0.10974659943E+02  0.54367077068E+02  0.39999983792E+02 0.  0.
        -12    1    3    3    0    0  0.32862710190E+02  0.12465130711E+02 -0.10974659943E+02  0.36820922932E+02  0.00000000000E+00 0.  1.
         11    1    4    4    0    0 -0.66422714767E+01 -0.13191128720E+02  0.35799790748E+01  0.15196772609E+02  0.51100000000E-03 0. -1.
        -11    1    4    4    0    0 -0.80379500328E+01  0.12145627699E+02  0.98152282162E+01  0.17563132355E+02  0.51100000000E-03 0.  1.
        -12    1    4    4    0    0 -0.18182488681E+02 -0.11419629690E+02 -0.24205473477E+01  0.21607172104E+02  0.00000000000E+00 0.  1.
</event>
<event>
 8    1  0.1253703E-006  0.9118800E+02  0.7816164E-02  0.1184000E+00
        -11   -1    0    0    0    0  0.00000000000E+00  0.00000000000E+00  0.45593999997E+02  0.45594000000E+02  0.51100000000E-03 0. -1.
         11   -1    0    0    0    0 -0.00000000000E+00 -0.00000000000E+00 -0.45593999997E+02  0.45594000000E+02  0.51100000000E-03 0.  1.
         23    2    1    2    0    0  0.88817841970E-15 -0.71054273576E-14  0.00000000000E+00  0.91188000000E+02  0.91188000000E+02 0.  0.
    9900012    2    3    3    0    0  0.70422988080E+01 -0.33560920746E+02 -0.13410845521E+02  0.54367079976E+02  0.39999990421E+02 0.  0.
        -12    1    3    3    0    0 -0.70422988080E+01  0.33560920746E+02  0.13410845521E+02  0.36820920024E+02  0.00000000000E+00 0.  1.
         11    1    4    4    0    0 -0.14248759414E+00  0.15669647153E+01 -0.57640017680E+01  0.59748973026E+01  0.51100000000E-03 0. -1.
        -11    1    4    4    0    0 -0.62398914940E+01  0.20033684250E+01  0.34127236539E+01  0.73889386181E+01  0.51100000000E-03 0.  1.
         12    1    4    4    0    0  0.13424677896E+02 -0.37131253887E+02 -0.11059567407E+02  0.41003244055E+02  0.00000000000E+00 0. -1.
</event>
<event>
 8    1  0.1253703E-006  0.9118800E+02  0.7816164E-02  0.1184000E+00
        -11   -1    0    0    0    0  0.00000000000E+00  0.00000000000E+00  0.45593999997E+02  0.45594000000E+02  0.51100000000E-03 0.  1.
         11   -1    0    0    0    0 -0.00000000000E+00 -0.00000000000E+00 -0.45593999997E+02  0.45594000000E+02  0.51100000000E-03 0. -1.
         23    2    1    2    0    0 -0.35527136788E-14  0.00000000000E+00 -0.71054273576E-14  0.91188000000E+02  0.91188000000E+02 0.  0.
    9900012    2    3    3    0    0  0.14196490754E+02 -0.20682166522E+01  0.33911111178E+02  0.54367063955E+02  0.39999953899E+02 0.  0.
         12    1    3    3    0    0 -0.14196490754E+02  0.20682166522E+01 -0.33911111178E+02  0.36820936045E+02  0.00000000000E+00 0. -1.
         11    1    4    4    0    0 -0.84030619987E+00 -0.61951975936E+01  0.44364110197E+01  0.76660505301E+01  0.51100000000E-03 0. -1.
        -11    1    4    4    0    0  0.45304305754E+01  0.13022093676E+02 -0.41461984310E+00  0.13793898462E+02  0.51100000000E-03 0.  1.
         12    1    4    4    0    0  0.10506366379E+02 -0.88951127343E+01  0.29889320002E+02  0.32907114963E+02  0.00000000000E+00 0. -1.
</event>
<event>
 8    1  0.1253703E-006  0.9118800E+02  0.7816164E-02  0.1184000E+00
        -11   -1    0    0    0    0  0.00000000000E+00  0.00000000000E+00  0.45593999997E+02  0.45594000000E+02  0.51100000000E-03 0.  1.
         11   -1    0    0    0    0 -0.00000000000E+00 -0.00000000000E+00 -0.45593999997E+02  0.45594000000E+02  0.51100000000E-03 0. -1.
         23    2    1    2    0    0  0.00000000000E+00 -0.55511151231E-15  0.00000000000E+00  0.91188000000E+02  0.91188000000E+02 0.  0.
    9900012    2    3    3    0    0  0.27630202170E+02 -0.81920728530E+00 -0.24324477324E+02  0.54367090593E+02  0.40000014624E+02 0.  0.
        -12    1    3    3    0    0 -0.27630202170E+02  0.81920728530E+00  0.24324477324E+02  0.36820909407E+02  0.00000000000E+00 0.  1.
         11    1    4    4    0    0  0.22781765569E+02  0.59147049899E+01 -0.57382663482E+01  0.24226437594E+02  0.51100000000E-03 0. -1.
        -11    1    4    4    0    0  0.31679135941E+01  0.65530575737E+01 -0.58003395632E-01  0.72788463893E+01  0.51100000000E-03 0.  1.
        -12    1    4    4    0    0  0.16805230070E+01 -0.13286969849E+02 -0.18528207580E+02  0.22861806610E+02  0.00000000000E+00 0.  1.
</event>
<event>
 8    1  0.1253703E-006  0.9118800E+02  0.7816164E-02  0.1184000E+00
        -11   -1    0    0    0    0  0.00000000000E+00  0.00000000000E+00  0.45593999997E+02  0.45594000000E+02  0.51100000000E-03 0.  1.
         11   -1    0    0    0    0 -0.00000000000E+00 -0.00000000000E+00 -0.45593999997E+02  0.45594000000E+02  0.51100000000E-03 0. -1.
         23    2    1    2    0    0  0.00000000000E+00 -0.35527136788E-14  0.17763568394E-14  0.91188000000E+02  0.91188000000E+02 0.  0.
    9900012    2    3    3    0    0  0.35347970150E+02  0.13050012564E+01  0.10227423006E+02  0.54367052112E+02  0.39999926900E+02 0.  0.
         12    1    3    3    0    0 -0.35347970150E+02 -0.13050012564E+01 -0.10227423006E+02  0.36820947888E+02  0.00000000000E+00 0. -1.
         11    1    4    4    0    0  0.27647173204E+02  0.16828554937E+02  0.51464643063E+01  0.32772740846E+02  0.51100000000E-03 0. -1.
        -11    1    4    4    0    0  0.68481554388E+01 -0.44506359157E+01  0.64465508212E+01  0.10404970481E+02  0.51100000000E-03 0.  1.
         12    1    4    4    0    0  0.85264150697E+00 -0.11072917765E+02 -0.13655921213E+01  0.11189340785E+02  0.00000000000E+00 0. -1.
</event>
<event>
 8    1  0.1253703E-006  0.9118800E+02  0.7816164E-02  0.1184000E+00
        -11   -1    0    0    0    0  0.00000000000E+00  0.00000000000E+00  0.45593999997E+02  0.45594000000E+02  0.51100000000E-03 0.  1.
         11   -1    0    0    0    0 -0.00000000000E+00 -0.00000000000E+00 -0.45593999997E+02  0.45594000000E+02  0.51100000000E-03 0. -1.
         23    2    1    2    0    0  0.35527136788E-14  0.00000000000E+00 -0.11241008124E-14  0.91188000000E+02  0.91188000000E+02 0.  0.
    9900012    2    3    3    0    0 -0.30814022042E+02  0.20156301975E+02 -0.18058682134E-01  0.54367071306E+02  0.39999970657E+02 0.  0.
         12    1    3    3    0    0  0.30814022042E+02 -0.20156301975E+02  0.18058682134E-01  0.36820928694E+02  0.00000000000E+00 0. -1.
         11    1    4    4    0    0 -0.43866073490E+01  0.39134087006E+01  0.13518657292E+01  0.60319675814E+01  0.51100000000E-03 0. -1.
        -11    1    4    4    0    0 -0.16868449922E+02  0.53621787367E+01 -0.18700850237E+02  0.25749162383E+02  0.51100000000E-03 0.  1.
        -12    1    4    4    0    0 -0.95589647710E+01  0.10880714538E+02  0.17330925825E+02  0.22585941342E+02  0.00000000000E+00 0.  1.
</event>
<event>
 8    1  0.1253703E-006  0.9118800E+02  0.7816164E-02  0.1184000E+00
        -11   -1    0    0    0    0  0.00000000000E+00  0.00000000000E+00  0.45593999997E+02  0.45594000000E+02  0.51100000000E-03 0. -1.
         11   -1    0    0    0    0 -0.00000000000E+00 -0.00000000000E+00 -0.45593999997E+02  0.45594000000E+02  0.51100000000E-03 0.  1.
         23    2    1    2    0    0  0.00000000000E+00  0.00000000000E+00  0.00000000000E+00  0.91188000000E+02  0.91188000000E+02 0.  0.
    9900012    2    3    3    0    0  0.94959636195E+01  0.24680765104E+02  0.25621605636E+02  0.54367079770E+02  0.39999989953E+02 0.  0.
        -12    1    3    3    0    0 -0.94959636195E+01 -0.24680765104E+02 -0.25621605636E+02  0.36820920230E+02  0.00000000000E+00 0.  1.
         11    1    4    4    0    0  0.12399089271E+02  0.27041434601E+02  0.25868745143E+02  0.39422944786E+02  0.51100000000E-03 0. -1.
        -11    1    4    4    0    0  0.31437838655E+01  0.32345550081E+01  0.36764462067E+01  0.58191047477E+01  0.51100000000E-03 0.  1.
        -12    1    4    4    0    0 -0.60469095173E+01 -0.55952245050E+01 -0.39235857137E+01  0.91250302370E+01  0.00000000000E+00 0.  1.
</event>
<event>
 8    1  0.1253703E-006  0.9118800E+02  0.7816164E-02  0.1184000E+00
        -11   -1    0    0    0    0  0.00000000000E+00  0.00000000000E+00  0.45593999997E+02  0.45594000000E+02  0.51100000000E-03 0. -1.
         11   -1    0    0    0    0 -0.00000000000E+00 -0.00000000000E+00 -0.45593999997E+02  0.45594000000E+02  0.51100000000E-03 0.  1.
         23    2    1    2    0    0  0.00000000000E+00  0.44408920985E-15  0.00000000000E+00  0.91188000000E+02  0.91188000000E+02 0.  0.
    9900012    2    3    3    0    0  0.27218867742E+02  0.21340397321E+01  0.24705457395E+02  0.54367075082E+02  0.39999979264E+02 0.  0.
         12    1    3    3    0    0 -0.27218867742E+02 -0.21340397321E+01 -0.24705457395E+02  0.36820924918E+02  0.00000000000E+00 0. -1.
         11    1    4    4    0    0  0.85880390047E+01 -0.14630468026E+01  0.24661554475E+02  0.26155060491E+02  0.51100000000E-03 0. -1.
        -11    1    4    4    0    0  0.69331053696E+01  0.74462434317E+01  0.85131727583E+01  0.13266069576E+02  0.51100000000E-03 0.  1.
         12    1    4    4    0    0  0.11697723367E+02 -0.38491568971E+01 -0.84692698385E+01  0.14945945015E+02  0.00000000000E+00 0. -1.
</event>
<event>
 8    1  0.1253703E-006  0.9118800E+02  0.7816164E-02  0.1184000E+00
        -11   -1    0    0    0    0  0.00000000000E+00  0.00000000000E+00  0.45593999997E+02  0.45594000000E+02  0.51100000000E-03 0. -1.
         11   -1    0    0    0    0 -0.00000000000E+00 -0.00000000000E+00 -0.45593999997E+02  0.45594000000E+02  0.51100000000E-03 0.  1.
         23    2    1    2    0    0  0.88817841970E-15  0.35527136788E-14  0.00000000000E+00  0.91188000000E+02  0.91188000000E+02 0.  0.
    9900012    2    3    3    0    0  0.75537509394E+01  0.22730418887E+02 -0.27965049762E+02  0.54367148512E+02  0.40000146663E+02 0.  0.
         12    1    3    3    0    0 -0.75537509394E+01 -0.22730418887E+02  0.27965049762E+02  0.36820851488E+02  0.00000000000E+00 0. -1.
         11    1    4    4    0    0  0.10141231241E+00  0.14874520198E+02 -0.11185720221E+02  0.18611339895E+02  0.51100000000E-03 0.  1.
        -11    1    4    4    0    0  0.14726504281E+02  0.13841123018E+02 -0.16884818672E+02  0.26335218180E+02  0.51100000000E-03 0. -1.
         12    1    4    4    0    0 -0.72741656537E+01 -0.59852243292E+01  0.10548913019E+00  0.94205904371E+01  0.00000000000E+00 0. -1.
</event>
<event>
 8    1  0.1253703E-006  0.9118800E+02  0.7816164E-02  0.1184000E+00
        -11   -1    0    0    0    0  0.00000000000E+00  0.00000000000E+00  0.45593999997E+02  0.45594000000E+02  0.51100000000E-03 0.  1.
         11   -1    0    0    0    0 -0.00000000000E+00 -0.00000000000E+00 -0.45593999997E+02  0.45594000000E+02  0.51100000000E-03 0. -1.
         23    2    1    2    0    0  0.35527136788E-14  0.53290705182E-14  0.35527136788E-14  0.91188000000E+02  0.91188000000E+02 0.  0.
    9900012    2    3    3    0    0 -0.30791444264E+02  0.10677617753E+02  0.17136354323E+02  0.54367092892E+02  0.40000019866E+02 0.  0.
         12    1    3    3    0    0  0.30791444264E+02 -0.10677617753E+02 -0.17136354323E+02  0.36820907108E+02  0.00000000000E+00 0. -1.
         11    1    4    4    0    0 -0.20074147441E+02  0.56352632992E+01  0.36634589691E+01  0.21169518649E+02  0.51100000000E-03 0. -1.
        -11    1    4    4    0    0  0.23401903366E+01 -0.99768054695E+01  0.28410737322E+01  0.10634135527E+02  0.51100000000E-03 0.  1.
        -12    1    4    4    0    0 -0.13057487160E+02  0.15019159923E+02  0.10631821622E+02  0.22563438717E+02  0.00000000000E+00 0.  1.
</event>
<event>
 8    1  0.1253703E-006  0.9118800E+02  0.7816164E-02  0.1184000E+00
        -11   -1    0    0    0    0  0.00000000000E+00  0.00000000000E+00  0.45593999997E+02  0.45594000000E+02  0.51100000000E-03 0.  1.
         11   -1    0    0    0    0 -0.00000000000E+00 -0.00000000000E+00 -0.45593999997E+02  0.45594000000E+02  0.51100000000E-03 0. -1.
         23    2    1    2    0    0  0.00000000000E+00 -0.44408920985E-15  0.00000000000E+00  0.91188000000E+02  0.91188000000E+02 0.  0.
    9900012    2    3    3    0    0 -0.27439576005E+02 -0.45299515854E+00  0.24548905740E+02  0.54367023519E+02  0.39999861717E+02 0.  0.
         12    1    3    3    0    0  0.27439576005E+02  0.45299515854E+00 -0.24548905740E+02  0.36820976481E+02  0.00000000000E+00 0. -1.
         11    1    4    4    0    0 -0.30884321586E+02 -0.70430076997E+00  0.74692682509E+01  0.31782500340E+02  0.51100000000E-03 0. -1.
        -11    1    4    4    0    0 -0.45858805788E+01 -0.26413459534E+01  0.10669461394E+02  0.11909845331E+02  0.51100000000E-03 0.  1.
        -12    1    4    4    0    0  0.80306261595E+01  0.28926515648E+01  0.64101760958E+01  0.10674677848E+02  0.00000000000E+00 0.  1.
</event>
<event>
 8    1  0.1253703E-006  0.9118800E+02  0.7816164E-02  0.1184000E+00
        -11   -1    0    0    0    0  0.00000000000E+00  0.00000000000E+00  0.45593999997E+02  0.45594000000E+02  0.51100000000E-03 0. -1.
         11   -1    0    0    0    0 -0.00000000000E+00 -0.00000000000E+00 -0.45593999997E+02  0.45594000000E+02  0.51100000000E-03 0.  1.
         23    2    1    2    0    0  0.00000000000E+00  0.00000000000E+00  0.35527136788E-14  0.91188000000E+02  0.91188000000E+02 0.  0.
    9900012    2    3    3    0    0 -0.43781016152E+01  0.29974192648E+02  0.20932310023E+02  0.54367060284E+02  0.39999945530E+02 0.  0.
         12    1    3    3    0    0  0.43781016152E+01 -0.29974192648E+02 -0.20932310023E+02  0.36820939716E+02  0.00000000000E+00 0. -1.
         11    1    4    4    0    0 -0.14332075806E+02  0.28143900725E+01  0.98010153794E+01  0.17589459660E+02  0.51100000000E-03 0. -1.
        -11    1    4    4    0    0  0.15065127081E+01 -0.30685764589E+01  0.24715725782E+01  0.42183424818E+01  0.51100000000E-03 0.  1.
        -12    1    4    4    0    0  0.84474614829E+01  0.30228379035E+02  0.86597220649E+01  0.32559258143E+02  0.00000000000E+00 0.  1.
</event>
<event>
 8    1  0.1253703E-006  0.9118800E+02  0.7816164E-02  0.1184000E+00
        -11   -1    0    0    0    0  0.00000000000E+00  0.00000000000E+00  0.45593999997E+02  0.45594000000E+02  0.51100000000E-03 0.  1.
         11   -1    0    0    0    0 -0.00000000000E+00 -0.00000000000E+00 -0.45593999997E+02  0.45594000000E+02  0.51100000000E-03 0. -1.
         23    2    1    2    0    0  0.26645352591E-14 -0.22204460493E-14  0.00000000000E+00  0.91188000000E+02  0.91188000000E+02 0.  0.
    9900012    2    3    3    0    0  0.61864092406E+01 -0.15321545223E+01 -0.36265125407E+02  0.54367102706E+02  0.40000042238E+02 0.  0.
        -12    1    3    3    0    0 -0.61864092406E+01  0.15321545223E+01  0.36265125407E+02  0.36820897294E+02  0.00000000000E+00 0.  1.
         11    1    4    4    0    0  0.36328901378E+01  0.30874622783E+01 -0.39877629250E+01  0.62155102349E+01  0.51100000000E-03 0. -1.
        -11    1    4    4    0    0  0.15719790785E+02 -0.12029103191E+02 -0.23318844793E+02  0.30587246830E+02  0.51100000000E-03 0.  1.
        -12    1    4    4    0    0 -0.13166271682E+02  0.74094863909E+01 -0.89585176891E+01  0.17564345640E+02  0.00000000000E+00 0.  1.
</event>
<event>
 8    1  0.1253703E-006  0.9118800E+02  0.7816164E-02  0.1184000E+00
        -11   -1    0    0    0    0  0.00000000000E+00  0.00000000000E+00  0.45593999997E+02  0.45594000000E+02  0.51100000000E-03 0.  1.
         11   -1    0    0    0    0 -0.00000000000E+00 -0.00000000000E+00 -0.45593999997E+02  0.45594000000E+02  0.51100000000E-03 0. -1.
         23    2    1    2    0    0  0.00000000000E+00  0.00000000000E+00  0.00000000000E+00  0.91188000000E+02  0.91188000000E+02 0.  0.
    9900012    2    3    3    0    0  0.96592261236E+00 -0.22046748924E+02  0.29475202093E+02  0.54367086336E+02  0.40000004921E+02 0.  0.
         12    1    3    3    0    0 -0.96592261236E+00  0.22046748924E+02 -0.29475202093E+02  0.36820913664E+02  0.00000000000E+00 0. -1.
         11    1    4    4    0    0 -0.46305203293E+01 -0.19416944801E+02  0.13984134035E+01  0.20010372915E+02  0.51100000000E-03 0. -1.
        -11    1    4    4    0    0  0.55941868773E+01 -0.10493912590E+02  0.18020159116E+02  0.21590351157E+02  0.51100000000E-03 0.  1.
        -12    1    4    4    0    0  0.22560643677E-02  0.78641084666E+01  0.10056629574E+02  0.12766362264E+02  0.00000000000E+00 0.  1.
</event>
<event>
 8    1  0.1253703E-006  0.9118800E+02  0.7816164E-02  0.1184000E+00
        -11   -1    0    0    0    0  0.00000000000E+00  0.00000000000E+00  0.45593999997E+02  0.45594000000E+02  0.51100000000E-03 0.  1.
         11   -1    0    0    0    0 -0.00000000000E+00 -0.00000000000E+00 -0.45593999997E+02  0.45594000000E+02  0.51100000000E-03 0. -1.
         23    2    1    2    0    0 -0.71054273576E-14  0.17763568394E-14  0.00000000000E+00  0.91188000000E+02  0.91188000000E+02 0.  0.
    9900012    2    3    3    0    0 -0.32511124037E+02 -0.15280411892E+02  0.80818515253E+01  0.54367075272E+02  0.39999979697E+02 0.  0.
        -12    1    3    3    0    0  0.32511124037E+02  0.15280411892E+02 -0.80818515253E+01  0.36820924728E+02  0.00000000000E+00 0.  1.
         11    1    4    4    0    0  0.44893439593E+01  0.16938633368E+00  0.94179735345E+01  0.10434611956E+02  0.51100000000E-03 0. -1.
        -11    1    4    4    0    0 -0.21768125792E+02 -0.70486214101E+01  0.79385868740E+01  0.24218908441E+02  0.51100000000E-03 0.  1.
         12    1    4    4    0    0 -0.15232342205E+02 -0.84011768157E+01 -0.92747088832E+01  0.19713554875E+02  0.00000000000E+00 0. -1.
</event>
<event>
 8    1  0.1253703E-006  0.9118800E+02  0.7816164E-02  0.1184000E+00
        -11   -1    0    0    0    0  0.00000000000E+00  0.00000000000E+00  0.45593999997E+02  0.45594000000E+02  0.51100000000E-03 0. -1.
         11   -1    0    0    0    0 -0.00000000000E+00 -0.00000000000E+00 -0.45593999997E+02  0.45594000000E+02  0.51100000000E-03 0.  1.
         23    2    1    2    0    0  0.17763568394E-14  0.00000000000E+00  0.88817841970E-15  0.91188000000E+02  0.91188000000E+02 0.  0.
    9900012    2    3    3    0    0  0.13088651957E+02  0.33521799833E+02  0.77945727386E+01  0.54367092376E+02  0.40000018689E+02 0.  0.
        -12    1    3    3    0    0 -0.13088651957E+02 -0.33521799833E+02 -0.77945727386E+01  0.36820907624E+02  0.00000000000E+00 0.  1.
         11    1    4    4    0    0  0.11740906354E+02 -0.61545275781E+01  0.18030529094E+01  0.13378269386E+02  0.51100000000E-03 0. -1.
        -11    1    4    4    0    0  0.25032336827E+00  0.23880623474E+02 -0.47202719609E+00  0.23886599784E+02  0.51100000000E-03 0.  1.
         12    1    4    4    0    0  0.10974222350E+01  0.15795703937E+02  0.64635470253E+01  0.17102223206E+02  0.00000000000E+00 0. -1.
</event>
<event>
 8    1  0.1253703E-006  0.9118800E+02  0.7816164E-02  0.1184000E+00
        -11   -1    0    0    0    0  0.00000000000E+00  0.00000000000E+00  0.45593999997E+02  0.45594000000E+02  0.51100000000E-03 0.  1.
         11   -1    0    0    0    0 -0.00000000000E+00 -0.00000000000E+00 -0.45593999997E+02  0.45594000000E+02  0.51100000000E-03 0. -1.
         23    2    1    2    0    0 -0.35527136788E-14  0.00000000000E+00  0.88817841970E-15  0.91188000000E+02  0.91188000000E+02 0.  0.
    9900012    2    3    3    0    0 -0.21765527274E+02  0.29676519256E+02 -0.11603652997E+01  0.54367076325E+02  0.39999982098E+02 0.  0.
         12    1    3    3    0    0  0.21765527274E+02 -0.29676519256E+02  0.11603652997E+01  0.36820923675E+02  0.00000000000E+00 0. -1.
         11    1    4    4    0    0 -0.76088624212E+01 -0.48146157491E+01 -0.94093329022E+01  0.13023473349E+02  0.51100000000E-03 0. -1.
        -11    1    4    4    0    0 -0.16743275788E+02  0.24913755340E+02  0.91537688479E+01  0.31381905195E+02  0.51100000000E-03 0.  1.
         12    1    4    4    0    0  0.25866109354E+01  0.95773796651E+01 -0.90480124543E+00  0.99616977807E+01  0.00000000000E+00 0. -1.
</event>
<event>
 8    1  0.1253703E-006  0.9118800E+02  0.7816164E-02  0.1184000E+00
        -11   -1    0    0    0    0  0.00000000000E+00  0.00000000000E+00  0.45593999997E+02  0.45594000000E+02  0.51100000000E-03 0. -1.
         11   -1    0    0    0    0 -0.00000000000E+00 -0.00000000000E+00 -0.45593999997E+02  0.45594000000E+02  0.51100000000E-03 0.  1.
         23    2    1    2    0    0  0.00000000000E+00 -0.35527136788E-14 -0.35527136788E-14  0.91188000000E+02  0.91188000000E+02 0.  0.
    9900012    2    3    3    0    0  0.20008114533E+02 -0.17151811591E+02  0.25715170446E+02  0.54367091822E+02  0.40000017426E+02 0.  0.
        -12    1    3    3    0    0 -0.20008114533E+02  0.17151811591E+02 -0.25715170446E+02  0.36820908178E+02  0.00000000000E+00 0.  1.
         11    1    4    4    0    0  0.37311134817E+00 -0.46779304007E+01 -0.89272645353E+01  0.10085548932E+02  0.51100000000E-03 0. -1.
        -11    1    4    4    0    0  0.90005414014E+01  0.87509470707E+00  0.57239449029E+01  0.10702293295E+02  0.51100000000E-03 0.  1.
         12    1    4    4    0    0  0.10634461783E+02 -0.13348975897E+02  0.28918490078E+02  0.33579249595E+02  0.00000000000E+00 0. -1.
</event>
<event>
 8    1  0.1253703E-006  0.9118800E+02  0.7816164E-02  0.1184000E+00
        -11   -1    0    0    0    0  0.00000000000E+00  0.00000000000E+00  0.45593999997E+02  0.45594000000E+02  0.51100000000E-03 0. -1.
         11   -1    0    0    0    0 -0.00000000000E+00 -0.00000000000E+00 -0.45593999997E+02  0.45594000000E+02  0.51100000000E-03 0.  1.
         23    2    1    2    0    0  0.00000000000E+00  0.00000000000E+00  0.00000000000E+00  0.91188000000E+02  0.91188000000E+02 0.  0.
    9900012    2    3    3    0    0 -0.13535616599E+02  0.22571025739E+02 -0.25751044390E+02  0.54367076508E+02  0.39999982516E+02 0.  0.
         12    1    3    3    0    0  0.13535616599E+02 -0.22571025739E+02  0.25751044390E+02  0.36820923492E+02  0.00000000000E+00 0. -1.
         11    1    4    4    0    0 -0.12074137790E+02  0.21418426267E+02 -0.28284558352E+02  0.37477326859E+02  0.51100000000E-03 0. -1.
        -11    1    4    4    0    0 -0.81904128325E+01  0.34861920522E+01  0.37596427264E+01  0.96628831661E+01  0.51100000000E-03 0.  1.
         12    1    4    4    0    0  0.67289340231E+01 -0.23335925799E+01 -0.12261287642E+01  0.72268664830E+01  0.00000000000E+00 0. -1.
</event>
<event>
 8    1  0.1253703E-006  0.9118800E+02  0.7816164E-02  0.1184000E+00
        -11   -1    0    0    0    0  0.00000000000E+00  0.00000000000E+00  0.45593999997E+02  0.45594000000E+02  0.51100000000E-03 0. -1.
         11   -1    0    0    0    0 -0.00000000000E+00 -0.00000000000E+00 -0.45593999997E+02  0.45594000000E+02  0.51100000000E-03 0.  1.
         23    2    1    2    0    0 -0.35527136788E-14  0.00000000000E+00 -0.35527136788E-14  0.91188000000E+02  0.91188000000E+02 0.  0.
    9900012    2    3    3    0    0 -0.22248167049E+02  0.12485659307E+02  0.26550089369E+02  0.54367083786E+02  0.39999999106E+02 0.  0.
        -12    1    3    3    0    0  0.22248167049E+02 -0.12485659307E+02 -0.26550089369E+02  0.36820916214E+02  0.00000000000E+00 0.  1.
         11    1    4    4    0    0  0.44125661973E+01  0.15250217439E+02  0.11061506675E+02  0.19349335972E+02  0.51100000000E-03 0. -1.
        -11    1    4    4    0    0  0.21675519672E+01  0.35862599088E+00  0.22397357598E+01  0.31374050849E+01  0.51100000000E-03 0.  1.
         12    1    4    4    0    0 -0.28828285214E+02 -0.31231841228E+01  0.13248846934E+02  0.31880342729E+02  0.00000000000E+00 0. -1.
</event>
<event>
 8    1  0.1253703E-006  0.9118800E+02  0.7816164E-02  0.1184000E+00
        -11   -1    0    0    0    0  0.00000000000E+00  0.00000000000E+00  0.45593999997E+02  0.45594000000E+02  0.51100000000E-03 0. -1.
         11   -1    0    0    0    0 -0.00000000000E+00 -0.00000000000E+00 -0.45593999997E+02  0.45594000000E+02  0.51100000000E-03 0.  1.
         23    2    1    2    0    0  0.35527136788E-14  0.00000000000E+00  0.00000000000E+00  0.91188000000E+02  0.91188000000E+02 0.  0.
    9900012    2    3    3    0    0 -0.17209608121E+02 -0.16957361214E+02 -0.27785936166E+02  0.54367069001E+02  0.39999965401E+02 0.  0.
         12    1    3    3    0    0  0.17209608121E+02  0.16957361214E+02  0.27785936166E+02  0.36820930999E+02  0.00000000000E+00 0. -1.
         11    1    4    4    0    0  0.15675790000E+01 -0.13937703571E+02 -0.57381930054E+01  0.15154000923E+02  0.51100000000E-03 0. -1.
        -11    1    4    4    0    0 -0.94633233371E+00  0.10135722769E+02 -0.56109828179E+01  0.11623749369E+02  0.51100000000E-03 0.  1.
        -12    1    4    4    0    0 -0.17830854788E+02 -0.13155380412E+02 -0.16436760343E+02  0.27589318709E+02  0.00000000000E+00 0.  1.
</event>
<event>
 8    1  0.1253703E-006  0.9118800E+02  0.7816164E-02  0.1184000E+00
        -11   -1    0    0    0    0  0.00000000000E+00  0.00000000000E+00  0.45593999997E+02  0.45594000000E+02  0.51100000000E-03 0. -1.
         11   -1    0    0    0    0 -0.00000000000E+00 -0.00000000000E+00 -0.45593999997E+02  0.45594000000E+02  0.51100000000E-03 0.  1.
         23    2    1    2    0    0 -0.17763568394E-14  0.00000000000E+00  0.00000000000E+00  0.91188000000E+02  0.91188000000E+02 0.  0.
    9900012    2    3    3    0    0  0.11342309857E+02 -0.58852883974E+01 -0.34532454442E+02  0.54367149627E+02  0.40000149204E+02 0.  0.
         12    1    3    3    0    0 -0.11342309857E+02  0.58852883974E+01  0.34532454442E+02  0.36820850373E+02  0.00000000000E+00 0. -1.
         11    1    4    4    0    0  0.97539938227E+01 -0.57381382652E+01 -0.26343274594E+02  0.28671148265E+02  0.51100000000E-03 0. -1.
        -11    1    4    4    0    0  0.63110783699E+01  0.53386263223E+01 -0.14104139122E+02  0.16348008498E+02  0.51100000000E-03 0.  1.
         12    1    4    4    0    0 -0.47227623358E+01 -0.54857764545E+01  0.59149592734E+01  0.93479928645E+01  0.00000000000E+00 0. -1.
</event>
<event>
 8    1  0.1253703E-006  0.9118800E+02  0.7816164E-02  0.1184000E+00
        -11   -1    0    0    0    0  0.00000000000E+00  0.00000000000E+00  0.45593999997E+02  0.45594000000E+02  0.51100000000E-03 0. -1.
         11   -1    0    0    0    0 -0.00000000000E+00 -0.00000000000E+00 -0.45593999997E+02  0.45594000000E+02  0.51100000000E-03 0.  1.
         23    2    1    2    0    0 -0.35527136788E-14 -0.88817841970E-15  0.35527136788E-14  0.91188000000E+02  0.91188000000E+02 0.  0.
    9900012    2    3    3    0    0 -0.27851708929E+02  0.40733816085E+01 -0.23737513284E+02  0.54367086583E+02  0.40000005483E+02 0.  0.
         12    1    3    3    0    0  0.27851708929E+02 -0.40733816085E+01  0.23737513284E+02  0.36820913417E+02  0.00000000000E+00 0. -1.
         11    1    4    4    0    0 -0.18545450803E+02 -0.58192246020E-01  0.24817977002E+01  0.18710864542E+02  0.51100000000E-03 0. -1.
        -11    1    4    4    0    0 -0.76845639972E+01  0.72323693627E+00  0.13448724639E+01  0.78348119121E+01  0.51100000000E-03 0.  1.
         12    1    4    4    0    0 -0.16216941284E+01  0.34083369183E+01 -0.27564183448E+02  0.27821410128E+02  0.00000000000E+00 0. -1.
</event>
<event>
 8    1  0.1253703E-006  0.9118800E+02  0.7816164E-02  0.1184000E+00
        -11   -1    0    0    0    0  0.00000000000E+00  0.00000000000E+00  0.45593999997E+02  0.45594000000E+02  0.51100000000E-03 0.  1.
         11   -1    0    0    0    0 -0.00000000000E+00 -0.00000000000E+00 -0.45593999997E+02  0.45594000000E+02  0.51100000000E-03 0. -1.
         23    2    1    2    0    0 -0.17763568394E-14  0.00000000000E+00  0.00000000000E+00  0.91188000000E+02  0.91188000000E+02 0.  0.
    9900012    2    3    3    0    0  0.14490440512E+02  0.24766790924E+02  0.23074072582E+02  0.54367087132E+02  0.40000006735E+02 0.  0.
         12    1    3    3    0    0 -0.14490440512E+02 -0.24766790924E+02 -0.23074072582E+02  0.36820912868E+02  0.00000000000E+00 0. -1.
         11    1    4    4    0    0  0.54441207695E+01  0.14598385932E+02  0.36387098480E+01  0.15999735385E+02  0.51100000000E-03 0. -1.
        -11    1    4    4    0    0 -0.92207114818E+01 -0.80837821907E+00 -0.38450815775E+00  0.92640618716E+01  0.51100000000E-03 0.  1.
        -12    1    4    4    0    0  0.18267031224E+02  0.10976783210E+02  0.19819870892E+02  0.29103289875E+02  0.00000000000E+00 0.  1.
</event>
<event>
 8    1  0.1253703E-006  0.9118800E+02  0.7816164E-02  0.1184000E+00
        -11   -1    0    0    0    0  0.00000000000E+00  0.00000000000E+00  0.45593999997E+02  0.45594000000E+02  0.51100000000E-03 0.  1.
         11   -1    0    0    0    0 -0.00000000000E+00 -0.00000000000E+00 -0.45593999997E+02  0.45594000000E+02  0.51100000000E-03 0. -1.
         23    2    1    2    0    0  0.00000000000E+00  0.35527136788E-14  0.00000000000E+00  0.91188000000E+02  0.91188000000E+02 0.  0.
    9900012    2    3    3    0    0  0.23843715724E+02  0.28014186176E+02  0.15708489910E+01  0.54367014500E+02  0.39999841155E+02 0.  0.
        -12    1    3    3    0    0 -0.23843715724E+02 -0.28014186176E+02 -0.15708489910E+01  0.36820985500E+02  0.00000000000E+00 0.  1.
         11    1    4    4    0    0  0.14724188133E+02  0.29706234008E+02 -0.15966530227E+00  0.33155505552E+02  0.51100000000E-03 0. -1.
        -11    1    4    4    0    0 -0.45479548018E+01  0.34786776657E+01  0.31408886693E+01  0.65307176539E+01  0.51100000000E-03 0.  1.
         12    1    4    4    0    0  0.13667482393E+02 -0.51707254976E+01 -0.14103743760E+01  0.14680791294E+02  0.00000000000E+00 0. -1.
</event>
<event>
 8    1  0.1253703E-006  0.9118800E+02  0.7816164E-02  0.1184000E+00
        -11   -1    0    0    0    0  0.00000000000E+00  0.00000000000E+00  0.45593999997E+02  0.45594000000E+02  0.51100000000E-03 0.  1.
         11   -1    0    0    0    0 -0.00000000000E+00 -0.00000000000E+00 -0.45593999997E+02  0.45594000000E+02  0.51100000000E-03 0. -1.
         23    2    1    2    0    0 -0.71054273576E-14  0.17763568394E-14 -0.88817841970E-15  0.91188000000E+02  0.91188000000E+02 0.  0.
    9900012    2    3    3    0    0 -0.33938383640E+02 -0.13667794773E+02  0.41421645848E+01  0.54367081686E+02  0.39999994319E+02 0.  0.
         12    1    3    3    0    0  0.33938383640E+02  0.13667794773E+02 -0.41421645848E+01  0.36820918314E+02  0.00000000000E+00 0. -1.
         11    1    4    4    0    0 -0.12703430957E+02 -0.11716468165E+02 -0.11757231256E+02  0.20901800674E+02  0.51100000000E-03 0. -1.
        -11    1    4    4    0    0 -0.16877503542E+02 -0.37332004841E+01  0.20546409542E+02  0.26850360463E+02  0.51100000000E-03 0.  1.
         12    1    4    4    0    0 -0.43574491405E+01  0.17818738756E+01 -0.46470137012E+01  0.66149205483E+01  0.00000000000E+00 0. -1.
</event>
<event>
 8    1  0.1253703E-006  0.9118800E+02  0.7816164E-02  0.1184000E+00
        -11   -1    0    0    0    0  0.00000000000E+00  0.00000000000E+00  0.45593999997E+02  0.45594000000E+02  0.51100000000E-03 0.  1.
         11   -1    0    0    0    0 -0.00000000000E+00 -0.00000000000E+00 -0.45593999997E+02  0.45594000000E+02  0.51100000000E-03 0. -1.
         23    2    1    2    0    0 -0.71054273576E-14 -0.88817841970E-15  0.17763568394E-14  0.91188000000E+02  0.91188000000E+02 0.  0.
    9900012    2    3    3    0    0  0.32834641374E+02  0.67571799874E+01 -0.15231771248E+02  0.54367081884E+02  0.39999994771E+02 0.  0.
        -12    1    3    3    0    0 -0.32834641374E+02 -0.67571799874E+01  0.15231771248E+02  0.36820918116E+02  0.00000000000E+00 0.  1.
         11    1    4    4    0    0 -0.39476246237E+01  0.36662098016E+01 -0.73474216302E+01  0.91109516162E+01  0.51100000000E-03 0. -1.
        -11    1    4    4    0    0  0.32054573365E+01  0.93680866635E+01 -0.46680177153E+01  0.10946524294E+02  0.51100000000E-03 0.  1.
        -12    1    4    4    0    0  0.33576808662E+02 -0.62771164777E+01 -0.32163319021E+01  0.34309605974E+02  0.00000000000E+00 0.  1.
</event>
<event>
 8    1  0.1253703E-006  0.9118800E+02  0.7816164E-02  0.1184000E+00
        -11   -1    0    0    0    0  0.00000000000E+00  0.00000000000E+00  0.45593999997E+02  0.45594000000E+02  0.51100000000E-03 0.  1.
         11   -1    0    0    0    0 -0.00000000000E+00 -0.00000000000E+00 -0.45593999997E+02  0.45594000000E+02  0.51100000000E-03 0. -1.
         23    2    1    2    0    0 -0.17763568394E-14 -0.17763568394E-14  0.00000000000E+00  0.91188000000E+02  0.91188000000E+02 0.  0.
    9900012    2    3    3    0    0 -0.13692038879E+02 -0.58411272987E+01  0.33677730445E+02  0.54367078980E+02  0.39999988152E+02 0.  0.
         12    1    3    3    0    0  0.13692038879E+02  0.58411272987E+01 -0.33677730445E+02  0.36820921020E+02  0.00000000000E+00 0. -1.
         11    1    4    4    0    0  0.36209235512E+01  0.72269421590E+01  0.43236473978E+01  0.91669900957E+01  0.51100000000E-03 0. -1.
        -11    1    4    4    0    0 -0.81546080324E+00 -0.17296185383E+02  0.15663797004E+02  0.23349037282E+02  0.51100000000E-03 0.  1.
        -12    1    4    4    0    0 -0.16497501627E+02  0.42281159256E+01  0.13690286043E+02  0.21851051603E+02  0.00000000000E+00 0.  1.
</event>
<event>
 8    1  0.1253703E-006  0.9118800E+02  0.7816164E-02  0.1184000E+00
        -11   -1    0    0    0    0  0.00000000000E+00  0.00000000000E+00  0.45593999997E+02  0.45594000000E+02  0.51100000000E-03 0.  1.
         11   -1    0    0    0    0 -0.00000000000E+00 -0.00000000000E+00 -0.45593999997E+02  0.45594000000E+02  0.51100000000E-03 0. -1.
         23    2    1    2    0    0 -0.35527136788E-14  0.00000000000E+00  0.00000000000E+00  0.91188000000E+02  0.91188000000E+02 0.  0.
    9900012    2    3    3    0    0 -0.29794792600E+02 -0.20744636090E+02 -0.61408994314E+01  0.54367078795E+02  0.39999987729E+02 0.  0.
        -12    1    3    3    0    0  0.29794792600E+02  0.20744636090E+02  0.61408994314E+01  0.36820921205E+02  0.00000000000E+00 0.  1.
         11    1    4    4    0    0 -0.78764277105E+01 -0.92378563261E+01 -0.76454151304E-01  0.12140096724E+02  0.51100000000E-03 0. -1.
        -11    1    4    4    0    0 -0.23552798088E+02 -0.17699557670E+02  0.45684421014E+01  0.29814078939E+02  0.51100000000E-03 0.  1.
        -12    1    4    4    0    0  0.16344331989E+01  0.61927779066E+01 -0.10632887381E+02  0.12412903131E+02  0.00000000000E+00 0.  1.
</event>
<event>
 8    1  0.1253703E-006  0.9118800E+02  0.7816164E-02  0.1184000E+00
        -11   -1    0    0    0    0  0.00000000000E+00  0.00000000000E+00  0.45593999997E+02  0.45594000000E+02  0.51100000000E-03 0.  1.
         11   -1    0    0    0    0 -0.00000000000E+00 -0.00000000000E+00 -0.45593999997E+02  0.45594000000E+02  0.51100000000E-03 0. -1.
         23    2    1    2    0    0  0.00000000000E+00  0.00000000000E+00 -0.17763568394E-14  0.91188000000E+02  0.91188000000E+02 0.  0.
    9900012    2    3    3    0    0 -0.28142995698E+02 -0.23263977955E+02  0.47475752514E+01  0.54367077308E+02  0.39999984339E+02 0.  0.
         12    1    3    3    0    0  0.28142995698E+02  0.23263977955E+02 -0.47475752514E+01  0.36820922692E+02  0.00000000000E+00 0. -1.
         11    1    4    4    0    0 -0.22036687424E+02 -0.96400669202E+01 -0.15933483831E+01  0.24105709743E+02  0.51100000000E-03 0. -1.
        -11    1    4    4    0    0 -0.55458157251E+01 -0.12996031814E+02  0.15551768218E+02  0.21012149103E+02  0.51100000000E-03 0.  1.
         12    1    4    4    0    0 -0.56049254839E+00 -0.62787922123E+00 -0.92108445838E+01  0.92492184621E+01  0.00000000000E+00 0. -1.
</event>
<event>
 8    1  0.1253703E-006  0.9118800E+02  0.7816164E-02  0.1184000E+00
        -11   -1    0    0    0    0  0.00000000000E+00  0.00000000000E+00  0.45593999997E+02  0.45594000000E+02  0.51100000000E-03 0. -1.
         11   -1    0    0    0    0 -0.00000000000E+00 -0.00000000000E+00 -0.45593999997E+02  0.45594000000E+02  0.51100000000E-03 0.  1.
         23    2    1    2    0    0  0.00000000000E+00  0.00000000000E+00  0.35527136788E-14  0.91188000000E+02  0.91188000000E+02 0.  0.
    9900012    2    3    3    0    0 -0.28623616406E+02 -0.71511918788E+01 -0.22030191983E+02  0.54367077683E+02  0.39999985195E+02 0.  0.
         12    1    3    3    0    0  0.28623616406E+02  0.71511918788E+01  0.22030191983E+02  0.36820922317E+02  0.00000000000E+00 0. -1.
         11    1    4    4    0    0 -0.26012255397E+02 -0.57787195960E+01 -0.17779991720E+02  0.32033718748E+02  0.51100000000E-03 0. -1.
        -11    1    4    4    0    0 -0.50795144410E+01  0.88973815626E+01  0.14235289432E+01  0.10343659920E+02  0.51100000000E-03 0.  1.
         12    1    4    4    0    0  0.24681534321E+01 -0.10269853845E+02 -0.56737292058E+01  0.11989699015E+02  0.00000000000E+00 0. -1.
</event>
<event>
 8    1  0.1253703E-006  0.9118800E+02  0.7816164E-02  0.1184000E+00
        -11   -1    0    0    0    0  0.00000000000E+00  0.00000000000E+00  0.45593999997E+02  0.45594000000E+02  0.51100000000E-03 0.  1.
         11   -1    0    0    0    0 -0.00000000000E+00 -0.00000000000E+00 -0.45593999997E+02  0.45594000000E+02  0.51100000000E-03 0. -1.
         23    2    1    2    0    0  0.00000000000E+00 -0.13322676296E-14  0.00000000000E+00  0.91188000000E+02  0.91188000000E+02 0.  0.
    9900012    2    3    3    0    0  0.77570422874E+01 -0.35681516274E+01  0.35817269122E+02  0.54367079609E+02  0.39999989584E+02 0.  0.
         12    1    3    3    0    0 -0.77570422874E+01  0.35681516274E+01 -0.35817269122E+02  0.36820920391E+02  0.00000000000E+00 0. -1.
         11    1    4    4    0    0 -0.50960577757E+01  0.70649355738E+01  0.30781406787E+02  0.31990281705E+02  0.51100000000E-03 0. -1.
        -11    1    4    4    0    0  0.93977176548E+00 -0.26213769762E+01 -0.43925890953E+01  0.52009256334E+01  0.51100000000E-03 0.  1.
        -12    1    4    4    0    0  0.11913328298E+02 -0.80117102251E+01  0.94284514304E+01  0.17175872270E+02  0.00000000000E+00 0.  1.
</event>
<event>
 8    1  0.1253703E-006  0.9118800E+02  0.7816164E-02  0.1184000E+00
        -11   -1    0    0    0    0  0.00000000000E+00  0.00000000000E+00  0.45593999997E+02  0.45594000000E+02  0.51100000000E-03 0.  1.
         11   -1    0    0    0    0 -0.00000000000E+00 -0.00000000000E+00 -0.45593999997E+02  0.45594000000E+02  0.51100000000E-03 0. -1.
         23    2    1    2    0    0 -0.35527136788E-14  0.00000000000E+00  0.88817841970E-15  0.91188000000E+02  0.91188000000E+02 0.  0.
    9900012    2    3    3    0    0  0.29453935462E+02 -0.21563471775E+02 -0.48230520339E+01  0.54367089364E+02  0.40000011822E+02 0.  0.
         12    1    3    3    0    0 -0.29453935462E+02  0.21563471775E+02  0.48230520339E+01  0.36820910636E+02  0.00000000000E+00 0. -1.
         11    1    4    4    0    0  0.64723112074E+01 -0.22156949637E+02 -0.29181405620E+01  0.23266645100E+02  0.51100000000E-03 0.  1.
        -11    1    4    4    0    0  0.35889793136E+01  0.77926891380E+01 -0.53771281887E+01  0.10125230088E+02  0.51100000000E-03 0. -1.
         12    1    4    4    0    0  0.19392644941E+02 -0.71992112756E+01  0.34722167168E+01  0.20975214176E+02  0.00000000000E+00 0. -1.
</event>
<event>
 8    1  0.1253703E-006  0.9118800E+02  0.7816164E-02  0.1184000E+00
        -11   -1    0    0    0    0  0.00000000000E+00  0.00000000000E+00  0.45593999997E+02  0.45594000000E+02  0.51100000000E-03 0. -1.
         11   -1    0    0    0    0 -0.00000000000E+00 -0.00000000000E+00 -0.45593999997E+02  0.45594000000E+02  0.51100000000E-03 0.  1.
         23    2    1    2    0    0  0.00000000000E+00  0.35527136788E-14  0.88817841970E-15  0.91188000000E+02  0.91188000000E+02 0.  0.
    9900012    2    3    3    0    0 -0.32261876598E+02 -0.16438385127E+02  0.66879653634E+01  0.54367108268E+02  0.40000054918E+02 0.  0.
         12    1    3    3    0    0  0.32261876598E+02  0.16438385127E+02 -0.66879653634E+01  0.36820891732E+02  0.00000000000E+00 0. -1.
         11    1    4    4    0    0 -0.26828632209E+01 -0.24035074365E+01  0.70691867086E+01  0.79339778196E+01  0.51100000000E-03 0. -1.
        -11    1    4    4    0    0 -0.22934209440E+02 -0.12108880250E+02  0.14721267387E+02  0.29821446264E+02  0.51100000000E-03 0.  1.
         12    1    4    4    0    0 -0.66448039376E+01 -0.19259974409E+01 -0.15102488733E+02  0.16611684184E+02  0.00000000000E+00 0. -1.
</event>
<event>
 8    1  0.1253703E-006  0.9118800E+02  0.7816164E-02  0.1184000E+00
        -11   -1    0    0    0    0  0.00000000000E+00  0.00000000000E+00  0.45593999997E+02  0.45594000000E+02  0.51100000000E-03 0. -1.
         11   -1    0    0    0    0 -0.00000000000E+00 -0.00000000000E+00 -0.45593999997E+02  0.45594000000E+02  0.51100000000E-03 0.  1.
         23    2    1    2    0    0  0.00000000000E+00 -0.35527136788E-14 -0.17763568394E-14  0.91188000000E+02  0.91188000000E+02 0.  0.
    9900012    2    3    3    0    0 -0.12778159902E+02  0.31381627853E+02  0.14411704873E+02  0.54367011766E+02  0.39999834922E+02 0.  0.
        -12    1    3    3    0    0  0.12778159902E+02 -0.31381627853E+02 -0.14411704873E+02  0.36820988234E+02  0.00000000000E+00 0.  1.
         11    1    4    4    0    0 -0.97860675585E+01  0.16586744104E+02  0.68628954645E+01  0.20444718943E+02  0.51100000000E-03 0. -1.
        -11    1    4    4    0    0 -0.11501242724E+02  0.89319133789E+01 -0.69357336896E+01  0.16129540070E+02  0.51100000000E-03 0.  1.
         12    1    4    4    0    0  0.85091503810E+01  0.58629703709E+01  0.14484543098E+02  0.17792752753E+02  0.00000000000E+00 0. -1.
</event>
<event>
 8    1  0.1253703E-006  0.9118800E+02  0.7816164E-02  0.1184000E+00
        -11   -1    0    0    0    0  0.00000000000E+00  0.00000000000E+00  0.45593999997E+02  0.45594000000E+02  0.51100000000E-03 0.  1.
         11   -1    0    0    0    0 -0.00000000000E+00 -0.00000000000E+00 -0.45593999997E+02  0.45594000000E+02  0.51100000000E-03 0. -1.
         23    2    1    2    0    0  0.00000000000E+00  0.00000000000E+00  0.71054273576E-14  0.91188000000E+02  0.91188000000E+02 0.  0.
    9900012    2    3    3    0    0  0.10877815919E+01 -0.55309463878E+01  0.36386886589E+02  0.54367079963E+02  0.39999990391E+02 0.  0.
         12    1    3    3    0    0 -0.10877815919E+01  0.55309463878E+01 -0.36386886589E+02  0.36820920037E+02  0.00000000000E+00 0. -1.
         11    1    4    4    0    0 -0.40856134333E+01  0.94532227277E+01  0.38046627419E+00  0.10305358408E+02  0.51100000000E-03 0. -1.
        -11    1    4    4    0    0  0.39134741708E+01 -0.39218227909E+01  0.31609049524E+02  0.32090933083E+02  0.51100000000E-03 0.  1.
         12    1    4    4    0    0  0.12599208544E+01 -0.11062346325E+02  0.43973707912E+01  0.11970788472E+02  0.00000000000E+00 0. -1.
</event>
<event>
 8    1  0.1253703E-006  0.9118800E+02  0.7816164E-02  0.1184000E+00
        -11   -1    0    0    0    0  0.00000000000E+00  0.00000000000E+00  0.45593999997E+02  0.45594000000E+02  0.51100000000E-03 0.  1.
         11   -1    0    0    0    0 -0.00000000000E+00 -0.00000000000E+00 -0.45593999997E+02  0.45594000000E+02  0.51100000000E-03 0. -1.
         23    2    1    2    0    0  0.00000000000E+00  0.00000000000E+00 -0.35527136788E-14  0.91188000000E+02  0.91188000000E+02 0.  0.
    9900012    2    3    3    0    0 -0.17497640020E+02  0.79326671735E+01 -0.31411578662E+02  0.54367056383E+02  0.39999936637E+02 0.  0.
        -12    1    3    3    0    0  0.17497640020E+02 -0.79326671735E+01  0.31411578662E+02  0.36820943617E+02  0.00000000000E+00 0.  1.
         11    1    4    4    0    0 -0.10100862559E+02  0.61610975046E+01 -0.20506024260E+01  0.12007977243E+02  0.51100000000E-03 0. -1.
        -11    1    4    4    0    0 -0.50464446887E+01  0.14337097727E+02 -0.72988599114E+01  0.16860970657E+02  0.51100000000E-03 0.  1.
        -12    1    4    4    0    0 -0.23503327727E+01 -0.12565528058E+02 -0.22062116325E+02  0.25498108484E+02  0.00000000000E+00 0.  1.
</event>
<event>
 8    1  0.1253703E-006  0.9118800E+02  0.7816164E-02  0.1184000E+00
        -11   -1    0    0    0    0  0.00000000000E+00  0.00000000000E+00  0.45593999997E+02  0.45594000000E+02  0.51100000000E-03 0. -1.
         11   -1    0    0    0    0 -0.00000000000E+00 -0.00000000000E+00 -0.45593999997E+02  0.45594000000E+02  0.51100000000E-03 0.  1.
         23    2    1    2    0    0  0.88817841970E-15 -0.88817841970E-15  0.00000000000E+00  0.91188000000E+02  0.91188000000E+02 0.  0.
    9900012    2    3    3    0    0 -0.59866886397E+01  0.58788372729E+01  0.35852171791E+02  0.54367090306E+02  0.40000013971E+02 0.  0.
        -12    1    3    3    0    0  0.59866886397E+01 -0.58788372729E+01 -0.35852171791E+02  0.36820909694E+02  0.00000000000E+00 0.  1.
         11    1    4    4    0    0  0.54619488304E+01 -0.85239982297E+01  0.63001850148E+01  0.11924083291E+02  0.51100000000E-03 0. -1.
        -11    1    4    4    0    0 -0.13866560545E+02 -0.10895917797E+01  0.89000173172E+01  0.16512995491E+02  0.51100000000E-03 0.  1.
         12    1    4    4    0    0  0.24179230748E+01  0.15492427282E+02  0.20651969459E+02  0.25930011524E+02  0.00000000000E+00 0. -1.
</event>
<event>
 8    1  0.1253703E-006  0.9118800E+02  0.7816164E-02  0.1184000E+00
        -11   -1    0    0    0    0  0.00000000000E+00  0.00000000000E+00  0.45593999997E+02  0.45594000000E+02  0.51100000000E-03 0.  1.
         11   -1    0    0    0    0 -0.00000000000E+00 -0.00000000000E+00 -0.45593999997E+02  0.45594000000E+02  0.51100000000E-03 0. -1.
         23    2    1    2    0    0  0.00000000000E+00  0.00000000000E+00  0.88817841970E-15  0.91188000000E+02  0.91188000000E+02 0.  0.
    9900012    2    3    3    0    0 -0.10763426263E+02  0.34673027748E+02  0.61410385318E+01  0.54367047373E+02  0.39999916096E+02 0.  0.
         12    1    3    3    0    0  0.10763426263E+02 -0.34673027748E+02 -0.61410385318E+01  0.36820952627E+02  0.00000000000E+00 0. -1.
         11    1    4    4    0    0  0.25994080527E+01 -0.15707737383E+01  0.66417068590E+01  0.73031857859E+01  0.51100000000E-03 0. -1.
        -11    1    4    4    0    0 -0.14887990304E+02  0.50535215037E+01 -0.16956345260E+01  0.15813459824E+02  0.51100000000E-03 0.  1.
        -12    1    4    4    0    0  0.15251559887E+01  0.31190279982E+02  0.11949661988E+01  0.31250401763E+02  0.00000000000E+00 0.  1.
</event>
<event>
 8    1  0.1253703E-006  0.9118800E+02  0.7816164E-02  0.1184000E+00
        -11   -1    0    0    0    0  0.00000000000E+00  0.00000000000E+00  0.45593999997E+02  0.45594000000E+02  0.51100000000E-03 0.  1.
         11   -1    0    0    0    0 -0.00000000000E+00 -0.00000000000E+00 -0.45593999997E+02  0.45594000000E+02  0.51100000000E-03 0. -1.
         23    2    1    2    0    0  0.00000000000E+00  0.00000000000E+00  0.00000000000E+00  0.91188000000E+02  0.91188000000E+02 0.  0.
    9900012    2    3    3    0    0 -0.42396026452E+01  0.32764784587E+02  0.16256445199E+02  0.54367118016E+02  0.40000077141E+02 0.  0.
         12    1    3    3    0    0  0.42396026452E+01 -0.32764784587E+02 -0.16256445199E+02  0.36820881984E+02  0.00000000000E+00 0. -1.
         11    1    4    4    0    0 -0.12684516518E+02  0.42161792931E+01  0.29185200473E+01  0.13681772059E+02  0.51100000000E-03 0. -1.
        -11    1    4    4    0    0  0.54282408387E+01 -0.15028245408E+01  0.83525486836E+01  0.10074192274E+02  0.51100000000E-03 0.  1.
         12    1    4    4    0    0  0.30166730345E+01  0.30051429834E+02  0.49853764677E+01  0.30611153683E+02  0.00000000000E+00 0. -1.
</event>
<event>
 8    1  0.1253703E-006  0.9118800E+02  0.7816164E-02  0.1184000E+00
        -11   -1    0    0    0    0  0.00000000000E+00  0.00000000000E+00  0.45593999997E+02  0.45594000000E+02  0.51100000000E-03 0. -1.
         11   -1    0    0    0    0 -0.00000000000E+00 -0.00000000000E+00 -0.45593999997E+02  0.45594000000E+02  0.51100000000E-03 0.  1.
         23    2    1    2    0    0 -0.35527136788E-14 -0.71054273576E-14  0.00000000000E+00  0.91188000000E+02  0.91188000000E+02 0.  0.
    9900012    2    3    3    0    0  0.16252110125E+02 -0.29689687516E+02 -0.14497375698E+02  0.54367047670E+02  0.39999916774E+02 0.  0.
        -12    1    3    3    0    0 -0.16252110125E+02  0.29689687516E+02  0.14497375698E+02  0.36820952330E+02  0.00000000000E+00 0.  1.
         11    1    4    4    0    0  0.10479012204E+02 -0.11254476421E+02 -0.31925757335E+00  0.15380990278E+02  0.51100000000E-03 0. -1.
        -11    1    4    4    0    0  0.78052021325E+01  0.67115999488E+01 -0.54282569970E+00  0.10308317719E+02  0.51100000000E-03 0.  1.
        -12    1    4    4    0    0 -0.20321042118E+01 -0.25146811044E+02 -0.13635292425E+02  0.28677739673E+02  0.00000000000E+00 0.  1.
</event>
<event>
 8    1  0.1253703E-006  0.9118800E+02  0.7816164E-02  0.1184000E+00
        -11   -1    0    0    0    0  0.00000000000E+00  0.00000000000E+00  0.45593999997E+02  0.45594000000E+02  0.51100000000E-03 0.  1.
         11   -1    0    0    0    0 -0.00000000000E+00 -0.00000000000E+00 -0.45593999997E+02  0.45594000000E+02  0.51100000000E-03 0. -1.
         23    2    1    2    0    0  0.00000000000E+00  0.00000000000E+00 -0.35527136788E-14  0.91188000000E+02  0.91188000000E+02 0.  0.
    9900012    2    3    3    0    0 -0.22058595893E+02 -0.19909944857E+02  0.21743804029E+02  0.54367074284E+02  0.39999977444E+02 0.  0.
        -12    1    3    3    0    0  0.22058595893E+02  0.19909944857E+02 -0.21743804029E+02  0.36820925716E+02  0.00000000000E+00 0.  1.
         11    1    4    4    0    0 -0.15107554599E+01 -0.35020102484E+01 -0.32621101781E+01  0.50187469467E+01  0.51100000000E-03 0. -1.
        -11    1    4    4    0    0 -0.11537475532E+02 -0.10817260324E+02 -0.57403101066E+01  0.16824910786E+02  0.51100000000E-03 0.  1.
        -12    1    4    4    0    0 -0.90103649008E+01 -0.55906742842E+01  0.30746224313E+02  0.32523416551E+02  0.00000000000E+00 0.  1.
</event>
<event>
 8    1  0.1253703E-006  0.9118800E+02  0.7816164E-02  0.1184000E+00
        -11   -1    0    0    0    0  0.00000000000E+00  0.00000000000E+00  0.45593999997E+02  0.45594000000E+02  0.51100000000E-03 0. -1.
         11   -1    0    0    0    0 -0.00000000000E+00 -0.00000000000E+00 -0.45593999997E+02  0.45594000000E+02  0.51100000000E-03 0.  1.
         23    2    1    2    0    0  0.28865798640E-14  0.00000000000E+00  0.00000000000E+00  0.91188000000E+02  0.91188000000E+02 0.  0.
    9900012    2    3    3    0    0  0.11968300356E+01  0.27275190722E+02  0.24706447915E+02  0.54367122774E+02  0.40000087989E+02 0.  0.
        -12    1    3    3    0    0 -0.11968300356E+01 -0.27275190722E+02 -0.24706447915E+02  0.36820877226E+02  0.00000000000E+00 0.  1.
         11    1    4    4    0    0 -0.12283517965E+02 -0.11328852451E+01  0.10029853287E+02  0.15898622575E+02  0.51100000000E-03 0.  1.
        -11    1    4    4    0    0  0.90108374072E+01  0.27314669814E+01  0.27691430094E+01  0.98144921375E+01  0.51100000000E-03 0. -1.
         12    1    4    4    0    0  0.44695105931E+01  0.25676608986E+02  0.11907451619E+02  0.28654008062E+02  0.00000000000E+00 0. -1.
</event>
<event>
 8    1  0.1253703E-006  0.9118800E+02  0.7816164E-02  0.1184000E+00
        -11   -1    0    0    0    0  0.00000000000E+00  0.00000000000E+00  0.45593999997E+02  0.45594000000E+02  0.51100000000E-03 0.  1.
         11   -1    0    0    0    0 -0.00000000000E+00 -0.00000000000E+00 -0.45593999997E+02  0.45594000000E+02  0.51100000000E-03 0. -1.
         23    2    1    2    0    0 -0.35527136788E-14 -0.69388939039E-16  0.00000000000E+00  0.91188000000E+02  0.91188000000E+02 0.  0.
    9900012    2    3    3    0    0 -0.23216420068E+02  0.34435350176E-01 -0.28579266906E+02  0.54367111316E+02  0.40000061868E+02 0.  0.
        -12    1    3    3    0    0  0.23216420068E+02 -0.34435350176E-01  0.28579266906E+02  0.36820888684E+02  0.00000000000E+00 0.  1.
         11    1    4    4    0    0 -0.20414904128E+01  0.18159756113E+01 -0.31686747001E+02  0.31804329678E+02  0.51100000000E-03 0. -1.
        -11    1    4    4    0    0 -0.14904645404E+02 -0.25979613700E+01  0.50467003472E+01  0.15948888443E+02  0.51100000000E-03 0.  1.
         12    1    4    4    0    0 -0.62702842505E+01  0.81642110890E+00 -0.19392202525E+01  0.66138931952E+01  0.00000000000E+00 0. -1.
</event>
<event>
 8    1  0.1253703E-006  0.9118800E+02  0.7816164E-02  0.1184000E+00
        -11   -1    0    0    0    0  0.00000000000E+00  0.00000000000E+00  0.45593999997E+02  0.45594000000E+02  0.51100000000E-03 0. -1.
         11   -1    0    0    0    0 -0.00000000000E+00 -0.00000000000E+00 -0.45593999997E+02  0.45594000000E+02  0.51100000000E-03 0.  1.
         23    2    1    2    0    0  0.00000000000E+00  0.88817841970E-15  0.00000000000E+00  0.91188000000E+02  0.91188000000E+02 0.  0.
    9900012    2    3    3    0    0 -0.13457143897E+02  0.33518659449E+01 -0.34109389637E+02  0.54367079471E+02  0.39999989270E+02 0.  0.
        -12    1    3    3    0    0  0.13457143897E+02 -0.33518659449E+01  0.34109389637E+02  0.36820920529E+02  0.00000000000E+00 0.  1.
         11    1    4    4    0    0 -0.27883114949E+01 -0.90213783111E+01 -0.29797530293E+01  0.99014582765E+01  0.51100000000E-03 0. -1.
        -11    1    4    4    0    0  0.48779383018E+00  0.35210993796E+01  0.47094764857E+01  0.59004451267E+01  0.51100000000E-03 0.  1.
        -12    1    4    4    0    0 -0.11156626232E+02  0.88521448764E+01 -0.35839113094E+02  0.38565176068E+02  0.00000000000E+00 0.  1.
</event>
<event>
 8    1  0.1253703E-006  0.9118800E+02  0.7816164E-02  0.1184000E+00
        -11   -1    0    0    0    0  0.00000000000E+00  0.00000000000E+00  0.45593999997E+02  0.45594000000E+02  0.51100000000E-03 0.  1.
         11   -1    0    0    0    0 -0.00000000000E+00 -0.00000000000E+00 -0.45593999997E+02  0.45594000000E+02  0.51100000000E-03 0. -1.
         23    2    1    2    0    0  0.00000000000E+00 -0.17763568394E-14  0.35527136788E-14  0.91188000000E+02  0.91188000000E+02 0.  0.
    9900012    2    3    3    0    0 -0.23227862045E+02 -0.91867289351E+01 -0.27052753079E+02  0.54367068278E+02  0.39999963753E+02 0.  0.
        -12    1    3    3    0    0  0.23227862045E+02  0.91867289351E+01  0.27052753079E+02  0.36820931722E+02  0.00000000000E+00 0.  1.
         11    1    4    4    0    0 -0.19918104561E+01  0.78547675648E+01  0.76433188415E+00  0.81393418579E+01  0.51100000000E-03 0.  1.
        -11    1    4    4    0    0 -0.19357256756E+02 -0.49536965685E+01 -0.54126320740E+01  0.20701185595E+02  0.51100000000E-03 0. -1.
        -12    1    4    4    0    0 -0.18787948332E+01 -0.12087799931E+02 -0.22404452890E+02  0.25526540825E+02  0.00000000000E+00 0.  1.
</event>
<event>
 8    1  0.1253703E-006  0.9118800E+02  0.7816164E-02  0.1184000E+00
        -11   -1    0    0    0    0  0.00000000000E+00  0.00000000000E+00  0.45593999997E+02  0.45594000000E+02  0.51100000000E-03 0.  1.
         11   -1    0    0    0    0 -0.00000000000E+00 -0.00000000000E+00 -0.45593999997E+02  0.45594000000E+02  0.51100000000E-03 0. -1.
         23    2    1    2    0    0  0.00000000000E+00  0.00000000000E+00 -0.35527136788E-14  0.91188000000E+02  0.91188000000E+02 0.  0.
    9900012    2    3    3    0    0 -0.60204928549E+01  0.17605669397E+02 -0.31773794951E+02  0.54367082376E+02  0.39999995892E+02 0.  0.
        -12    1    3    3    0    0  0.60204928549E+01 -0.17605669397E+02  0.31773794951E+02  0.36820917624E+02  0.00000000000E+00 0.  1.
         11    1    4    4    0    0 -0.10135062038E+00  0.11736693287E+02 -0.10518647038E+02  0.15760779709E+02  0.51100000000E-03 0. -1.
        -11    1    4    4    0    0 -0.90023698788E+01  0.21352278796E+01  0.59325451660E+01  0.10990766759E+02  0.51100000000E-03 0.  1.
         12    1    4    4    0    0  0.30832276443E+01  0.37337482303E+01 -0.27187693078E+02  0.27615535908E+02  0.00000000000E+00 0. -1.
</event>
<event>
 8    1  0.1253703E-006  0.9118800E+02  0.7816164E-02  0.1184000E+00
        -11   -1    0    0    0    0  0.00000000000E+00  0.00000000000E+00  0.45593999997E+02  0.45594000000E+02  0.51100000000E-03 0. -1.
         11   -1    0    0    0    0 -0.00000000000E+00 -0.00000000000E+00 -0.45593999997E+02  0.45594000000E+02  0.51100000000E-03 0.  1.
         23    2    1    2    0    0  0.35527136788E-14  0.35527136788E-14  0.33306690739E-15  0.91188000000E+02  0.91188000000E+02 0.  0.
    9900012    2    3    3    0    0  0.27929131090E+02  0.23991004358E+02 -0.41929623478E+00  0.54367075747E+02  0.39999980781E+02 0.  0.
         12    1    3    3    0    0 -0.27929131090E+02 -0.23991004358E+02  0.41929623478E+00  0.36820924253E+02  0.00000000000E+00 0. -1.
         11    1    4    4    0    0  0.23309251759E+02  0.73176861240E+01  0.24698656593E+00  0.24432166306E+02  0.51100000000E-03 0. -1.
        -11    1    4    4    0    0  0.93530756966E+01  0.98951889750E+01 -0.10422440665E+02  0.17147071456E+02  0.51100000000E-03 0.  1.
         12    1    4    4    0    0 -0.47331963658E+01  0.67781292587E+01  0.97561578639E+01  0.12787837986E+02  0.00000000000E+00 0. -1.
</event>
<event>
 8    1  0.1253703E-006  0.9118800E+02  0.7816164E-02  0.1184000E+00
        -11   -1    0    0    0    0  0.00000000000E+00  0.00000000000E+00  0.45593999997E+02  0.45594000000E+02  0.51100000000E-03 0. -1.
         11   -1    0    0    0    0 -0.00000000000E+00 -0.00000000000E+00 -0.45593999997E+02  0.45594000000E+02  0.51100000000E-03 0.  1.
         23    2    1    2    0    0  0.00000000000E+00  0.00000000000E+00  0.00000000000E+00  0.91188000000E+02  0.91188000000E+02 0.  0.
    9900012    2    3    3    0    0  0.20934887839E+02  0.26495792061E+02 -0.14679292389E+02  0.54367107143E+02  0.40000052354E+02 0.  0.
         12    1    3    3    0    0 -0.20934887839E+02 -0.26495792061E+02  0.14679292389E+02  0.36820892857E+02  0.00000000000E+00 0. -1.
         11    1    4    4    0    0  0.10039132193E+02 -0.14677695226E+01 -0.46418188248E+01  0.11157284832E+02  0.51100000000E-03 0. -1.
        -11    1    4    4    0    0  0.59867455319E+01  0.18093267957E+02 -0.20514990132E+02  0.28001290824E+02  0.51100000000E-03 0.  1.
        -12    1    4    4    0    0  0.49090101143E+01  0.98702936262E+01  0.10477516568E+02  0.15208531487E+02  0.00000000000E+00 0.  1.
</event>
<event>
 8    1  0.1253703E-006  0.9118800E+02  0.7816164E-02  0.1184000E+00
        -11   -1    0    0    0    0  0.00000000000E+00  0.00000000000E+00  0.45593999997E+02  0.45594000000E+02  0.51100000000E-03 0.  1.
         11   -1    0    0    0    0 -0.00000000000E+00 -0.00000000000E+00 -0.45593999997E+02  0.45594000000E+02  0.51100000000E-03 0. -1.
         23    2    1    2    0    0  0.00000000000E+00 -0.15543122345E-14  0.71054273576E-14  0.91188000000E+02  0.91188000000E+02 0.  0.
    9900012    2    3    3    0    0  0.44170826984E+01  0.22671883457E+00  0.36554365920E+02  0.54367031941E+02  0.39999880917E+02 0.  0.
         12    1    3    3    0    0 -0.44170826984E+01 -0.22671883457E+00 -0.36554365920E+02  0.36820968059E+02  0.00000000000E+00 0. -1.
         11    1    4    4    0    0  0.85225579929E+01 -0.49396772128E+01 -0.28047441902E+01  0.10242118723E+02  0.51100000000E-03 0. -1.
        -11    1    4    4    0    0 -0.12218315499E+01  0.86802786579E+01  0.38517056194E+02  0.39501945876E+02  0.51100000000E-03 0.  1.
        -12    1    4    4    0    0 -0.28836437446E+01 -0.35138826105E+01  0.84205391594E+00  0.46229673418E+01  0.00000000000E+00 0.  1.
</event>
<event>
 8    1  0.1253703E-006  0.9118800E+02  0.7816164E-02  0.1184000E+00
        -11   -1    0    0    0    0  0.00000000000E+00  0.00000000000E+00  0.45593999997E+02  0.45594000000E+02  0.51100000000E-03 0. -1.
         11   -1    0    0    0    0 -0.00000000000E+00 -0.00000000000E+00 -0.45593999997E+02  0.45594000000E+02  0.51100000000E-03 0.  1.
         23    2    1    2    0    0  0.00000000000E+00  0.00000000000E+00  0.35527136788E-14  0.91188000000E+02  0.91188000000E+02 0.  0.
    9900012    2    3    3    0    0  0.16715146408E+02 -0.17506549783E+02  0.27747153400E+02  0.54367083030E+02  0.39999997382E+02 0.  0.
        -12    1    3    3    0    0 -0.16715146408E+02  0.17506549783E+02 -0.27747153400E+02  0.36820916970E+02  0.00000000000E+00 0.  1.
         11    1    4    4    0    0  0.13898716318E+02 -0.73082218926E+01  0.93941263790E+01  0.18298470789E+02  0.51100000000E-03 0. -1.
        -11    1    4    4    0    0  0.12180339565E+02  0.37815580740E+01  0.25938638201E+01  0.13014952292E+02  0.51100000000E-03 0.  1.
        -12    1    4    4    0    0 -0.93639094751E+01 -0.13979885964E+02  0.15759163201E+02  0.23053659949E+02  0.00000000000E+00 0.  1.
</event>
<event>
 8    1  0.1253703E-006  0.9118800E+02  0.7816164E-02  0.1184000E+00
        -11   -1    0    0    0    0  0.00000000000E+00  0.00000000000E+00  0.45593999997E+02  0.45594000000E+02  0.51100000000E-03 0.  1.
         11   -1    0    0    0    0 -0.00000000000E+00 -0.00000000000E+00 -0.45593999997E+02  0.45594000000E+02  0.51100000000E-03 0. -1.
         23    2    1    2    0    0  0.22204460493E-15  0.83266726847E-15  0.71054273576E-14  0.91188000000E+02  0.91188000000E+02 0.  0.
    9900012    2    3    3    0    0  0.17935139565E+01  0.43079404858E+00  0.36774699615E+02  0.54367071065E+02  0.39999970107E+02 0.  0.
         12    1    3    3    0    0 -0.17935139565E+01 -0.43079404858E+00 -0.36774699615E+02  0.36820928935E+02  0.00000000000E+00 0. -1.
         11    1    4    4    0    0  0.61530953105E+01  0.27703459666E+01  0.78354571149E+01  0.10340686009E+02  0.51100000000E-03 0. -1.
        -11    1    4    4    0    0 -0.31108532623E+01 -0.10789863932E+02  0.32787743878E+02  0.34657390562E+02  0.51100000000E-03 0.  1.
         12    1    4    4    0    0 -0.12487280918E+01  0.84503120137E+01 -0.38485013777E+01  0.93689944941E+01  0.00000000000E+00 0. -1.
</event>
<event>
 8    1  0.1253703E-006  0.9118800E+02  0.7816164E-02  0.1184000E+00
        -11   -1    0    0    0    0  0.00000000000E+00  0.00000000000E+00  0.45593999997E+02  0.45594000000E+02  0.51100000000E-03 0.  1.
         11   -1    0    0    0    0 -0.00000000000E+00 -0.00000000000E+00 -0.45593999997E+02  0.45594000000E+02  0.51100000000E-03 0. -1.
         23    2    1    2    0    0  0.00000000000E+00  0.00000000000E+00  0.00000000000E+00  0.91188000000E+02  0.91188000000E+02 0.  0.
    9900012    2    3    3    0    0 -0.21512330989E+01 -0.14044477567E+01  0.36731188455E+02  0.54367075478E+02  0.39999980166E+02 0.  0.
         12    1    3    3    0    0  0.21512330989E+01  0.14044477567E+01 -0.36731188455E+02  0.36820924522E+02  0.00000000000E+00 0. -1.
         11    1    4    4    0    0  0.16126722814E+01 -0.77671974591E+01 -0.16763831124E+01  0.81080409999E+01  0.51100000000E-03 0. -1.
        -11    1    4    4    0    0 -0.11847639333E+02 -0.39927870876E+01  0.16298306258E+02  0.20541268063E+02  0.51100000000E-03 0.  1.
        -12    1    4    4    0    0  0.80837339525E+01  0.10355536790E+02  0.22109265310E+02  0.25717766415E+02  0.00000000000E+00 0.  1.
</event>
<event>
 8    1  0.1253703E-006  0.9118800E+02  0.7816164E-02  0.1184000E+00
        -11   -1    0    0    0    0  0.00000000000E+00  0.00000000000E+00  0.45593999997E+02  0.45594000000E+02  0.51100000000E-03 0. -1.
         11   -1    0    0    0    0 -0.00000000000E+00 -0.00000000000E+00 -0.45593999997E+02  0.45594000000E+02  0.51100000000E-03 0.  1.
         23    2    1    2    0    0  0.35527136788E-14  0.00000000000E+00 -0.71054273576E-14  0.91188000000E+02  0.91188000000E+02 0.  0.
    9900012    2    3    3    0    0 -0.20794832861E+02 -0.13591957734E+02  0.27177446988E+02  0.54367081848E+02  0.39999994690E+02 0.  0.
        -12    1    3    3    0    0  0.20794832861E+02  0.13591957734E+02 -0.27177446988E+02  0.36820918152E+02  0.00000000000E+00 0.  1.
         11    1    4    4    0    0 -0.98440612582E+01  0.49092269916E+01  0.18058755960E+02  0.21145323804E+02  0.51100000000E-03 0. -1.
        -11    1    4    4    0    0  0.28237905735E+01 -0.25343560823E+01 -0.61226193686E+01  0.72030009127E+01  0.51100000000E-03 0.  1.
        -12    1    4    4    0    0 -0.13774562176E+02 -0.15966828643E+02  0.15241310397E+02  0.26018757132E+02  0.00000000000E+00 0.  1.
</event>
<event>
 8    1  0.1253703E-006  0.9118800E+02  0.7816164E-02  0.1184000E+00
        -11   -1    0    0    0    0  0.00000000000E+00  0.00000000000E+00  0.45593999997E+02  0.45594000000E+02  0.51100000000E-03 0.  1.
         11   -1    0    0    0    0 -0.00000000000E+00 -0.00000000000E+00 -0.45593999997E+02  0.45594000000E+02  0.51100000000E-03 0. -1.
         23    2    1    2    0    0 -0.88817841970E-15  0.35527136788E-14  0.35527136788E-14  0.91188000000E+02  0.91188000000E+02 0.  0.
    9900012    2    3    3    0    0  0.65458833524E+01  0.20846187239E+02  0.29637272810E+02  0.54367081341E+02  0.39999993533E+02 0.  0.
         12    1    3    3    0    0 -0.65458833524E+01 -0.20846187239E+02 -0.29637272810E+02  0.36820918659E+02  0.00000000000E+00 0. -1.
         11    1    4    4    0    0  0.27126732032E+01  0.96105854743E+01  0.80310267921E+00  0.10018329364E+02  0.51100000000E-03 0. -1.
        -11    1    4    4    0    0  0.11736576995E+02  0.71766358387E+01  0.32067653365E+02  0.34893921163E+02  0.51100000000E-03 0.  1.
         12    1    4    4    0    0 -0.79033668462E+01  0.40589659261E+01 -0.32334832345E+01  0.94548308141E+01  0.00000000000E+00 0. -1.
</event>
<event>
 8    1  0.1253703E-006  0.9118800E+02  0.7816164E-02  0.1184000E+00
        -11   -1    0    0    0    0  0.00000000000E+00  0.00000000000E+00  0.45593999997E+02  0.45594000000E+02  0.51100000000E-03 0. -1.
         11   -1    0    0    0    0 -0.00000000000E+00 -0.00000000000E+00 -0.45593999997E+02  0.45594000000E+02  0.51100000000E-03 0.  1.
         23    2    1    2    0    0  0.00000000000E+00  0.00000000000E+00  0.00000000000E+00  0.91188000000E+02  0.91188000000E+02 0.  0.
    9900012    2    3    3    0    0  0.26609696258E+02  0.10798459906E+02  0.23045548285E+02  0.54367082480E+02  0.39999996130E+02 0.  0.
        -12    1    3    3    0    0 -0.26609696258E+02 -0.10798459906E+02 -0.23045548285E+02  0.36820917520E+02  0.00000000000E+00 0.  1.
         11    1    4    4    0    0  0.46913913714E+01 -0.12675104195E+01  0.70873070419E+01  0.85933495815E+01  0.51100000000E-03 0. -1.
        -11    1    4    4    0    0  0.24589223792E+02  0.47262997047E+01 -0.30490063935E+01  0.25224279491E+02  0.51100000000E-03 0.  1.
        -12    1    4    4    0    0 -0.26709189059E+01  0.73396706206E+01  0.19007247636E+02  0.20549453407E+02  0.00000000000E+00 0.  1.
</event>
<event>
 8    1  0.1253703E-006  0.9118800E+02  0.7816164E-02  0.1184000E+00
        -11   -1    0    0    0    0  0.00000000000E+00  0.00000000000E+00  0.45593999997E+02  0.45594000000E+02  0.51100000000E-03 0.  1.
         11   -1    0    0    0    0 -0.00000000000E+00 -0.00000000000E+00 -0.45593999997E+02  0.45594000000E+02  0.51100000000E-03 0. -1.
         23    2    1    2    0    0  0.35527136788E-14  0.00000000000E+00  0.00000000000E+00  0.91188000000E+02  0.91188000000E+02 0.  0.
    9900012    2    3    3    0    0  0.20495550759E+02 -0.27629711507E+02 -0.13126761733E+02  0.54367076160E+02  0.39999981721E+02 0.  0.
        -12    1    3    3    0    0 -0.20495550759E+02  0.27629711507E+02  0.13126761733E+02  0.36820923840E+02  0.00000000000E+00 0.  1.
         11    1    4    4    0    0  0.19765783912E+02 -0.57569161443E+01 -0.72238890051E+01  0.21817719170E+02  0.51100000000E-03 0. -1.
        -11    1    4    4    0    0 -0.46900802148E+01 -0.34903744126E+01  0.72438675582E+01  0.93087691680E+01  0.51100000000E-03 0.  1.
         12    1    4    4    0    0  0.54198470615E+01 -0.18382420950E+02 -0.13146740286E+02  0.23240587822E+02  0.00000000000E+00 0. -1.
</event>
<event>
 8    1  0.1253703E-006  0.9118800E+02  0.7816164E-02  0.1184000E+00
        -11   -1    0    0    0    0  0.00000000000E+00  0.00000000000E+00  0.45593999997E+02  0.45594000000E+02  0.51100000000E-03 0. -1.
         11   -1    0    0    0    0 -0.00000000000E+00 -0.00000000000E+00 -0.45593999997E+02  0.45594000000E+02  0.51100000000E-03 0.  1.
         23    2    1    2    0    0  0.00000000000E+00  0.35527136788E-14  0.35527136788E-14  0.91188000000E+02  0.91188000000E+02 0.  0.
    9900012    2    3    3    0    0  0.12154183708E+02 -0.23620257616E+02  0.25497825910E+02  0.54367083694E+02  0.39999998897E+02 0.  0.
         12    1    3    3    0    0 -0.12154183708E+02  0.23620257616E+02 -0.25497825910E+02  0.36820916306E+02  0.00000000000E+00 0. -1.
         11    1    4    4    0    0  0.90660716560E+00  0.19290932490E+01  0.69194327276E+00  0.22410093864E+01  0.51100000000E-03 0. -1.
        -11    1    4    4    0    0  0.13562027236E+02  0.21401718022E+01  0.19482958881E+02  0.23834735264E+02  0.51100000000E-03 0.  1.
        -12    1    4    4    0    0 -0.23144506938E+01 -0.27689522667E+02  0.53229237567E+01  0.28291339044E+02  0.00000000000E+00 0.  1.
</event>
<event>
 8    1  0.1253703E-006  0.9118800E+02  0.7816164E-02  0.1184000E+00
        -11   -1    0    0    0    0  0.00000000000E+00  0.00000000000E+00  0.45593999997E+02  0.45594000000E+02  0.51100000000E-03 0. -1.
         11   -1    0    0    0    0 -0.00000000000E+00 -0.00000000000E+00 -0.45593999997E+02  0.45594000000E+02  0.51100000000E-03 0.  1.
         23    2    1    2    0    0 -0.17763568394E-14  0.00000000000E+00  0.71054273576E-14  0.91188000000E+02  0.91188000000E+02 0.  0.
    9900012    2    3    3    0    0 -0.13216952247E+02 -0.86946347356E+01 -0.33248874593E+02  0.54367188472E+02  0.40000237759E+02 0.  0.
         12    1    3    3    0    0  0.13216952247E+02  0.86946347356E+01  0.33248874593E+02  0.36820811528E+02  0.00000000000E+00 0. -1.
         11    1    4    4    0    0 -0.48694048706E+01 -0.29041531403E-01 -0.57409699219E+01  0.75279932989E+01  0.51100000000E-03 0. -1.
        -11    1    4    4    0    0 -0.16988901021E+02 -0.14335466111E+01  0.68454813590E-01  0.17049413483E+02  0.51100000000E-03 0.  1.
         12    1    4    4    0    0  0.86413536447E+01 -0.72320465930E+01 -0.27576359484E+02  0.29789781690E+02  0.00000000000E+00 0. -1.
</event>
<event>
 8    1  0.1253703E-006  0.9118800E+02  0.7816164E-02  0.1184000E+00
        -11   -1    0    0    0    0  0.00000000000E+00  0.00000000000E+00  0.45593999997E+02  0.45594000000E+02  0.51100000000E-03 0. -1.
         11   -1    0    0    0    0 -0.00000000000E+00 -0.00000000000E+00 -0.45593999997E+02  0.45594000000E+02  0.51100000000E-03 0.  1.
         23    2    1    2    0    0  0.00000000000E+00  0.00000000000E+00  0.00000000000E+00  0.91188000000E+02  0.91188000000E+02 0.  0.
    9900012    2    3    3    0    0 -0.17179136906E+02  0.13757641153E+02 -0.29519215980E+02  0.54367088184E+02  0.40000009133E+02 0.  0.
         12    1    3    3    0    0  0.17179136906E+02 -0.13757641153E+02  0.29519215980E+02  0.36820911816E+02  0.00000000000E+00 0. -1.
         11    1    4    4    0    0 -0.12680987820E-01  0.38051116396E+01  0.94999835511E+00  0.39219296951E+01  0.51100000000E-03 0. -1.
        -11    1    4    4    0    0  0.63140696152E+00  0.19165645945E+02 -0.20467009570E+02  0.28046731365E+02  0.51100000000E-03 0.  1.
         12    1    4    4    0    0 -0.17797862879E+02 -0.92131164321E+01 -0.10002204765E+02  0.22398427124E+02  0.00000000000E+00 0. -1.
</event>
<event>
 8    1  0.1253703E-006  0.9118800E+02  0.7816164E-02  0.1184000E+00
        -11   -1    0    0    0    0  0.00000000000E+00  0.00000000000E+00  0.45593999997E+02  0.45594000000E+02  0.51100000000E-03 0.  1.
         11   -1    0    0    0    0 -0.00000000000E+00 -0.00000000000E+00 -0.45593999997E+02  0.45594000000E+02  0.51100000000E-03 0. -1.
         23    2    1    2    0    0 -0.44408920985E-15  0.44408920985E-15  0.71054273576E-14  0.91188000000E+02  0.91188000000E+02 0.  0.
    9900012    2    3    3    0    0 -0.16074496716E+01  0.23972781792E+01 -0.36707686900E+02  0.54367012579E+02  0.39999836775E+02 0.  0.
        -12    1    3    3    0    0  0.16074496716E+01 -0.23972781792E+01  0.36707686900E+02  0.36820987421E+02  0.00000000000E+00 0.  1.
         11    1    4    4    0    0 -0.88509762689E+01  0.21067018064E+01 -0.39362132157E+02  0.40399943337E+02  0.51100000000E-03 0. -1.
        -11    1    4    4    0    0  0.65520682498E+01  0.36020657473E+01 -0.24283863690E+01  0.78613953352E+01  0.51100000000E-03 0.  1.
        -12    1    4    4    0    0  0.69145834749E+00 -0.33114893745E+01  0.50828316255E+01  0.61056739069E+01  0.00000000000E+00 0.  1.
</event>
<event>
 8    1  0.1253703E-006  0.9118800E+02  0.7816164E-02  0.1184000E+00
        -11   -1    0    0    0    0  0.00000000000E+00  0.00000000000E+00  0.45593999997E+02  0.45594000000E+02  0.51100000000E-03 0.  1.
         11   -1    0    0    0    0 -0.00000000000E+00 -0.00000000000E+00 -0.45593999997E+02  0.45594000000E+02  0.51100000000E-03 0. -1.
         23    2    1    2    0    0  0.00000000000E+00 -0.35527136788E-14  0.00000000000E+00  0.91188000000E+02  0.91188000000E+02 0.  0.
    9900012    2    3    3    0    0 -0.27191738104E+02 -0.18136573132E+02 -0.16954441314E+02  0.54367095797E+02  0.40000026488E+02 0.  0.
        -12    1    3    3    0    0  0.27191738104E+02  0.18136573132E+02  0.16954441314E+02  0.36820904203E+02  0.00000000000E+00 0.  1.
         11    1    4    4    0    0 -0.16650310584E+02 -0.21691669640E+02 -0.42918895086E+01  0.27679987177E+02  0.51100000000E-03 0. -1.
        -11    1    4    4    0    0 -0.80013545306E+01  0.48761430745E+01  0.37013408040E+01  0.10074639925E+02  0.51100000000E-03 0.  1.
        -12    1    4    4    0    0 -0.25400729897E+01 -0.13210465662E+01 -0.16363892609E+02  0.16612468695E+02  0.00000000000E+00 0.  1.
</event>
<event>
 8    1  0.1253703E-006  0.9118800E+02  0.7816164E-02  0.1184000E+00
        -11   -1    0    0    0    0  0.00000000000E+00  0.00000000000E+00  0.45593999997E+02  0.45594000000E+02  0.51100000000E-03 0. -1.
         11   -1    0    0    0    0 -0.00000000000E+00 -0.00000000000E+00 -0.45593999997E+02  0.45594000000E+02  0.51100000000E-03 0.  1.
         23    2    1    2    0    0  0.00000000000E+00  0.17763568394E-14  0.00000000000E+00  0.91188000000E+02  0.91188000000E+02 0.  0.
    9900012    2    3    3    0    0 -0.11345370990E+02 -0.11635887310E+02 -0.33040398806E+02  0.54367091949E+02  0.40000017717E+02 0.  0.
         12    1    3    3    0    0  0.11345370990E+02  0.11635887310E+02  0.33040398806E+02  0.36820908051E+02  0.00000000000E+00 0. -1.
         11    1    4    4    0    0  0.33037406874E+01  0.81189297888E+01 -0.99654186180E+01  0.13271823233E+02  0.51100000000E-03 0. -1.
        -11    1    4    4    0    0  0.27672496854E+01 -0.15167884870E+02 -0.14430738278E+02  0.21117968884E+02  0.51100000000E-03 0.  1.
        -12    1    4    4    0    0 -0.17416361363E+02 -0.45869322282E+01 -0.86442419106E+01  0.19977299832E+02  0.00000000000E+00 0.  1.
</event>
<event>
 8    1  0.1253703E-006  0.9118800E+02  0.7816164E-02  0.1184000E+00
        -11   -1    0    0    0    0  0.00000000000E+00  0.00000000000E+00  0.45593999997E+02  0.45594000000E+02  0.51100000000E-03 0.  1.
         11   -1    0    0    0    0 -0.00000000000E+00 -0.00000000000E+00 -0.45593999997E+02  0.45594000000E+02  0.51100000000E-03 0. -1.
         23    2    1    2    0    0 -0.35527136788E-14  0.26645352591E-14  0.00000000000E+00  0.91188000000E+02  0.91188000000E+02 0.  0.
    9900012    2    3    3    0    0 -0.29381854082E+02  0.68118256671E+01 -0.21120915628E+02  0.54366981611E+02  0.39999766179E+02 0.  0.
        -12    1    3    3    0    0  0.29381854082E+02 -0.68118256671E+01  0.21120915628E+02  0.36821018389E+02  0.00000000000E+00 0.  1.
         11    1    4    4    0    0 -0.58677972276E+01  0.70721837942E+01 -0.13180510910E+02  0.16067753298E+02  0.51100000000E-03 0. -1.
        -11    1    4    4    0    0 -0.24912743280E+02 -0.63895927082E+01 -0.14240991585E+02  0.29398597149E+02  0.51100000000E-03 0.  1.
        -12    1    4    4    0    0  0.13986864262E+01  0.61292345811E+01  0.63005868669E+01  0.89006311650E+01  0.00000000000E+00 0.  1.
</event>
<event>
 8    1  0.1253703E-006  0.9118800E+02  0.7816164E-02  0.1184000E+00
        -11   -1    0    0    0    0  0.00000000000E+00  0.00000000000E+00  0.45593999997E+02  0.45594000000E+02  0.51100000000E-03 0.  1.
         11   -1    0    0    0    0 -0.00000000000E+00 -0.00000000000E+00 -0.45593999997E+02  0.45594000000E+02  0.51100000000E-03 0. -1.
         23    2    1    2    0    0  0.00000000000E+00  0.00000000000E+00 -0.71054273576E-14  0.91188000000E+02  0.91188000000E+02 0.  0.
    9900012    2    3    3    0    0  0.60852675714E+01 -0.14137310168E+02  0.33449751528E+02  0.54367083424E+02  0.39999998281E+02 0.  0.
         12    1    3    3    0    0 -0.60852675714E+01  0.14137310168E+02 -0.33449751528E+02  0.36820916576E+02  0.00000000000E+00 0. -1.
         11    1    4    4    0    0 -0.23160877344E+00 -0.13985978406E+02  0.20943336748E+02  0.25185007226E+02  0.51100000000E-03 0. -1.
        -11    1    4    4    0    0  0.52321049258E+01 -0.19313973728E+01 -0.73444575862E+01  0.92220537443E+01  0.51100000000E-03 0.  1.
        -12    1    4    4    0    0  0.10847714191E+01  0.17800656104E+01  0.19850872367E+02  0.19960022453E+02  0.00000000000E+00 0.  1.
</event>
<event>
 8    1  0.1253703E-006  0.9118800E+02  0.7816164E-02  0.1184000E+00
        -11   -1    0    0    0    0  0.00000000000E+00  0.00000000000E+00  0.45593999997E+02  0.45594000000E+02  0.51100000000E-03 0.  1.
         11   -1    0    0    0    0 -0.00000000000E+00 -0.00000000000E+00 -0.45593999997E+02  0.45594000000E+02  0.51100000000E-03 0. -1.
         23    2    1    2    0    0  0.00000000000E+00  0.00000000000E+00  0.00000000000E+00  0.91188000000E+02  0.91188000000E+02 0.  0.
    9900012    2    3    3    0    0 -0.51916359940E+01 -0.71010478524E+00  0.36446162042E+02  0.54367081208E+02  0.39999993229E+02 0.  0.
         12    1    3    3    0    0  0.51916359940E+01  0.71010478524E+00 -0.36446162042E+02  0.36820918792E+02  0.00000000000E+00 0. -1.
         11    1    4    4    0    0 -0.58964405125E+01  0.12122139859E+01  0.65312988859E+01  0.88823048170E+01  0.51100000000E-03 0. -1.
        -11    1    4    4    0    0  0.15847783731E+01 -0.50761838837E+01  0.37157646021E+02  0.37536246794E+02  0.51100000000E-03 0.  1.
         12    1    4    4    0    0 -0.87997385464E+00  0.31538651126E+01 -0.72427828641E+01  0.79485295967E+01  0.00000000000E+00 0. -1.
</event>
<event>
 8    1  0.1253703E-006  0.9118800E+02  0.7816164E-02  0.1184000E+00
        -11   -1    0    0    0    0  0.00000000000E+00  0.00000000000E+00  0.45593999997E+02  0.45594000000E+02  0.51100000000E-03 0.  1.
         11   -1    0    0    0    0 -0.00000000000E+00 -0.00000000000E+00 -0.45593999997E+02  0.45594000000E+02  0.51100000000E-03 0. -1.
         23    2    1    2    0    0  0.00000000000E+00  0.88817841970E-15  0.00000000000E+00  0.91188000000E+02  0.91188000000E+02 0.  0.
    9900012    2    3    3    0    0  0.34905778605E+02 -0.61497024907E+01  0.99773609876E+01  0.54367082670E+02  0.39999996562E+02 0.  0.
         12    1    3    3    0    0 -0.34905778605E+02  0.61497024907E+01 -0.99773609876E+01  0.36820917330E+02  0.00000000000E+00 0. -1.
         11    1    4    4    0    0  0.18855191603E+02  0.53970149241E+00  0.20359971826E+02  0.27754963180E+02  0.51100000000E-03 0. -1.
        -11    1    4    4    0    0  0.55874810266E+01 -0.54177040968E+01  0.40240012252E+01  0.87615094604E+01  0.51100000000E-03 0.  1.
        -12    1    4    4    0    0  0.10463105975E+02 -0.12716998863E+01 -0.14406612064E+02  0.17850610029E+02  0.00000000000E+00 0.  1.
</event>
<event>
 8    1  0.1253703E-006  0.9118800E+02  0.7816164E-02  0.1184000E+00
        -11   -1    0    0    0    0  0.00000000000E+00  0.00000000000E+00  0.45593999997E+02  0.45594000000E+02  0.51100000000E-03 0.  1.
         11   -1    0    0    0    0 -0.00000000000E+00 -0.00000000000E+00 -0.45593999997E+02  0.45594000000E+02  0.51100000000E-03 0. -1.
         23    2    1    2    0    0  0.00000000000E+00  0.00000000000E+00 -0.35527136788E-14  0.91188000000E+02  0.91188000000E+02 0.  0.
    9900012    2    3    3    0    0  0.46899215607E+01 -0.20018653424E+02  0.30545677715E+02  0.54367078281E+02  0.39999986557E+02 0.  0.
         12    1    3    3    0    0 -0.46899215607E+01  0.20018653424E+02 -0.30545677715E+02  0.36820921719E+02  0.00000000000E+00 0. -1.
         11    1    4    4    0    0 -0.31457562147E+01 -0.18198020166E+02  0.30778865052E+01  0.18722636185E+02  0.51100000000E-03 0. -1.
        -11    1    4    4    0    0 -0.21356466045E+01  0.53402683127E+01  0.20990493352E+02  0.21764196827E+02  0.51100000000E-03 0.  1.
         12    1    4    4    0    0  0.99713243799E+01 -0.71609015713E+01  0.64772978576E+01  0.13880245269E+02  0.00000000000E+00 0. -1.
</event>
<event>
 8    1  0.1253703E-006  0.9118800E+02  0.7816164E-02  0.1184000E+00
        -11   -1    0    0    0    0  0.00000000000E+00  0.00000000000E+00  0.45593999997E+02  0.45594000000E+02  0.51100000000E-03 0.  1.
         11   -1    0    0    0    0 -0.00000000000E+00 -0.00000000000E+00 -0.45593999997E+02  0.45594000000E+02  0.51100000000E-03 0. -1.
         23    2    1    2    0    0  0.88817841970E-15  0.00000000000E+00  0.00000000000E+00  0.91188000000E+02  0.91188000000E+02 0.  0.
    9900012    2    3    3    0    0  0.68622650870E+01  0.19353442329E+02  0.30563593545E+02  0.54367086615E+02  0.40000005555E+02 0.  0.
         12    1    3    3    0    0 -0.68622650870E+01 -0.19353442329E+02 -0.30563593545E+02  0.36820913385E+02  0.00000000000E+00 0. -1.
         11    1    4    4    0    0 -0.87752863251E+01  0.45181208228E+01  0.89273449713E+00  0.99104006479E+01  0.51100000000E-03 0. -1.
        -11    1    4    4    0    0  0.20258615065E+02  0.34838161463E+01  0.15658279209E+02  0.25840475370E+02  0.51100000000E-03 0.  1.
        -12    1    4    4    0    0 -0.46210636530E+01  0.11351505360E+02  0.14012579839E+02  0.18616210596E+02  0.00000000000E+00 0.  1.
</event>
<event>
 8    1  0.1253703E-006  0.9118800E+02  0.7816164E-02  0.1184000E+00
        -11   -1    0    0    0    0  0.00000000000E+00  0.00000000000E+00  0.45593999997E+02  0.45594000000E+02  0.51100000000E-03 0. -1.
         11   -1    0    0    0    0 -0.00000000000E+00 -0.00000000000E+00 -0.45593999997E+02  0.45594000000E+02  0.51100000000E-03 0.  1.
         23    2    1    2    0    0 -0.35527136788E-14 -0.13322676296E-14  0.00000000000E+00  0.91188000000E+02  0.91188000000E+02 0.  0.
    9900012    2    3    3    0    0 -0.23579108217E+02 -0.26122006711E+01  0.28160036848E+02  0.54367005826E+02  0.39999821381E+02 0.  0.
        -12    1    3    3    0    0  0.23579108217E+02  0.26122006711E+01 -0.28160036848E+02  0.36820994174E+02  0.00000000000E+00 0.  1.
         11    1    4    4    0    0 -0.70977376797E+01 -0.15010187414E+02  0.16610381747E+02  0.23485918939E+02  0.51100000000E-03 0. -1.
        -11    1    4    4    0    0 -0.10056066962E+02  0.52361041174E+00  0.13912791451E+02  0.17174528140E+02  0.51100000000E-03 0.  1.
        -12    1    4    4    0    0 -0.64253035761E+01  0.11874376331E+02 -0.23631363493E+01  0.13706558748E+02  0.00000000000E+00 0.  1.
</event>
<event>
 8    1  0.1253703E-006  0.9118800E+02  0.7816164E-02  0.1184000E+00
        -11   -1    0    0    0    0  0.00000000000E+00  0.00000000000E+00  0.45593999997E+02  0.45594000000E+02  0.51100000000E-03 0. -1.
         11   -1    0    0    0    0 -0.00000000000E+00 -0.00000000000E+00 -0.45593999997E+02  0.45594000000E+02  0.51100000000E-03 0.  1.
         23    2    1    2    0    0  0.00000000000E+00  0.00000000000E+00  0.00000000000E+00  0.91188000000E+02  0.91188000000E+02 0.  0.
    9900012    2    3    3    0    0 -0.34893434510E+02  0.11658487200E+02 -0.15191713829E+01  0.54367082339E+02  0.39999995809E+02 0.  0.
        -12    1    3    3    0    0  0.34893434510E+02 -0.11658487200E+02  0.15191713829E+01  0.36820917661E+02  0.00000000000E+00 0.  1.
         11    1    4    4    0    0 -0.28325308156E+02  0.15177051303E+01  0.10802990102E+02  0.30353436484E+02  0.51100000000E-03 0. -1.
        -11    1    4    4    0    0 -0.22925350383E+01  0.83497566024E+01  0.20620719491E+01  0.89009153016E+01  0.51100000000E-03 0.  1.
         12    1    4    4    0    0 -0.42755913156E+01  0.17910254676E+01 -0.14384233434E+02  0.15112730554E+02  0.00000000000E+00 0. -1.
</event>
<event>
 8    1  0.1253703E-006  0.9118800E+02  0.7816164E-02  0.1184000E+00
        -11   -1    0    0    0    0  0.00000000000E+00  0.00000000000E+00  0.45593999997E+02  0.45594000000E+02  0.51100000000E-03 0.  1.
         11   -1    0    0    0    0 -0.00000000000E+00 -0.00000000000E+00 -0.45593999997E+02  0.45594000000E+02  0.51100000000E-03 0. -1.
         23    2    1    2    0    0  0.17763568394E-14  0.17763568394E-14 -0.35527136788E-14  0.91188000000E+02  0.91188000000E+02 0.  0.
    9900012    2    3    3    0    0 -0.13555271051E+02  0.15222318075E+02  0.30664529868E+02  0.54367112818E+02  0.40000065290E+02 0.  0.
         12    1    3    3    0    0  0.13555271051E+02 -0.15222318075E+02 -0.30664529868E+02  0.36820887182E+02  0.00000000000E+00 0. -1.
         11    1    4    4    0    0 -0.30438810874E+01  0.69135443298E+01  0.57796937207E+01  0.95114229767E+01  0.51100000000E-03 0. -1.
        -11    1    4    4    0    0 -0.44095112449E+01 -0.41214289109E+01  0.29614340171E+02  0.30223155191E+02  0.51100000000E-03 0.  1.
        -12    1    4    4    0    0 -0.61018787190E+01  0.12430202657E+02 -0.47295040231E+01  0.14632534650E+02  0.00000000000E+00 0.  1.
</event>
<event>
 8    1  0.1253703E-006  0.9118800E+02  0.7816164E-02  0.1184000E+00
        -11   -1    0    0    0    0  0.00000000000E+00  0.00000000000E+00  0.45593999997E+02  0.45594000000E+02  0.51100000000E-03 0.  1.
         11   -1    0    0    0    0 -0.00000000000E+00 -0.00000000000E+00 -0.45593999997E+02  0.45594000000E+02  0.51100000000E-03 0. -1.
         23    2    1    2    0    0  0.00000000000E+00  0.00000000000E+00  0.00000000000E+00  0.91188000000E+02  0.91188000000E+02 0.  0.
    9900012    2    3    3    0    0 -0.94021241002E+01  0.33622132941E+02  0.11701795619E+02  0.54367084995E+02  0.40000001864E+02 0.  0.
         12    1    3    3    0    0  0.94021241002E+01 -0.33622132941E+02 -0.11701795619E+02  0.36820915005E+02  0.00000000000E+00 0. -1.
         11    1    4    4    0    0 -0.79102137642E+01  0.87595486613E+01  0.12710263385E+02  0.17345084898E+02  0.51100000000E-03 0. -1.
        -11    1    4    4    0    0  0.22831372723E+01  0.22432903255E+02  0.10348387902E+02  0.24810018071E+02  0.51100000000E-03 0.  1.
         12    1    4    4    0    0 -0.37750476083E+01  0.24296810242E+01 -0.11356855668E+02  0.12211982026E+02  0.00000000000E+00 0. -1.
</event>
<event>
 8    1  0.1253703E-006  0.9118800E+02  0.7816164E-02  0.1184000E+00
        -11   -1    0    0    0    0  0.00000000000E+00  0.00000000000E+00  0.45593999997E+02  0.45594000000E+02  0.51100000000E-03 0. -1.
         11   -1    0    0    0    0 -0.00000000000E+00 -0.00000000000E+00 -0.45593999997E+02  0.45594000000E+02  0.51100000000E-03 0.  1.
         23    2    1    2    0    0  0.17763568394E-14  0.00000000000E+00  0.35527136788E-14  0.91188000000E+02  0.91188000000E+02 0.  0.
    9900012    2    3    3    0    0 -0.14317939707E+02 -0.27859063629E+02 -0.19355990769E+02  0.54367011388E+02  0.39999834061E+02 0.  0.
         12    1    3    3    0    0  0.14317939707E+02  0.27859063629E+02  0.19355990769E+02  0.36820988612E+02  0.00000000000E+00 0. -1.
         11    1    4    4    0    0 -0.48742705554E+01 -0.66465832207E+01 -0.16898760720E+02  0.18801693969E+02  0.51100000000E-03 0. -1.
        -11    1    4    4    0    0 -0.65715603926E+01 -0.14804505167E+02 -0.14424916045E+02  0.21689559295E+02  0.51100000000E-03 0.  1.
         12    1    4    4    0    0 -0.28721087588E+01 -0.64079752414E+01  0.11967685997E+02  0.13875758125E+02  0.00000000000E+00 0. -1.
</event>
<event>
 8    1  0.1253703E-006  0.9118800E+02  0.7816164E-02  0.1184000E+00
        -11   -1    0    0    0    0  0.00000000000E+00  0.00000000000E+00  0.45593999997E+02  0.45594000000E+02  0.51100000000E-03 0. -1.
         11   -1    0    0    0    0 -0.00000000000E+00 -0.00000000000E+00 -0.45593999997E+02  0.45594000000E+02  0.51100000000E-03 0.  1.
         23    2    1    2    0    0 -0.71054273576E-14  0.17763568394E-14  0.35527136788E-14  0.91188000000E+02  0.91188000000E+02 0.  0.
    9900012    2    3    3    0    0  0.26792861962E+02 -0.11535140655E+02 -0.22469152516E+02  0.54367085606E+02  0.40000003256E+02 0.  0.
         12    1    3    3    0    0 -0.26792861962E+02  0.11535140655E+02  0.22469152516E+02  0.36820914394E+02  0.00000000000E+00 0. -1.
         11    1    4    4    0    0  0.40890138312E+01 -0.13039526312E+02 -0.64834048778E+01  0.15125601463E+02  0.51100000000E-03 0. -1.
        -11    1    4    4    0    0  0.25371430400E+01  0.32962071707E+01  0.72894829732E+01  0.83927730099E+01  0.51100000000E-03 0.  1.
        -12    1    4    4    0    0  0.20166705091E+02 -0.17918215133E+01 -0.23275230611E+02  0.30848711133E+02  0.00000000000E+00 0.  1.
</event>
<event>
 8    1  0.1253703E-006  0.9118800E+02  0.7816164E-02  0.1184000E+00
        -11   -1    0    0    0    0  0.00000000000E+00  0.00000000000E+00  0.45593999997E+02  0.45594000000E+02  0.51100000000E-03 0.  1.
         11   -1    0    0    0    0 -0.00000000000E+00 -0.00000000000E+00 -0.45593999997E+02  0.45594000000E+02  0.51100000000E-03 0. -1.
         23    2    1    2    0    0 -0.22204460493E-15  0.00000000000E+00  0.40245584643E-15  0.91188000000E+02  0.91188000000E+02 0.  0.
    9900012    2    3    3    0    0 -0.10934161148E+01 -0.36804465877E+02 -0.12305298155E+00  0.54367090053E+02  0.40000013393E+02 0.  0.
         12    1    3    3    0    0  0.10934161148E+01  0.36804465877E+02  0.12305298155E+00  0.36820909947E+02  0.00000000000E+00 0. -1.
         11    1    4    4    0    0  0.42933080150E+01 -0.49177028615E+01 -0.10958753252E+02  0.12755805276E+02  0.51100000000E-03 0. -1.
        -11    1    4    4    0    0 -0.15342173495E+01 -0.25363711575E+02  0.18035440935E+02  0.31160051632E+02  0.51100000000E-03 0.  1.
        -12    1    4    4    0    0 -0.38525067803E+01 -0.65230514413E+01 -0.71997406647E+01  0.10451233144E+02  0.00000000000E+00 0.  1.
</event>
<event>
 8    1  0.1253703E-006  0.9118800E+02  0.7816164E-02  0.1184000E+00
        -11   -1    0    0    0    0  0.00000000000E+00  0.00000000000E+00  0.45593999997E+02  0.45594000000E+02  0.51100000000E-03 0. -1.
         11   -1    0    0    0    0 -0.00000000000E+00 -0.00000000000E+00 -0.45593999997E+02  0.45594000000E+02  0.51100000000E-03 0.  1.
         23    2    1    2    0    0 -0.35527136788E-14  0.17763568394E-14  0.35527136788E-14  0.91188000000E+02  0.91188000000E+02 0.  0.
    9900012    2    3    3    0    0 -0.23344063705E+02 -0.13607519983E+02 -0.25013358313E+02  0.54367109130E+02  0.40000056884E+02 0.  0.
         12    1    3    3    0    0  0.23344063705E+02  0.13607519983E+02  0.25013358313E+02  0.36820890870E+02  0.00000000000E+00 0. -1.
         11    1    4    4    0    0 -0.23753644860E+01  0.22338434555E+01  0.12627872800E+01  0.34967191767E+01  0.51100000000E-03 0. -1.
        -11    1    4    4    0    0 -0.23658188212E+01 -0.10042834398E+01 -0.26943638193E+02  0.27065943975E+02  0.51100000000E-03 0.  1.
        -12    1    4    4    0    0 -0.18602880398E+02 -0.14837079999E+02  0.66749260009E+00  0.23804445979E+02  0.00000000000E+00 0.  1.
</event>
<event>
 8    1  0.1253703E-006  0.9118800E+02  0.7816164E-02  0.1184000E+00
        -11   -1    0    0    0    0  0.00000000000E+00  0.00000000000E+00  0.45593999997E+02  0.45594000000E+02  0.51100000000E-03 0. -1.
         11   -1    0    0    0    0 -0.00000000000E+00 -0.00000000000E+00 -0.45593999997E+02  0.45594000000E+02  0.51100000000E-03 0.  1.
         23    2    1    2    0    0  0.00000000000E+00  0.00000000000E+00  0.00000000000E+00  0.91188000000E+02  0.91188000000E+02 0.  0.
    9900012    2    3    3    0    0  0.30843532090E+02 -0.14494344211E+02  0.13941775263E+02  0.54367046952E+02  0.39999915137E+02 0.  0.
        -12    1    3    3    0    0 -0.30843532090E+02  0.14494344211E+02 -0.13941775263E+02  0.36820953048E+02  0.00000000000E+00 0.  1.
         11    1    4    4    0    0  0.14939593868E+02  0.48442762719E+01  0.75304881116E+01  0.17417426015E+02  0.51100000000E-03 0. -1.
        -11    1    4    4    0    0  0.13953835618E+02 -0.15019420081E+02 -0.78262593931E+01  0.21944084496E+02  0.51100000000E-03 0.  1.
         12    1    4    4    0    0  0.19501026038E+01 -0.43192004018E+01  0.14237546544E+02  0.15005536441E+02  0.00000000000E+00 0. -1.
</event>
<event>
 8    1  0.1253703E-006  0.9118800E+02  0.7816164E-02  0.1184000E+00
        -11   -1    0    0    0    0  0.00000000000E+00  0.00000000000E+00  0.45593999997E+02  0.45594000000E+02  0.51100000000E-03 0.  1.
         11   -1    0    0    0    0 -0.00000000000E+00 -0.00000000000E+00 -0.45593999997E+02  0.45594000000E+02  0.51100000000E-03 0. -1.
         23    2    1    2    0    0  0.00000000000E+00  0.88817841970E-15  0.00000000000E+00  0.91188000000E+02  0.91188000000E+02 0.  0.
    9900012    2    3    3    0    0  0.31454620986E+02  0.46494304190E+01 -0.18567965664E+02  0.54367085651E+02  0.40000003359E+02 0.  0.
        -12    1    3    3    0    0 -0.31454620986E+02 -0.46494304190E+01  0.18567965664E+02  0.36820914349E+02  0.00000000000E+00 0.  1.
         11    1    4    4    0    0  0.38462979080E+01 -0.58198287761E+00 -0.30711680140E+01  0.49562874108E+01  0.51100000000E-03 0. -1.
        -11    1    4    4    0    0 -0.33867568514E+01 -0.64009404567E+01  0.64444633384E+01  0.96939810543E+01  0.51100000000E-03 0.  1.
        -12    1    4    4    0    0  0.30995079929E+02  0.11632353753E+02 -0.21941260988E+02  0.39716817186E+02  0.00000000000E+00 0.  1.
</event>
<event>
 8    1  0.1253703E-006  0.9118800E+02  0.7816164E-02  0.1184000E+00
        -11   -1    0    0    0    0  0.00000000000E+00  0.00000000000E+00  0.45593999997E+02  0.45594000000E+02  0.51100000000E-03 0.  1.
         11   -1    0    0    0    0 -0.00000000000E+00 -0.00000000000E+00 -0.45593999997E+02  0.45594000000E+02  0.51100000000E-03 0. -1.
         23    2    1    2    0    0 -0.35527136788E-14  0.00000000000E+00  0.35527136788E-14  0.91188000000E+02  0.91188000000E+02 0.  0.
    9900012    2    3    3    0    0 -0.22657123344E+02 -0.13798294556E+02  0.25534909850E+02  0.54367220650E+02  0.40000311115E+02 0.  0.
         12    1    3    3    0    0  0.22657123344E+02  0.13798294556E+02 -0.25534909850E+02  0.36820779350E+02  0.00000000000E+00 0. -1.
         11    1    4    4    0    0 -0.15960883801E+02 -0.28452848579E+01  0.18095809959E+02  0.24296168339E+02  0.51100000000E-03 0. -1.
        -11    1    4    4    0    0  0.92851912670E+01  0.33394697439E+00  0.47515754018E+00  0.93033366270E+01  0.51100000000E-03 0.  1.
        -12    1    4    4    0    0 -0.15981430810E+02 -0.11286956672E+02  0.69639423508E+01  0.20767715684E+02  0.00000000000E+00 0.  1.
</event>
<event>
 8    1  0.1253703E-006  0.9118800E+02  0.7816164E-02  0.1184000E+00
        -11   -1    0    0    0    0  0.00000000000E+00  0.00000000000E+00  0.45593999997E+02  0.45594000000E+02  0.51100000000E-03 0. -1.
         11   -1    0    0    0    0 -0.00000000000E+00 -0.00000000000E+00 -0.45593999997E+02  0.45594000000E+02  0.51100000000E-03 0.  1.
         23    2    1    2    0    0  0.35527136788E-14  0.00000000000E+00  0.00000000000E+00  0.91188000000E+02  0.91188000000E+02 0.  0.
    9900012    2    3    3    0    0  0.26493181603E+02  0.19731943395E+02  0.16264546249E+02  0.54367167225E+02  0.40000189321E+02 0.  0.
         12    1    3    3    0    0 -0.26493181603E+02 -0.19731943395E+02 -0.16264546249E+02  0.36820832775E+02  0.00000000000E+00 0. -1.
         11    1    4    4    0    0 -0.25190291451E+01 -0.43454910108E+00  0.13982858227E+02  0.14214593389E+02  0.51100000000E-03 0. -1.
        -11    1    4    4    0    0  0.29787854253E+02  0.13017694352E+02  0.40171293158E+01  0.32755365292E+02  0.51100000000E-03 0.  1.
        -12    1    4    4    0    0 -0.77564350517E+00  0.71487981446E+01 -0.17354412931E+01  0.73972085438E+01  0.00000000000E+00 0.  1.
</event>
<event>
 8    1  0.1253703E-006  0.9118800E+02  0.7816164E-02  0.1184000E+00
        -11   -1    0    0    0    0  0.00000000000E+00  0.00000000000E+00  0.45593999997E+02  0.45594000000E+02  0.51100000000E-03 0.  1.
         11   -1    0    0    0    0 -0.00000000000E+00 -0.00000000000E+00 -0.45593999997E+02  0.45594000000E+02  0.51100000000E-03 0. -1.
         23    2    1    2    0    0  0.17763568394E-14  0.35527136788E-14 -0.71054273576E-14  0.91188000000E+02  0.91188000000E+02 0.  0.
    9900012    2    3    3    0    0 -0.76922634896E+01 -0.96983014442E+01  0.34677830377E+02  0.54367083551E+02  0.39999998571E+02 0.  0.
         12    1    3    3    0    0  0.76922634896E+01  0.96983014442E+01 -0.34677830377E+02  0.36820916449E+02  0.00000000000E+00 0. -1.
         11    1    4    4    0    0 -0.27429076809E+01  0.13237883725E+02  0.72762196363E+01  0.15352800413E+02  0.51100000000E-03 0. -1.
        -11    1    4    4    0    0  0.25158874779E+01  0.94989090556E+00  0.19620137905E+01  0.33288858360E+01  0.51100000000E-03 0.  1.
        -12    1    4    4    0    0 -0.74652432865E+01 -0.23886076075E+02  0.25439596950E+02  0.35685397302E+02  0.00000000000E+00 0.  1.
</event>
<event>
 8    1  0.1253703E-006  0.9118800E+02  0.7816164E-02  0.1184000E+00
        -11   -1    0    0    0    0  0.00000000000E+00  0.00000000000E+00  0.45593999997E+02  0.45594000000E+02  0.51100000000E-03 0. -1.
         11   -1    0    0    0    0 -0.00000000000E+00 -0.00000000000E+00 -0.45593999997E+02  0.45594000000E+02  0.51100000000E-03 0.  1.
         23    2    1    2    0    0  0.00000000000E+00 -0.35527136788E-14  0.35527136788E-14  0.91188000000E+02  0.91188000000E+02 0.  0.
    9900012    2    3    3    0    0 -0.72827153860E+01 -0.31426855305E+02 -0.17750967939E+02  0.54367054323E+02  0.39999931940E+02 0.  0.
         12    1    3    3    0    0  0.72827153860E+01  0.31426855305E+02  0.17750967939E+02  0.36820945677E+02  0.00000000000E+00 0. -1.
         11    1    4    4    0    0  0.22923229257E+01  0.69285556167E+01  0.29944331340E+01  0.78883621484E+01  0.51100000000E-03 0. -1.
        -11    1    4    4    0    0 -0.16930820668E+01 -0.63884664761E+01 -0.97265361153E+01  0.11759444539E+02  0.51100000000E-03 0.  1.
         12    1    4    4    0    0 -0.78819562449E+01 -0.31966944446E+02 -0.11018864958E+02  0.34719247636E+02  0.00000000000E+00 0. -1.
</event>
<event>
 8    1  0.1253703E-006  0.9118800E+02  0.7816164E-02  0.1184000E+00
        -11   -1    0    0    0    0  0.00000000000E+00  0.00000000000E+00  0.45593999997E+02  0.45594000000E+02  0.51100000000E-03 0.  1.
         11   -1    0    0    0    0 -0.00000000000E+00 -0.00000000000E+00 -0.45593999997E+02  0.45594000000E+02  0.51100000000E-03 0. -1.
         23    2    1    2    0    0 -0.88817841970E-15  0.00000000000E+00  0.35527136788E-14  0.91188000000E+02  0.91188000000E+02 0.  0.
    9900012    2    3    3    0    0  0.75258231794E+01  0.21253349056E+02  0.29110743073E+02  0.54367106164E+02  0.40000050122E+02 0.  0.
         12    1    3    3    0    0 -0.75258231794E+01 -0.21253349056E+02 -0.29110743073E+02  0.36820893836E+02  0.00000000000E+00 0. -1.
         11    1    4    4    0    0 -0.14293958331E+01  0.95586015954E+00 -0.57874035602E+00  0.18143268044E+01  0.51100000000E-03 0. -1.
        -11    1    4    4    0    0 -0.11866774443E+02  0.18228646186E+02  0.10464246408E+02  0.24137198069E+02  0.51100000000E-03 0.  1.
        -12    1    4    4    0    0  0.20821993455E+02  0.20688427104E+01  0.19225237020E+02  0.28415581291E+02  0.00000000000E+00 0.  1.
</event>
<event>
 8    1  0.1253703E-006  0.9118800E+02  0.7816164E-02  0.1184000E+00
        -11   -1    0    0    0    0  0.00000000000E+00  0.00000000000E+00  0.45593999997E+02  0.45594000000E+02  0.51100000000E-03 0.  1.
         11   -1    0    0    0    0 -0.00000000000E+00 -0.00000000000E+00 -0.45593999997E+02  0.45594000000E+02  0.51100000000E-03 0. -1.
         23    2    1    2    0    0  0.00000000000E+00  0.00000000000E+00 -0.71054273576E-14  0.91188000000E+02  0.91188000000E+02 0.  0.
    9900012    2    3    3    0    0  0.29383698738E+02  0.96648215680E+01  0.19974227642E+02  0.54367077994E+02  0.39999985903E+02 0.  0.
         12    1    3    3    0    0 -0.29383698738E+02 -0.96648215680E+01 -0.19974227642E+02  0.36820922006E+02  0.00000000000E+00 0. -1.
         11    1    4    4    0    0 -0.11514477992E+01  0.85879236586E+01 -0.39526145453E+01  0.95237296689E+01  0.51100000000E-03 0. -1.
        -11    1    4    4    0    0  0.17086696299E+02  0.52064142694E+00 -0.33504427534E+00  0.17097909604E+02  0.51100000000E-03 0.  1.
        -12    1    4    4    0    0  0.13448450239E+02  0.55625648238E+00  0.24261886463E+02  0.27745438721E+02  0.00000000000E+00 0.  1.
</event>
<event>
 8    1  0.1253703E-006  0.9118800E+02  0.7816164E-02  0.1184000E+00
        -11   -1    0    0    0    0  0.00000000000E+00  0.00000000000E+00  0.45593999997E+02  0.45594000000E+02  0.51100000000E-03 0. -1.
         11   -1    0    0    0    0 -0.00000000000E+00 -0.00000000000E+00 -0.45593999997E+02  0.45594000000E+02  0.51100000000E-03 0.  1.
         23    2    1    2    0    0  0.35527136788E-14  0.00000000000E+00 -0.71054273576E-14  0.91188000000E+02  0.91188000000E+02 0.  0.
    9900012    2    3    3    0    0 -0.20004809132E+02  0.42304806947E+01  0.30621728905E+02  0.54367086969E+02  0.40000006363E+02 0.  0.
        -12    1    3    3    0    0  0.20004809132E+02 -0.42304806947E+01 -0.30621728905E+02  0.36820913031E+02  0.00000000000E+00 0.  1.
         11    1    4    4    0    0 -0.24423978718E+02  0.70215100249E+01  0.24419389324E+01  0.25530284084E+02  0.51100000000E-03 0. -1.
        -11    1    4    4    0    0  0.40769803815E+01 -0.13615843048E+01  0.15950762679E+02  0.16519761232E+02  0.51100000000E-03 0.  1.
         12    1    4    4    0    0  0.34218920358E+00 -0.14294450254E+01  0.12229027293E+02  0.12317041653E+02  0.00000000000E+00 0. -1.
</event>
<event>
 8    1  0.1253703E-006  0.9118800E+02  0.7816164E-02  0.1184000E+00
        -11   -1    0    0    0    0  0.00000000000E+00  0.00000000000E+00  0.45593999997E+02  0.45594000000E+02  0.51100000000E-03 0. -1.
         11   -1    0    0    0    0 -0.00000000000E+00 -0.00000000000E+00 -0.45593999997E+02  0.45594000000E+02  0.51100000000E-03 0.  1.
         23    2    1    2    0    0 -0.35527136788E-14 -0.35527136788E-14  0.00000000000E+00  0.91188000000E+02  0.91188000000E+02 0.  0.
    9900012    2    3    3    0    0  0.18017252870E+02 -0.27066484243E+02 -0.17278982891E+02  0.54367092624E+02  0.40000019254E+02 0.  0.
         12    1    3    3    0    0 -0.18017252870E+02  0.27066484243E+02  0.17278982891E+02  0.36820907376E+02  0.00000000000E+00 0. -1.
         11    1    4    4    0    0  0.92449314330E+01 -0.13961092422E+02 -0.20677845971E+02  0.26607408237E+02  0.51100000000E-03 0.  1.
        -11    1    4    4    0    0  0.13226899765E+02 -0.20298817015E+01 -0.36830592461E+01  0.13879345186E+02  0.51100000000E-03 0. -1.
         12    1    4    4    0    0 -0.44545783276E+01 -0.11075510120E+02  0.70819223267E+01  0.13880339201E+02  0.00000000000E+00 0. -1.
</event>
<event>
 8    1  0.1253703E-006  0.9118800E+02  0.7816164E-02  0.1184000E+00
        -11   -1    0    0    0    0  0.00000000000E+00  0.00000000000E+00  0.45593999997E+02  0.45594000000E+02  0.51100000000E-03 0. -1.
         11   -1    0    0    0    0 -0.00000000000E+00 -0.00000000000E+00 -0.45593999997E+02  0.45594000000E+02  0.51100000000E-03 0.  1.
         23    2    1    2    0    0 -0.22204460493E-15  0.00000000000E+00 -0.88817841970E-15  0.91188000000E+02  0.91188000000E+02 0.  0.
    9900012    2    3    3    0    0  0.12073626801E+01 -0.36189807080E+02 -0.66797965275E+01  0.54367088240E+02  0.40000009262E+02 0.  0.
         12    1    3    3    0    0 -0.12073626801E+01  0.36189807080E+02  0.66797965275E+01  0.36820911760E+02  0.00000000000E+00 0. -1.
         11    1    4    4    0    0  0.86056842367E+00 -0.16944961424E+02  0.12554850270E+02  0.21106789458E+02  0.51100000000E-03 0. -1.
        -11    1    4    4    0    0  0.25527250892E+01  0.20788681681E+01 -0.88449852369E+01  0.94377890601E+01  0.51100000000E-03 0.  1.
        -12    1    4    4    0    0 -0.22059308328E+01 -0.21323713825E+02 -0.10389661561E+02  0.23822509722E+02  0.00000000000E+00 0.  1.
</event>
<event>
 8    1  0.1253703E-006  0.9118800E+02  0.7816164E-02  0.1184000E+00
        -11   -1    0    0    0    0  0.00000000000E+00  0.00000000000E+00  0.45593999997E+02  0.45594000000E+02  0.51100000000E-03 0.  1.
         11   -1    0    0    0    0 -0.00000000000E+00 -0.00000000000E+00 -0.45593999997E+02  0.45594000000E+02  0.51100000000E-03 0. -1.
         23    2    1    2    0    0  0.00000000000E+00  0.00000000000E+00  0.44408920985E-15  0.91188000000E+02  0.91188000000E+02 0.  0.
    9900012    2    3    3    0    0 -0.28999533674E+02 -0.22628696661E+02  0.16586605782E+01  0.54367054591E+02  0.39999932550E+02 0.  0.
         12    1    3    3    0    0  0.28999533674E+02  0.22628696661E+02 -0.16586605782E+01  0.36820945409E+02  0.00000000000E+00 0. -1.
         11    1    4    4    0    0  0.53062481653E+00 -0.18234256133E+01 -0.23434640704E+01  0.30163334984E+01  0.51100000000E-03 0. -1.
        -11    1    4    4    0    0 -0.31969067329E+02 -0.27430130742E+02  0.85095275018E+01  0.42974939173E+02  0.51100000000E-03 0.  1.
         12    1    4    4    0    0  0.24389088379E+01  0.66248596935E+01 -0.45074028532E+01  0.83757819192E+01  0.00000000000E+00 0. -1.
</event>
<event>
 8    1  0.1253703E-006  0.9118800E+02  0.7816164E-02  0.1184000E+00
        -11   -1    0    0    0    0  0.00000000000E+00  0.00000000000E+00  0.45593999997E+02  0.45594000000E+02  0.51100000000E-03 0.  1.
         11   -1    0    0    0    0 -0.00000000000E+00 -0.00000000000E+00 -0.45593999997E+02  0.45594000000E+02  0.51100000000E-03 0. -1.
         23    2    1    2    0    0  0.00000000000E+00  0.00000000000E+00  0.00000000000E+00  0.91188000000E+02  0.91188000000E+02 0.  0.
    9900012    2    3    3    0    0 -0.16574039102E+02 -0.15582429009E+02 -0.28952869270E+02  0.54367088754E+02  0.40000010433E+02 0.  0.
        -12    1    3    3    0    0  0.16574039102E+02  0.15582429009E+02  0.28952869270E+02  0.36820911246E+02  0.00000000000E+00 0.  1.
         11    1    4    4    0    0 -0.26666688079E+01 -0.13527391311E+02 -0.11338239690E+02  0.17850969658E+02  0.51100000000E-03 0. -1.
        -11    1    4    4    0    0 -0.17338028569E+02 -0.10584621463E+02 -0.50230869348E+01  0.20925411556E+02  0.51100000000E-03 0.  1.
        -12    1    4    4    0    0  0.34306582751E+01  0.85295837644E+01 -0.12591542646E+02  0.15590707540E+02  0.00000000000E+00 0.  1.
</event>
<event>
 8    1  0.1253703E-006  0.9118800E+02  0.7816164E-02  0.1184000E+00
        -11   -1    0    0    0    0  0.00000000000E+00  0.00000000000E+00  0.45593999997E+02  0.45594000000E+02  0.51100000000E-03 0.  1.
         11   -1    0    0    0    0 -0.00000000000E+00 -0.00000000000E+00 -0.45593999997E+02  0.45594000000E+02  0.51100000000E-03 0. -1.
         23    2    1    2    0    0  0.17763568394E-14  0.00000000000E+00  0.00000000000E+00  0.91188000000E+02  0.91188000000E+02 0.  0.
    9900012    2    3    3    0    0  0.97898367519E+01  0.26491501042E+02  0.23624966778E+02  0.54367087649E+02  0.40000007914E+02 0.  0.
         12    1    3    3    0    0 -0.97898367519E+01 -0.26491501042E+02 -0.23624966778E+02  0.36820912351E+02  0.00000000000E+00 0. -1.
         11    1    4    4    0    0 -0.32057433900E+01 -0.32758054590E+01 -0.10702611417E+01  0.47067134245E+01  0.51100000000E-03 0.  1.
        -11    1    4    4    0    0  0.17785603414E+02  0.60817177243E+01  0.89530471432E+01  0.20819991179E+02  0.51100000000E-03 0. -1.
        -12    1    4    4    0    0 -0.47900232717E+01  0.23685588777E+02  0.15742180776E+02  0.28840383046E+02  0.00000000000E+00 0.  1.
</event>
<event>
 8    1  0.1253703E-006  0.9118800E+02  0.7816164E-02  0.1184000E+00
        -11   -1    0    0    0    0  0.00000000000E+00  0.00000000000E+00  0.45593999997E+02  0.45594000000E+02  0.51100000000E-03 0. -1.
         11   -1    0    0    0    0 -0.00000000000E+00 -0.00000000000E+00 -0.45593999997E+02  0.45594000000E+02  0.51100000000E-03 0.  1.
         23    2    1    2    0    0 -0.35527136788E-14  0.00000000000E+00  0.00000000000E+00  0.91188000000E+02  0.91188000000E+02 0.  0.
    9900012    2    3    3    0    0  0.24678018359E+02 -0.19599143830E+02  0.19043288227E+02  0.54367111153E+02  0.40000061495E+02 0.  0.
        -12    1    3    3    0    0 -0.24678018359E+02  0.19599143830E+02 -0.19043288227E+02  0.36820888847E+02  0.00000000000E+00 0.  1.
         11    1    4    4    0    0 -0.45666760213E+01  0.59278401756E+00  0.59905977123E+01  0.75560031754E+01  0.51100000000E-03 0. -1.
        -11    1    4    4    0    0  0.11111808593E+02 -0.16880534738E+02  0.18698730083E+02  0.27533021088E+02  0.51100000000E-03 0.  1.
        -12    1    4    4    0    0  0.18132885787E+02 -0.33113931102E+01 -0.56460395688E+01  0.19278086889E+02  0.00000000000E+00 0.  1.
</event>
<event>
 8    1  0.1253703E-006  0.9118800E+02  0.7816164E-02  0.1184000E+00
        -11   -1    0    0    0    0  0.00000000000E+00  0.00000000000E+00  0.45593999997E+02  0.45594000000E+02  0.51100000000E-03 0.  1.
         11   -1    0    0    0    0 -0.00000000000E+00 -0.00000000000E+00 -0.45593999997E+02  0.45594000000E+02  0.51100000000E-03 0. -1.
         23    2    1    2    0    0 -0.71054273576E-14  0.17763568394E-14  0.35527136788E-14  0.91188000000E+02  0.91188000000E+02 0.  0.
    9900012    2    3    3    0    0 -0.31805240210E+02 -0.10932693054E+02  0.14989442770E+02  0.54367075557E+02  0.39999980348E+02 0.  0.
         12    1    3    3    0    0  0.31805240210E+02  0.10932693054E+02 -0.14989442770E+02  0.36820924443E+02  0.00000000000E+00 0. -1.
         11    1    4    4    0    0  0.55167516418E+01 -0.62245168250E+01  0.10779741368E+01  0.83869652964E+01  0.51100000000E-03 0.  1.
        -11    1    4    4    0    0 -0.36843509160E+02 -0.26535408787E+01  0.55462683732E+01  0.37352999070E+02  0.51100000000E-03 0. -1.
         12    1    4    4    0    0 -0.47848269244E+00 -0.20546353499E+01  0.83652002604E+01  0.86271111912E+01  0.00000000000E+00 0. -1.
</event>
<event>
 8    1  0.1253703E-006  0.9118800E+02  0.7816164E-02  0.1184000E+00
        -11   -1    0    0    0    0  0.00000000000E+00  0.00000000000E+00  0.45593999997E+02  0.45594000000E+02  0.51100000000E-03 0.  1.
         11   -1    0    0    0    0 -0.00000000000E+00 -0.00000000000E+00 -0.45593999997E+02  0.45594000000E+02  0.51100000000E-03 0. -1.
         23    2    1    2    0    0  0.00000000000E+00  0.00000000000E+00  0.00000000000E+00  0.91188000000E+02  0.91188000000E+02 0.  0.
    9900012    2    3    3    0    0 -0.25245659240E+02  0.22585903362E+02 -0.14433094361E+02  0.54367074510E+02  0.39999977960E+02 0.  0.
         12    1    3    3    0    0  0.25245659240E+02 -0.22585903362E+02  0.14433094361E+02  0.36820925490E+02  0.00000000000E+00 0. -1.
         11    1    4    4    0    0 -0.19061140558E+01 -0.52621650703E+01 -0.13521326220E+02  0.14633861932E+02  0.51100000000E-03 0. -1.
        -11    1    4    4    0    0 -0.11923568565E+02  0.38474364426E+01 -0.35583063031E+01  0.13024430833E+02  0.51100000000E-03 0.  1.
        -12    1    4    4    0    0 -0.11415976619E+02  0.24000631990E+02  0.26465381623E+01  0.26708781745E+02  0.00000000000E+00 0.  1.
</event>
<event>
 8    1  0.1253703E-006  0.9118800E+02  0.7816164E-02  0.1184000E+00
        -11   -1    0    0    0    0  0.00000000000E+00  0.00000000000E+00  0.45593999997E+02  0.45594000000E+02  0.51100000000E-03 0.  1.
         11   -1    0    0    0    0 -0.00000000000E+00 -0.00000000000E+00 -0.45593999997E+02  0.45594000000E+02  0.51100000000E-03 0. -1.
         23    2    1    2    0    0 -0.17763568394E-14  0.00000000000E+00  0.00000000000E+00  0.91188000000E+02  0.91188000000E+02 0.  0.
    9900012    2    3    3    0    0 -0.13623207657E+02 -0.22394228852E+02 -0.25858907275E+02  0.54367131485E+02  0.40000107846E+02 0.  0.
        -12    1    3    3    0    0  0.13623207657E+02  0.22394228852E+02  0.25858907275E+02  0.36820868515E+02  0.00000000000E+00 0.  1.
         11    1    4    4    0    0 -0.15990225010E+02 -0.48924208162E+01 -0.75522062984E+01  0.18348266881E+02  0.51100000000E-03 0. -1.
        -11    1    4    4    0    0 -0.97325364038E+01 -0.85618955039E+01 -0.16324156199E+02  0.20844816990E+02  0.51100000000E-03 0.  1.
        -12    1    4    4    0    0  0.12099553757E+02 -0.89399125320E+01 -0.19825447776E+01  0.15174047614E+02  0.00000000000E+00 0.  1.
</event>
<event>
 8    1  0.1253703E-006  0.9118800E+02  0.7816164E-02  0.1184000E+00
        -11   -1    0    0    0    0  0.00000000000E+00  0.00000000000E+00  0.45593999997E+02  0.45594000000E+02  0.51100000000E-03 0.  1.
         11   -1    0    0    0    0 -0.00000000000E+00 -0.00000000000E+00 -0.45593999997E+02  0.45594000000E+02  0.51100000000E-03 0. -1.
         23    2    1    2    0    0  0.17763568394E-14  0.35527136788E-14  0.35527136788E-14  0.91188000000E+02  0.91188000000E+02 0.  0.
    9900012    2    3    3    0    0  0.11772423467E+02  0.17885777501E+02  0.29954785047E+02  0.54367080154E+02  0.39999990827E+02 0.  0.
         12    1    3    3    0    0 -0.11772423467E+02 -0.17885777501E+02 -0.29954785047E+02  0.36820919846E+02  0.00000000000E+00 0. -1.
         11    1    4    4    0    0  0.12783905124E+02  0.21721974086E+02  0.13325716003E+02  0.28510473438E+02  0.51100000000E-03 0. -1.
        -11    1    4    4    0    0 -0.91093920447E+01  0.25183890913E+01  0.89265924838E+01  0.13000283100E+02  0.51100000000E-03 0.  1.
         12    1    4    4    0    0  0.80979103880E+01 -0.63545856765E+01  0.77024765607E+01  0.12856323617E+02  0.00000000000E+00 0. -1.
</event>
<event>
 8    1  0.1253703E-006  0.9118800E+02  0.7816164E-02  0.1184000E+00
        -11   -1    0    0    0    0  0.00000000000E+00  0.00000000000E+00  0.45593999997E+02  0.45594000000E+02  0.51100000000E-03 0. -1.
         11   -1    0    0    0    0 -0.00000000000E+00 -0.00000000000E+00 -0.45593999997E+02  0.45594000000E+02  0.51100000000E-03 0.  1.
         23    2    1    2    0    0  0.17763568394E-14  0.88817841970E-15  0.00000000000E+00  0.91188000000E+02  0.91188000000E+02 0.  0.
    9900012    2    3    3    0    0 -0.12144080734E+02 -0.37206693030E+01  0.34560891519E+02  0.54367118703E+02  0.40000078706E+02 0.  0.
        -12    1    3    3    0    0  0.12144080734E+02  0.37206693030E+01 -0.34560891519E+02  0.36820881297E+02  0.00000000000E+00 0.  1.
         11    1    4    4    0    0 -0.17153112226E+02 -0.44460421222E+01  0.23048358252E+02  0.29072725500E+02  0.51100000000E-03 0. -1.
        -11    1    4    4    0    0  0.95800357385E+01 -0.73761693471E+01  0.25082823584E+01  0.12348135067E+02  0.51100000000E-03 0.  1.
        -12    1    4    4    0    0 -0.45710042460E+01  0.81015421663E+01  0.90042509084E+01  0.12946258135E+02  0.00000000000E+00 0.  1.
</event>
<event>
 8    1  0.1253703E-006  0.9118800E+02  0.7816164E-02  0.1184000E+00
        -11   -1    0    0    0    0  0.00000000000E+00  0.00000000000E+00  0.45593999997E+02  0.45594000000E+02  0.51100000000E-03 0. -1.
         11   -1    0    0    0    0 -0.00000000000E+00 -0.00000000000E+00 -0.45593999997E+02  0.45594000000E+02  0.51100000000E-03 0.  1.
         23    2    1    2    0    0  0.17763568394E-14  0.35527136788E-14  0.00000000000E+00  0.91188000000E+02  0.91188000000E+02 0.  0.
    9900012    2    3    3    0    0  0.14360848343E+02  0.28278443210E+02 -0.18704926145E+02  0.54367101347E+02  0.40000039141E+02 0.  0.
         12    1    3    3    0    0 -0.14360848343E+02 -0.28278443210E+02  0.18704926145E+02  0.36820898653E+02  0.00000000000E+00 0. -1.
         11    1    4    4    0    0  0.13415617402E+02  0.15415049295E+02 -0.33420133343E+01  0.20706800536E+02  0.51100000000E-03 0. -1.
        -11    1    4    4    0    0  0.72799557106E+01  0.12384789568E+02  0.26069303908E+01  0.14600577184E+02  0.51100000000E-03 0.  1.
        -12    1    4    4    0    0 -0.63347247698E+01  0.47860434656E+00 -0.17969843201E+02  0.19059723626E+02  0.00000000000E+00 0.  1.
</event>
<event>
 8    1  0.1253703E-006  0.9118800E+02  0.7816164E-02  0.1184000E+00
        -11   -1    0    0    0    0  0.00000000000E+00  0.00000000000E+00  0.45593999997E+02  0.45594000000E+02  0.51100000000E-03 0.  1.
         11   -1    0    0    0    0 -0.00000000000E+00 -0.00000000000E+00 -0.45593999997E+02  0.45594000000E+02  0.51100000000E-03 0. -1.
         23    2    1    2    0    0  0.00000000000E+00 -0.44408920985E-15  0.00000000000E+00  0.91188000000E+02  0.91188000000E+02 0.  0.
    9900012    2    3    3    0    0 -0.22246804301E+02  0.25078094702E+01 -0.29233040846E+02  0.54367080850E+02  0.39999992413E+02 0.  0.
        -12    1    3    3    0    0  0.22246804301E+02 -0.25078094702E+01  0.29233040846E+02  0.36820919150E+02  0.00000000000E+00 0.  1.
         11    1    4    4    0    0 -0.23404997846E+02  0.28686052688E+01 -0.23818345654E+02  0.33516211157E+02  0.51100000000E-03 0. -1.
        -11    1    4    4    0    0 -0.17705600474E+01  0.82119888485E+01  0.25595324825E+01  0.87819616555E+01  0.51100000000E-03 0.  1.
         12    1    4    4    0    0  0.29287535923E+01 -0.85727846472E+01 -0.79742276750E+01  0.12068908038E+02  0.00000000000E+00 0. -1.
</event>
<event>
 8    1  0.1253703E-006  0.9118800E+02  0.7816164E-02  0.1184000E+00
        -11   -1    0    0    0    0  0.00000000000E+00  0.00000000000E+00  0.45593999997E+02  0.45594000000E+02  0.51100000000E-03 0.  1.
         11   -1    0    0    0    0 -0.00000000000E+00 -0.00000000000E+00 -0.45593999997E+02  0.45594000000E+02  0.51100000000E-03 0. -1.
         23    2    1    2    0    0  0.00000000000E+00 -0.35527136788E-14  0.17763568394E-14  0.91188000000E+02  0.91188000000E+02 0.  0.
    9900012    2    3    3    0    0  0.20559986267E+02 -0.26699880141E+02  0.14838580254E+02  0.54367080691E+02  0.39999992052E+02 0.  0.
         12    1    3    3    0    0 -0.20559986267E+02  0.26699880141E+02 -0.14838580254E+02  0.36820919309E+02  0.00000000000E+00 0. -1.
         11    1    4    4    0    0  0.11040595626E+01  0.35798400984E+01  0.16266158512E+02  0.16691977583E+02  0.51100000000E-03 0. -1.
        -11    1    4    4    0    0  0.20053057672E+01 -0.10380300916E+02  0.26408618439E+01  0.10897066112E+02  0.51100000000E-03 0.  1.
         12    1    4    4    0    0  0.17450620937E+02 -0.19899419323E+02 -0.40684401019E+01  0.26778036996E+02  0.00000000000E+00 0. -1.
</event>
<event>
 8    1  0.1253703E-006  0.9118800E+02  0.7816164E-02  0.1184000E+00
        -11   -1    0    0    0    0  0.00000000000E+00  0.00000000000E+00  0.45593999997E+02  0.45594000000E+02  0.51100000000E-03 0. -1.
         11   -1    0    0    0    0 -0.00000000000E+00 -0.00000000000E+00 -0.45593999997E+02  0.45594000000E+02  0.51100000000E-03 0.  1.
         23    2    1    2    0    0 -0.71054273576E-14  0.00000000000E+00  0.00000000000E+00  0.91188000000E+02  0.91188000000E+02 0.  0.
    9900012    2    3    3    0    0  0.26132000342E+02  0.24801320136E+02  0.76020531063E+01  0.54367107374E+02  0.40000052880E+02 0.  0.
        -12    1    3    3    0    0 -0.26132000342E+02 -0.24801320136E+02 -0.76020531063E+01  0.36820892626E+02  0.00000000000E+00 0.  1.
         11    1    4    4    0    0 -0.69975387867E+00  0.39890126849E+01  0.51855845977E+01  0.65796782271E+01  0.51100000000E-03 0. -1.
        -11    1    4    4    0    0  0.32381833313E+02  0.23092829699E+02  0.68088300351E+01  0.40351233921E+02  0.51100000000E-03 0.  1.
        -12    1    4    4    0    0 -0.55500790926E+01 -0.22805222478E+01 -0.43923615264E+01  0.74361952258E+01  0.00000000000E+00 0.  1.
</event>
<event>
 8    1  0.1253703E-006  0.9118800E+02  0.7816164E-02  0.1184000E+00
        -11   -1    0    0    0    0  0.00000000000E+00  0.00000000000E+00  0.45593999997E+02  0.45594000000E+02  0.51100000000E-03 0. -1.
         11   -1    0    0    0    0 -0.00000000000E+00 -0.00000000000E+00 -0.45593999997E+02  0.45594000000E+02  0.51100000000E-03 0.  1.
         23    2    1    2    0    0  0.18318679906E-14  0.00000000000E+00 -0.71054273576E-14  0.91188000000E+02  0.91188000000E+02 0.  0.
    9900012    2    3    3    0    0 -0.49477434553E+00  0.17082401468E+02  0.32614828320E+02  0.54367078394E+02  0.39999986815E+02 0.  0.
         12    1    3    3    0    0  0.49477434553E+00 -0.17082401468E+02 -0.32614828320E+02  0.36820921606E+02  0.00000000000E+00 0. -1.
         11    1    4    4    0    0  0.28373998077E+01 -0.29256292495E+01  0.17525645652E+02  0.17993287636E+02  0.51100000000E-03 0. -1.
        -11    1    4    4    0    0  0.85234076061E+01  0.13080812311E+02  0.16322890141E+02  0.22587449408E+02  0.51100000000E-03 0.  1.
        -12    1    4    4    0    0 -0.11855581759E+02  0.69272184063E+01 -0.12337074723E+01  0.13786341350E+02  0.00000000000E+00 0.  1.
</event>
<event>
 8    1  0.1253703E-006  0.9118800E+02  0.7816164E-02  0.1184000E+00
        -11   -1    0    0    0    0  0.00000000000E+00  0.00000000000E+00  0.45593999997E+02  0.45594000000E+02  0.51100000000E-03 0. -1.
         11   -1    0    0    0    0 -0.00000000000E+00 -0.00000000000E+00 -0.45593999997E+02  0.45594000000E+02  0.51100000000E-03 0.  1.
         23    2    1    2    0    0  0.00000000000E+00 -0.35527136788E-14  0.35527136788E-14  0.91188000000E+02  0.91188000000E+02 0.  0.
    9900012    2    3    3    0    0  0.10237478052E+02  0.19957733533E+02 -0.29200397280E+02  0.54367078149E+02  0.39999986256E+02 0.  0.
         12    1    3    3    0    0 -0.10237478052E+02 -0.19957733533E+02  0.29200397280E+02  0.36820921851E+02  0.00000000000E+00 0. -1.
         11    1    4    4    0    0  0.12374665162E+02 -0.24370669249E-01 -0.15032286748E+02  0.19470556668E+02  0.51100000000E-03 0. -1.
        -11    1    4    4    0    0  0.71998189182E+00 -0.17817866559E+01  0.52493534971E+01  0.55900670846E+01  0.51100000000E-03 0.  1.
        -12    1    4    4    0    0 -0.28571690022E+01  0.21763890858E+02 -0.19417464029E+02  0.29306454397E+02  0.00000000000E+00 0.  1.
</event>
<event>
 8    1  0.1253703E-006  0.9118800E+02  0.7816164E-02  0.1184000E+00
        -11   -1    0    0    0    0  0.00000000000E+00  0.00000000000E+00  0.45593999997E+02  0.45594000000E+02  0.51100000000E-03 0.  1.
         11   -1    0    0    0    0 -0.00000000000E+00 -0.00000000000E+00 -0.45593999997E+02  0.45594000000E+02  0.51100000000E-03 0. -1.
         23    2    1    2    0    0  0.35527136788E-14 -0.44408920985E-15 -0.35527136788E-14  0.91188000000E+02  0.91188000000E+02 0.  0.
    9900012    2    3    3    0    0 -0.31812956221E+02 -0.11029973509E+01  0.18506743423E+02  0.54367077432E+02  0.39999984621E+02 0.  0.
         12    1    3    3    0    0  0.31812956221E+02  0.11029973509E+01 -0.18506743423E+02  0.36820922568E+02  0.00000000000E+00 0. -1.
         11    1    4    4    0    0 -0.25533049556E+01 -0.89005952251E+01 -0.34336233953E+00  0.92659516249E+01  0.51100000000E-03 0. -1.
        -11    1    4    4    0    0 -0.14357032638E+02 -0.19502787027E+01 -0.50080484848E+01  0.15329987706E+02  0.51100000000E-03 0.  1.
         12    1    4    4    0    0 -0.14902618627E+02  0.97478765769E+01  0.23858154247E+02  0.29771138100E+02  0.00000000000E+00 0. -1.
</event>
<event>
 8    1  0.1253703E-006  0.9118800E+02  0.7816164E-02  0.1184000E+00
        -11   -1    0    0    0    0  0.00000000000E+00  0.00000000000E+00  0.45593999997E+02  0.45594000000E+02  0.51100000000E-03 0.  1.
         11   -1    0    0    0    0 -0.00000000000E+00 -0.00000000000E+00 -0.45593999997E+02  0.45594000000E+02  0.51100000000E-03 0. -1.
         23    2    1    2    0    0  0.72164496601E-15  0.00000000000E+00  0.00000000000E+00  0.91188000000E+02  0.91188000000E+02 0.  0.
    9900012    2    3    3    0    0 -0.13444228286E+00 -0.87767160159E+01 -0.35759353432E+02  0.54367079634E+02  0.39999989641E+02 0.  0.
        -12    1    3    3    0    0  0.13444228286E+00  0.87767160159E+01  0.35759353432E+02  0.36820920366E+02  0.00000000000E+00 0.  1.
         11    1    4    4    0    0 -0.22058503697E+01 -0.15180877356E+01  0.16942106862E+01  0.31687089385E+01  0.51100000000E-03 0.  1.
        -11    1    4    4    0    0 -0.14540695441E+02 -0.70228308830E+00 -0.76288984734E+01  0.16435483492E+02  0.51100000000E-03 0. -1.
        -12    1    4    4    0    0  0.16612103528E+02 -0.65563451920E+01 -0.29824665645E+02  0.34762887203E+02  0.00000000000E+00 0.  1.
</event>
<event>
 8    1  0.1253703E-006  0.9118800E+02  0.7816164E-02  0.1184000E+00
        -11   -1    0    0    0    0  0.00000000000E+00  0.00000000000E+00  0.45593999997E+02  0.45594000000E+02  0.51100000000E-03 0.  1.
         11   -1    0    0    0    0 -0.00000000000E+00 -0.00000000000E+00 -0.45593999997E+02  0.45594000000E+02  0.51100000000E-03 0. -1.
         23    2    1    2    0    0  0.35527136788E-14 -0.17763568394E-14  0.35527136788E-14  0.91188000000E+02  0.91188000000E+02 0.  0.
    9900012    2    3    3    0    0 -0.29276379632E+02 -0.10319869463E+02  0.19803366575E+02  0.54367089667E+02  0.40000012513E+02 0.  0.
         12    1    3    3    0    0  0.29276379632E+02  0.10319869463E+02 -0.19803366575E+02  0.36820910333E+02  0.00000000000E+00 0. -1.
         11    1    4    4    0    0  0.42724307917E+01  0.32508357943E+01 -0.19166205278E+01  0.57004414513E+01  0.51100000000E-03 0. -1.
        -11    1    4    4    0    0 -0.13121101588E+02  0.44969672978E+01  0.15296918266E+02  0.20649012821E+02  0.51100000000E-03 0.  1.
         12    1    4    4    0    0 -0.20427708836E+02 -0.18067672555E+02  0.64230688365E+01  0.28017635395E+02  0.00000000000E+00 0. -1.
</event>
<event>
 8    1  0.1253703E-006  0.9118800E+02  0.7816164E-02  0.1184000E+00
        -11   -1    0    0    0    0  0.00000000000E+00  0.00000000000E+00  0.45593999997E+02  0.45594000000E+02  0.51100000000E-03 0. -1.
         11   -1    0    0    0    0 -0.00000000000E+00 -0.00000000000E+00 -0.45593999997E+02  0.45594000000E+02  0.51100000000E-03 0.  1.
         23    2    1    2    0    0  0.71054273576E-14  0.00000000000E+00  0.10547118734E-14  0.91188000000E+02  0.91188000000E+02 0.  0.
    9900012    2    3    3    0    0 -0.32744195842E+02 -0.16836938796E+02 -0.34144162689E+00  0.54367062319E+02  0.39999950168E+02 0.  0.
        -12    1    3    3    0    0  0.32744195842E+02  0.16836938796E+02  0.34144162689E+00  0.36820937681E+02  0.00000000000E+00 0.  1.
         11    1    4    4    0    0 -0.25090889864E+02 -0.98452958117E+00  0.45277477380E+01  0.25515143592E+02  0.51100000000E-03 0. -1.
        -11    1    4    4    0    0 -0.65909718928E+01 -0.40388584858E+00  0.67876696830E+01  0.94697673814E+01  0.51100000000E-03 0.  1.
        -12    1    4    4    0    0 -0.10623340845E+01 -0.15448523367E+02 -0.11656859048E+02  0.19382151346E+02  0.00000000000E+00 0.  1.
</event>
<event>
 8    1  0.1253703E-006  0.9118800E+02  0.7816164E-02  0.1184000E+00
        -11   -1    0    0    0    0  0.00000000000E+00  0.00000000000E+00  0.45593999997E+02  0.45594000000E+02  0.51100000000E-03 0. -1.
         11   -1    0    0    0    0 -0.00000000000E+00 -0.00000000000E+00 -0.45593999997E+02  0.45594000000E+02  0.51100000000E-03 0.  1.
         23    2    1    2    0    0  0.35527136788E-14  0.00000000000E+00  0.00000000000E+00  0.91188000000E+02  0.91188000000E+02 0.  0.
    9900012    2    3    3    0    0 -0.24185195056E+02 -0.30169772959E+01 -0.27599914815E+02  0.54367066963E+02  0.39999960755E+02 0.  0.
         12    1    3    3    0    0  0.24185195056E+02  0.30169772959E+01  0.27599914815E+02  0.36820933037E+02  0.00000000000E+00 0. -1.
         11    1    4    4    0    0 -0.10194930662E+02  0.68621837910E+01 -0.13921836318E+02  0.18569967806E+02  0.51100000000E-03 0. -1.
        -11    1    4    4    0    0 -0.24882688515E+01 -0.26676925085E+01 -0.20347228209E+02  0.20671665662E+02  0.51100000000E-03 0.  1.
        -12    1    4    4    0    0 -0.11501995543E+02 -0.72114685785E+01  0.66691497116E+01  0.15125433495E+02  0.00000000000E+00 0.  1.
</event>
<event>
 8    1  0.1253703E-006  0.9118800E+02  0.7816164E-02  0.1184000E+00
        -11   -1    0    0    0    0  0.00000000000E+00  0.00000000000E+00  0.45593999997E+02  0.45594000000E+02  0.51100000000E-03 0. -1.
         11   -1    0    0    0    0 -0.00000000000E+00 -0.00000000000E+00 -0.45593999997E+02  0.45594000000E+02  0.51100000000E-03 0.  1.
         23    2    1    2    0    0  0.35527136788E-14  0.00000000000E+00  0.88817841970E-15  0.91188000000E+02  0.91188000000E+02 0.  0.
    9900012    2    3    3    0    0  0.25735227373E+02  0.25582054780E+02 -0.62480414456E+01  0.54367061980E+02  0.39999949396E+02 0.  0.
         12    1    3    3    0    0 -0.25735227373E+02 -0.25582054780E+02  0.62480414456E+01  0.36820938020E+02  0.00000000000E+00 0. -1.
         11    1    4    4    0    0  0.92366304692E+01  0.30885947050E+01  0.11556414063E+02  0.15113089225E+02  0.51100000000E-03 0. -1.
        -11    1    4    4    0    0  0.20485943390E+02  0.23173449049E+02 -0.15461296429E+02  0.34579391333E+02  0.51100000000E-03 0.  1.
         12    1    4    4    0    0 -0.39873464859E+01 -0.67998897367E+00 -0.23431590790E+01  0.46745814221E+01  0.00000000000E+00 0. -1.
</event>
<event>
 8    1  0.1253703E-006  0.9118800E+02  0.7816164E-02  0.1184000E+00
        -11   -1    0    0    0    0  0.00000000000E+00  0.00000000000E+00  0.45593999997E+02  0.45594000000E+02  0.51100000000E-03 0.  1.
         11   -1    0    0    0    0 -0.00000000000E+00 -0.00000000000E+00 -0.45593999997E+02  0.45594000000E+02  0.51100000000E-03 0. -1.
         23    2    1    2    0    0  0.00000000000E+00  0.00000000000E+00  0.00000000000E+00  0.91188000000E+02  0.91188000000E+02 0.  0.
    9900012    2    3    3    0    0  0.29280013812E+02 -0.32579982386E+01 -0.22087212887E+02  0.54367099217E+02  0.40000034284E+02 0.  0.
        -12    1    3    3    0    0 -0.29280013812E+02  0.32579982386E+01  0.22087212887E+02  0.36820900783E+02  0.00000000000E+00 0.  1.
         11    1    4    4    0    0  0.15835493854E+02  0.87816594028E+01 -0.11268548127E+02  0.21327460810E+02  0.51100000000E-03 0. -1.
        -11    1    4    4    0    0  0.11005697678E+02  0.28340106231E+01 -0.13588958117E+02  0.17714874557E+02  0.51100000000E-03 0.  1.
        -12    1    4    4    0    0  0.24388222804E+01 -0.14873668264E+02  0.27702933572E+01  0.15324763849E+02  0.00000000000E+00 0.  1.
</event>
<event>
 8    1  0.1253703E-006  0.9118800E+02  0.7816164E-02  0.1184000E+00
        -11   -1    0    0    0    0  0.00000000000E+00  0.00000000000E+00  0.45593999997E+02  0.45594000000E+02  0.51100000000E-03 0.  1.
         11   -1    0    0    0    0 -0.00000000000E+00 -0.00000000000E+00 -0.45593999997E+02  0.45594000000E+02  0.51100000000E-03 0. -1.
         23    2    1    2    0    0  0.00000000000E+00 -0.35527136788E-14  0.00000000000E+00  0.91188000000E+02  0.91188000000E+02 0.  0.
    9900012    2    3    3    0    0  0.24197460098E+02  0.21150700007E+02 -0.17969694043E+02  0.54367094390E+02  0.40000023280E+02 0.  0.
        -12    1    3    3    0    0 -0.24197460098E+02 -0.21150700007E+02  0.17969694043E+02  0.36820905610E+02  0.00000000000E+00 0.  1.
         11    1    4    4    0    0  0.89886089831E+00  0.59542177026E+01  0.76293601954E+01  0.97194545431E+01  0.51100000000E-03 0.  1.
        -11    1    4    4    0    0  0.22325232388E+02  0.20533838042E+02 -0.17871614086E+02  0.35205810546E+02  0.51100000000E-03 0. -1.
         12    1    4    4    0    0  0.97336681115E+00 -0.53373557380E+01 -0.77274401529E+01  0.94418293005E+01  0.00000000000E+00 0. -1.
</event>
<event>
 8    1  0.1253703E-006  0.9118800E+02  0.7816164E-02  0.1184000E+00
        -11   -1    0    0    0    0  0.00000000000E+00  0.00000000000E+00  0.45593999997E+02  0.45594000000E+02  0.51100000000E-03 0. -1.
         11   -1    0    0    0    0 -0.00000000000E+00 -0.00000000000E+00 -0.45593999997E+02  0.45594000000E+02  0.51100000000E-03 0.  1.
         23    2    1    2    0    0  0.00000000000E+00  0.00000000000E+00  0.35527136788E-14  0.91188000000E+02  0.91188000000E+02 0.  0.
    9900012    2    3    3    0    0 -0.16128439803E+02  0.27651121251E+02 -0.18195295009E+02  0.54367084241E+02  0.40000000143E+02 0.  0.
         12    1    3    3    0    0  0.16128439803E+02 -0.27651121251E+02  0.18195295009E+02  0.36820915759E+02  0.00000000000E+00 0. -1.
         11    1    4    4    0    0  0.53279164147E+01  0.10569687579E+01 -0.29859837658E+00  0.54399483021E+01  0.51100000000E-03 0. -1.
        -11    1    4    4    0    0  0.34984105951E+01 -0.44667680523E+01 -0.17682659636E+01  0.59428661691E+01  0.51100000000E-03 0.  1.
        -12    1    4    4    0    0 -0.24954766812E+02  0.31060920545E+02 -0.16128430668E+02  0.42984269769E+02  0.00000000000E+00 0.  1.
</event>
<event>
 8    1  0.1253703E-006  0.9118800E+02  0.7816164E-02  0.1184000E+00
        -11   -1    0    0    0    0  0.00000000000E+00  0.00000000000E+00  0.45593999997E+02  0.45594000000E+02  0.51100000000E-03 0.  1.
         11   -1    0    0    0    0 -0.00000000000E+00 -0.00000000000E+00 -0.45593999997E+02  0.45594000000E+02  0.51100000000E-03 0. -1.
         23    2    1    2    0    0  0.22204460493E-14 -0.35527136788E-14  0.00000000000E+00  0.91188000000E+02  0.91188000000E+02 0.  0.
    9900012    2    3    3    0    0 -0.32666505613E+01 -0.10786706585E+02 -0.35053491816E+02  0.54367199719E+02  0.40000263399E+02 0.  0.
        -12    1    3    3    0    0  0.32666505613E+01  0.10786706585E+02  0.35053491816E+02  0.36820800281E+02  0.00000000000E+00 0.  1.
         11    1    4    4    0    0  0.65201688907E+01 -0.13223599920E+02 -0.25719498183E+02  0.29645721180E+02  0.51100000000E-03 0. -1.
        -11    1    4    4    0    0 -0.15899484176E+02  0.29090665851E+01 -0.91805745501E+01  0.18588685128E+02  0.51100000000E-03 0.  1.
        -12    1    4    4    0    0  0.61126647243E+01 -0.47217324964E+00 -0.15341908297E+00  0.61327934112E+01  0.00000000000E+00 0.  1.
</event>
<event>
 8    1  0.1253703E-006  0.9118800E+02  0.7816164E-02  0.1184000E+00
        -11   -1    0    0    0    0  0.00000000000E+00  0.00000000000E+00  0.45593999997E+02  0.45594000000E+02  0.51100000000E-03 0.  1.
         11   -1    0    0    0    0 -0.00000000000E+00 -0.00000000000E+00 -0.45593999997E+02  0.45594000000E+02  0.51100000000E-03 0. -1.
         23    2    1    2    0    0  0.17763568394E-14 -0.35527136788E-14 -0.35527136788E-14  0.91188000000E+02  0.91188000000E+02 0.  0.
    9900012    2    3    3    0    0  0.15530597437E+02  0.18442132353E+02 -0.27829272085E+02  0.54367080848E+02  0.39999992408E+02 0.  0.
        -12    1    3    3    0    0 -0.15530597437E+02 -0.18442132353E+02  0.27829272085E+02  0.36820919152E+02  0.00000000000E+00 0.  1.
         11    1    4    4    0    0 -0.12317928733E+02  0.20124874591E+01 -0.41936617312E+01  0.13166938635E+02  0.51100000000E-03 0. -1.
        -11    1    4    4    0    0  0.10784848598E+02  0.18420195871E+01 -0.50247491286E+01  0.12039688514E+02  0.51100000000E-03 0.  1.
         12    1    4    4    0    0  0.17063677572E+02  0.14587625306E+02 -0.18610861225E+02  0.29160453698E+02  0.00000000000E+00 0. -1.
</event>
<event>
 8    1  0.1253703E-006  0.9118800E+02  0.7816164E-02  0.1184000E+00
        -11   -1    0    0    0    0  0.00000000000E+00  0.00000000000E+00  0.45593999997E+02  0.45594000000E+02  0.51100000000E-03 0. -1.
         11   -1    0    0    0    0 -0.00000000000E+00 -0.00000000000E+00 -0.45593999997E+02  0.45594000000E+02  0.51100000000E-03 0.  1.
         23    2    1    2    0    0  0.00000000000E+00  0.00000000000E+00  0.00000000000E+00  0.91188000000E+02  0.91188000000E+02 0.  0.
    9900012    2    3    3    0    0 -0.16502062946E+02 -0.32838753161E+02  0.22533069172E+01  0.54367093130E+02  0.40000020408E+02 0.  0.
        -12    1    3    3    0    0  0.16502062946E+02  0.32838753161E+02 -0.22533069172E+01  0.36820906870E+02  0.00000000000E+00 0.  1.
         11    1    4    4    0    0 -0.23298898206E+01 -0.12865369141E+02  0.74109126138E+01  0.15028896691E+02  0.51100000000E-03 0. -1.
        -11    1    4    4    0    0  0.74394191368E+01  0.13332623632E+01  0.26368273187E+01  0.80047113747E+01  0.51100000000E-03 0.  1.
         12    1    4    4    0    0 -0.21611592263E+02 -0.21306646384E+02 -0.77944330152E+01  0.31333485064E+02  0.00000000000E+00 0. -1.
</event>
<event>
 8    1  0.1253703E-006  0.9118800E+02  0.7816164E-02  0.1184000E+00
        -11   -1    0    0    0    0  0.00000000000E+00  0.00000000000E+00  0.45593999997E+02  0.45594000000E+02  0.51100000000E-03 0. -1.
         11   -1    0    0    0    0 -0.00000000000E+00 -0.00000000000E+00 -0.45593999997E+02  0.45594000000E+02  0.51100000000E-03 0.  1.
         23    2    1    2    0    0  0.35527136788E-14  0.17763568394E-14  0.00000000000E+00  0.91188000000E+02  0.91188000000E+02 0.  0.
    9900012    2    3    3    0    0  0.30440983324E+02 -0.14151108449E+02 -0.15128545410E+02  0.54367079013E+02  0.39999988227E+02 0.  0.
         12    1    3    3    0    0 -0.30440983324E+02  0.14151108449E+02  0.15128545410E+02  0.36820920987E+02  0.00000000000E+00 0. -1.
         11    1    4    4    0    0  0.54725830343E+01 -0.11115957818E+02 -0.20571380314E+02  0.24014482538E+02  0.51100000000E-03 0. -1.
        -11    1    4    4    0    0  0.40339364753E+01 -0.28833747013E+01 -0.49269416902E+01  0.69900821050E+01  0.51100000000E-03 0.  1.
         12    1    4    4    0    0  0.20934463814E+02 -0.15177593008E+00  0.10369776593E+02  0.23362514371E+02  0.00000000000E+00 0. -1.
</event>
<event>
 8    1  0.1253703E-006  0.9118800E+02  0.7816164E-02  0.1184000E+00
        -11   -1    0    0    0    0  0.00000000000E+00  0.00000000000E+00  0.45593999997E+02  0.45594000000E+02  0.51100000000E-03 0.  1.
         11   -1    0    0    0    0 -0.00000000000E+00 -0.00000000000E+00 -0.45593999997E+02  0.45594000000E+02  0.51100000000E-03 0. -1.
         23    2    1    2    0    0 -0.17763568394E-14  0.00000000000E+00  0.00000000000E+00  0.91188000000E+02  0.91188000000E+02 0.  0.
    9900012    2    3    3    0    0  0.12687639812E+02 -0.33130015552E+02  0.98594914654E+01  0.54367031701E+02  0.39999880369E+02 0.  0.
         12    1    3    3    0    0 -0.12687639812E+02  0.33130015552E+02 -0.98594914654E+01  0.36820968299E+02  0.00000000000E+00 0. -1.
         11    1    4    4    0    0  0.79113206710E+01  0.23033125149E+01  0.79936967404E+01  0.11480132017E+02  0.51100000000E-03 0. -1.
        -11    1    4    4    0    0  0.14598905866E+01  0.15829816296E+01  0.51454603689E+01  0.55778915401E+01  0.51100000000E-03 0.  1.
         12    1    4    4    0    0  0.33164285547E+01 -0.37016309697E+02 -0.32796656439E+01  0.37309008144E+02  0.00000000000E+00 0. -1.
</event>
<event>
 8    1  0.1253703E-006  0.9118800E+02  0.7816164E-02  0.1184000E+00
        -11   -1    0    0    0    0  0.00000000000E+00  0.00000000000E+00  0.45593999997E+02  0.45594000000E+02  0.51100000000E-03 0.  1.
         11   -1    0    0    0    0 -0.00000000000E+00 -0.00000000000E+00 -0.45593999997E+02  0.45594000000E+02  0.51100000000E-03 0. -1.
         23    2    1    2    0    0  0.00000000000E+00 -0.17763568394E-14  0.17763568394E-14  0.91188000000E+02  0.91188000000E+02 0.  0.
    9900012    2    3    3    0    0 -0.34832198870E+02 -0.80775390117E+01 -0.87892558522E+01  0.54367085657E+02  0.40000003373E+02 0.  0.
        -12    1    3    3    0    0  0.34832198870E+02  0.80775390117E+01  0.87892558522E+01  0.36820914343E+02  0.00000000000E+00 0.  1.
         11    1    4    4    0    0 -0.76002007767E+01 -0.95320969947E+01 -0.88675079473E+01  0.15075033082E+02  0.51100000000E-03 0. -1.
        -11    1    4    4    0    0 -0.71328162633E+01  0.12756037677E+02 -0.54190819848E+01  0.15587174692E+02  0.51100000000E-03 0.  1.
         12    1    4    4    0    0 -0.20099181830E+02 -0.11301479694E+02  0.54973340799E+01  0.23704877884E+02  0.00000000000E+00 0. -1.
</event>
<event>
 8    1  0.1253703E-006  0.9118800E+02  0.7816164E-02  0.1184000E+00
        -11   -1    0    0    0    0  0.00000000000E+00  0.00000000000E+00  0.45593999997E+02  0.45594000000E+02  0.51100000000E-03 0.  1.
         11   -1    0    0    0    0 -0.00000000000E+00 -0.00000000000E+00 -0.45593999997E+02  0.45594000000E+02  0.51100000000E-03 0. -1.
         23    2    1    2    0    0  0.00000000000E+00  0.00000000000E+00 -0.71054273576E-14  0.91188000000E+02  0.91188000000E+02 0.  0.
    9900012    2    3    3    0    0 -0.48754229475E+01  0.30776795553E+02 -0.19616282881E+02  0.54367089535E+02  0.40000012212E+02 0.  0.
        -12    1    3    3    0    0  0.48754229475E+01 -0.30776795553E+02  0.19616282881E+02  0.36820910465E+02  0.00000000000E+00 0.  1.
         11    1    4    4    0    0  0.29547978072E+01  0.24365266710E+02 -0.44002086358E+01  0.24935093508E+02  0.51100000000E-03 0. -1.
        -11    1    4    4    0    0  0.20802987353E+01 -0.68833444917E+01 -0.41154805703E+00  0.72025999669E+01  0.51100000000E-03 0.  1.
        -12    1    4    4    0    0 -0.99105194900E+01  0.13294873334E+02 -0.14804526188E+02  0.22229396060E+02  0.00000000000E+00 0.  1.
</event>
<event>
 8    1  0.1253703E-006  0.9118800E+02  0.7816164E-02  0.1184000E+00
        -11   -1    0    0    0    0  0.00000000000E+00  0.00000000000E+00  0.45593999997E+02  0.45594000000E+02  0.51100000000E-03 0.  1.
         11   -1    0    0    0    0 -0.00000000000E+00 -0.00000000000E+00 -0.45593999997E+02  0.45594000000E+02  0.51100000000E-03 0. -1.
         23    2    1    2    0    0 -0.35527136788E-14  0.88817841970E-15  0.71054273576E-14  0.91188000000E+02  0.91188000000E+02 0.  0.
    9900012    2    3    3    0    0  0.26130829985E+02 -0.40936655288E+01 -0.25616496403E+02  0.54367037748E+02  0.39999894155E+02 0.  0.
        -12    1    3    3    0    0 -0.26130829985E+02  0.40936655288E+01  0.25616496403E+02  0.36820962252E+02  0.00000000000E+00 0.  1.
         11    1    4    4    0    0 -0.54889357841E+01 -0.61286498279E+01  0.39386451024E+00  0.82367405124E+01  0.51100000000E-03 0. -1.
        -11    1    4    4    0    0 -0.17218153856E+01  0.11043413345E+01  0.17831477293E+01  0.27136385336E+01  0.51100000000E-03 0.  1.
        -12    1    4    4    0    0  0.33341581154E+02  0.93064296453E+00 -0.27793508643E+02  0.43416658702E+02  0.00000000000E+00 0.  1.
</event>
<event>
 8    1  0.1253703E-006  0.9118800E+02  0.7816164E-02  0.1184000E+00
        -11   -1    0    0    0    0  0.00000000000E+00  0.00000000000E+00  0.45593999997E+02  0.45594000000E+02  0.51100000000E-03 0. -1.
         11   -1    0    0    0    0 -0.00000000000E+00 -0.00000000000E+00 -0.45593999997E+02  0.45594000000E+02  0.51100000000E-03 0.  1.
         23    2    1    2    0    0  0.88817841970E-15  0.71054273576E-14 -0.88817841970E-15  0.91188000000E+02  0.91188000000E+02 0.  0.
    9900012    2    3    3    0    0 -0.39927490335E+01 -0.36120248437E+02 -0.59300998310E+01  0.54367075568E+02  0.39999980373E+02 0.  0.
        -12    1    3    3    0    0  0.39927490335E+01  0.36120248437E+02  0.59300998310E+01  0.36820924432E+02  0.00000000000E+00 0.  1.
         11    1    4    4    0    0  0.13856067327E+01 -0.88393738392E+01  0.53956015418E+01  0.10448299007E+02  0.51100000000E-03 0. -1.
        -11    1    4    4    0    0 -0.55154255633E+01 -0.19453537923E+02  0.90035874310E+01  0.22134241431E+02  0.51100000000E-03 0.  1.
        -12    1    4    4    0    0  0.13706979707E+00 -0.78273366752E+01 -0.20329288804E+02  0.21784535130E+02  0.00000000000E+00 0.  1.
</event>
<event>
 8    1  0.1253703E-006  0.9118800E+02  0.7816164E-02  0.1184000E+00
        -11   -1    0    0    0    0  0.00000000000E+00  0.00000000000E+00  0.45593999997E+02  0.45594000000E+02  0.51100000000E-03 0.  1.
         11   -1    0    0    0    0 -0.00000000000E+00 -0.00000000000E+00 -0.45593999997E+02  0.45594000000E+02  0.51100000000E-03 0. -1.
         23    2    1    2    0    0  0.17763568394E-14  0.17763568394E-14  0.00000000000E+00  0.91188000000E+02  0.91188000000E+02 0.  0.
    9900012    2    3    3    0    0 -0.11217473569E+02  0.12545938595E+02  0.32749782700E+02  0.54367074490E+02  0.39999977915E+02 0.  0.
         12    1    3    3    0    0  0.11217473569E+02 -0.12545938595E+02 -0.32749782700E+02  0.36820925510E+02  0.00000000000E+00 0. -1.
         11    1    4    4    0    0  0.10633364999E+01 -0.43049505888E+01  0.19973650935E+02  0.20459961290E+02  0.51100000000E-03 0. -1.
        -11    1    4    4    0    0 -0.15381169316E+02  0.14938344944E+01  0.86339694891E+01  0.17701902170E+02  0.51100000000E-03 0.  1.
         12    1    4    4    0    0  0.31003592469E+01  0.15357054689E+02  0.41421622762E+01  0.16205211030E+02  0.00000000000E+00 0. -1.
</event>
<event>
 8    1  0.1253703E-006  0.9118800E+02  0.7816164E-02  0.1184000E+00
        -11   -1    0    0    0    0  0.00000000000E+00  0.00000000000E+00  0.45593999997E+02  0.45594000000E+02  0.51100000000E-03 0.  1.
         11   -1    0    0    0    0 -0.00000000000E+00 -0.00000000000E+00 -0.45593999997E+02  0.45594000000E+02  0.51100000000E-03 0. -1.
         23    2    1    2    0    0 -0.71054273576E-14  0.00000000000E+00  0.17763568394E-14  0.91188000000E+02  0.91188000000E+02 0.  0.
    9900012    2    3    3    0    0  0.35463802411E+02  0.71353144523E+01  0.68691579254E+01  0.54367091206E+02  0.40000016023E+02 0.  0.
         12    1    3    3    0    0 -0.35463802411E+02 -0.71353144523E+01 -0.68691579254E+01  0.36820908794E+02  0.00000000000E+00 0. -1.
         11    1    4    4    0    0  0.26209859484E+02  0.70487724777E+01  0.13383449055E+02  0.30261504201E+02  0.51100000000E-03 0. -1.
        -11    1    4    4    0    0  0.11928656251E+02 -0.22562250482E+01  0.41769199619E+01  0.12838615660E+02  0.51100000000E-03 0.  1.
         12    1    4    4    0    0 -0.26747133245E+01  0.23427670228E+01 -0.10691211092E+02  0.11266971345E+02  0.00000000000E+00 0. -1.
</event>
<event>
 8    1  0.1253703E-006  0.9118800E+02  0.7816164E-02  0.1184000E+00
        -11   -1    0    0    0    0  0.00000000000E+00  0.00000000000E+00  0.45593999997E+02  0.45594000000E+02  0.51100000000E-03 0. -1.
         11   -1    0    0    0    0 -0.00000000000E+00 -0.00000000000E+00 -0.45593999997E+02  0.45594000000E+02  0.51100000000E-03 0.  1.
         23    2    1    2    0    0  0.00000000000E+00  0.00000000000E+00  0.00000000000E+00  0.91188000000E+02  0.91188000000E+02 0.  0.
    9900012    2    3    3    0    0 -0.35144587936E+02 -0.42459266590E+01 -0.10129654762E+02  0.54367083933E+02  0.39999999442E+02 0.  0.
        -12    1    3    3    0    0  0.35144587936E+02  0.42459266590E+01  0.10129654762E+02  0.36820916067E+02  0.00000000000E+00 0.  1.
         11    1    4    4    0    0 -0.76076504710E+01  0.27007461450E+01  0.69337108826E+01  0.10641744326E+02  0.51100000000E-03 0. -1.
        -11    1    4    4    0    0 -0.30125914183E+02 -0.12432004411E+02 -0.93348718451E+01  0.33900815207E+02  0.51100000000E-03 0.  1.
        -12    1    4    4    0    0  0.25889767179E+01  0.54853316074E+01 -0.77284937992E+01  0.98245244003E+01  0.00000000000E+00 0.  1.
</event>
<event>
 8    1  0.1253703E-006  0.9118800E+02  0.7816164E-02  0.1184000E+00
        -11   -1    0    0    0    0  0.00000000000E+00  0.00000000000E+00  0.45593999997E+02  0.45594000000E+02  0.51100000000E-03 0.  1.
         11   -1    0    0    0    0 -0.00000000000E+00 -0.00000000000E+00 -0.45593999997E+02  0.45594000000E+02  0.51100000000E-03 0. -1.
         23    2    1    2    0    0 -0.22204460493E-15  0.00000000000E+00  0.00000000000E+00  0.91188000000E+02  0.91188000000E+02 0.  0.
    9900012    2    3    3    0    0  0.13468703588E+01  0.15644395550E+02  0.33304936033E+02  0.54367082900E+02  0.39999997088E+02 0.  0.
         12    1    3    3    0    0 -0.13468703588E+01 -0.15644395550E+02 -0.33304936033E+02  0.36820917100E+02  0.00000000000E+00 0. -1.
         11    1    4    4    0    0  0.88691464217E+01  0.11893597399E+02  0.33595560431E+02  0.36725755244E+02  0.51100000000E-03 0.  1.
        -11    1    4    4    0    0 -0.52395757137E+01 -0.57996137770E+01  0.47872004281E-01  0.78160709830E+01  0.51100000000E-03 0. -1.
         12    1    4    4    0    0 -0.22827003492E+01  0.95504119277E+01 -0.33849640183E+00  0.98252566729E+01  0.00000000000E+00 0. -1.
</event>
<event>
 8    1  0.1253703E-006  0.9118800E+02  0.7816164E-02  0.1184000E+00
        -11   -1    0    0    0    0  0.00000000000E+00  0.00000000000E+00  0.45593999997E+02  0.45594000000E+02  0.51100000000E-03 0.  1.
         11   -1    0    0    0    0 -0.00000000000E+00 -0.00000000000E+00 -0.45593999997E+02  0.45594000000E+02  0.51100000000E-03 0. -1.
         23    2    1    2    0    0  0.00000000000E+00  0.00000000000E+00  0.00000000000E+00  0.91188000000E+02  0.91188000000E+02 0.  0.
    9900012    2    3    3    0    0  0.33282051452E+02  0.13417478600E+02  0.82495631978E+01  0.54367095967E+02  0.40000026876E+02 0.  0.
        -12    1    3    3    0    0 -0.33282051452E+02 -0.13417478600E+02 -0.82495631978E+01  0.36820904033E+02  0.00000000000E+00 0.  1.
         11    1    4    4    0    0  0.26112779358E+02  0.20376060723E+00  0.73295283746E+01  0.27122698071E+02  0.51100000000E-03 0. -1.
        -11    1    4    4    0    0 -0.39660750721E+00 -0.50605373734E+01 -0.44492820210E+01  0.67499960582E+01  0.51100000000E-03 0.  1.
         12    1    4    4    0    0  0.75658796011E+01  0.18274255366E+02  0.53693168442E+01  0.20494401838E+02  0.00000000000E+00 0. -1.
</event>
<event>
 8    1  0.1253703E-006  0.9118800E+02  0.7816164E-02  0.1184000E+00
        -11   -1    0    0    0    0  0.00000000000E+00  0.00000000000E+00  0.45593999997E+02  0.45594000000E+02  0.51100000000E-03 0. -1.
         11   -1    0    0    0    0 -0.00000000000E+00 -0.00000000000E+00 -0.45593999997E+02  0.45594000000E+02  0.51100000000E-03 0.  1.
         23    2    1    2    0    0  0.88817841970E-15  0.00000000000E+00  0.22204460493E-15  0.91188000000E+02  0.91188000000E+02 0.  0.
    9900012    2    3    3    0    0  0.65441211591E+01  0.36184692930E+02 -0.19032182333E+01  0.54367085239E+02  0.40000002420E+02 0.  0.
         12    1    3    3    0    0 -0.65441211591E+01 -0.36184692930E+02  0.19032182333E+01  0.36820914761E+02  0.00000000000E+00 0. -1.
         11    1    4    4    0    0  0.40614234746E+01 -0.55504011001E+01 -0.66878825866E+01  0.95932208755E+01  0.51100000000E-03 0. -1.
        -11    1    4    4    0    0 -0.65036094297E+01  0.17344850425E+02  0.18988442589E+01  0.18621127293E+02  0.51100000000E-03 0.  1.
         12    1    4    4    0    0  0.89863071142E+01  0.24390243605E+02  0.28858200945E+01  0.26152737071E+02  0.00000000000E+00 0. -1.
</event>
<event>
 8    1  0.1253703E-006  0.9118800E+02  0.7816164E-02  0.1184000E+00
        -11   -1    0    0    0    0  0.00000000000E+00  0.00000000000E+00  0.45593999997E+02  0.45594000000E+02  0.51100000000E-03 0.  1.
         11   -1    0    0    0    0 -0.00000000000E+00 -0.00000000000E+00 -0.45593999997E+02  0.45594000000E+02  0.51100000000E-03 0. -1.
         23    2    1    2    0    0 -0.35527136788E-14  0.00000000000E+00 -0.44408920985E-15  0.91188000000E+02  0.91188000000E+02 0.  0.
    9900012    2    3    3    0    0 -0.19104122108E+02 -0.31269015228E+02  0.36145704313E+01  0.54367028879E+02  0.39999873936E+02 0.  0.
         12    1    3    3    0    0  0.19104122108E+02  0.31269015228E+02 -0.36145704313E+01  0.36820971121E+02  0.00000000000E+00 0. -1.
         11    1    4    4    0    0 -0.13094131055E+02  0.78622470680E+00 -0.99987039696E+00  0.13155765217E+02  0.51100000000E-03 0. -1.
        -11    1    4    4    0    0 -0.11876351002E+02 -0.32149784526E+02  0.68164438393E+01  0.34944531261E+02  0.51100000000E-03 0.  1.
        -12    1    4    4    0    0  0.58663599485E+01  0.94544591065E-01 -0.22020030110E+01  0.62667324009E+01  0.00000000000E+00 0.  1.
</event>
<event>
 8    1  0.1253703E-006  0.9118800E+02  0.7816164E-02  0.1184000E+00
        -11   -1    0    0    0    0  0.00000000000E+00  0.00000000000E+00  0.45593999997E+02  0.45594000000E+02  0.51100000000E-03 0.  1.
         11   -1    0    0    0    0 -0.00000000000E+00 -0.00000000000E+00 -0.45593999997E+02  0.45594000000E+02  0.51100000000E-03 0. -1.
         23    2    1    2    0    0 -0.35527136788E-14  0.35527136788E-14 -0.35527136788E-14  0.91188000000E+02  0.91188000000E+02 0.  0.
    9900012    2    3    3    0    0  0.15548146416E+02 -0.19337960883E+02  0.27204371607E+02  0.54367089872E+02  0.40000012982E+02 0.  0.
         12    1    3    3    0    0 -0.15548146416E+02  0.19337960883E+02 -0.27204371607E+02  0.36820910128E+02  0.00000000000E+00 0. -1.
         11    1    4    4    0    0  0.25133278765E+01 -0.31914208025E+01  0.13423997185E+02  0.14025180371E+02  0.51100000000E-03 0. -1.
        -11    1    4    4    0    0  0.19409567001E+02 -0.15411199158E+02 -0.38937201026E+00  0.24786850576E+02  0.51100000000E-03 0.  1.
         12    1    4    4    0    0 -0.63747484612E+01 -0.73534092239E+00  0.14169746432E+02  0.15555058925E+02  0.00000000000E+00 0. -1.
</event>
<event>
 8    1  0.1253703E-006  0.9118800E+02  0.7816164E-02  0.1184000E+00
        -11   -1    0    0    0    0  0.00000000000E+00  0.00000000000E+00  0.45593999997E+02  0.45594000000E+02  0.51100000000E-03 0.  1.
         11   -1    0    0    0    0 -0.00000000000E+00 -0.00000000000E+00 -0.45593999997E+02  0.45594000000E+02  0.51100000000E-03 0. -1.
         23    2    1    2    0    0  0.17763568394E-14 -0.71054273576E-14  0.00000000000E+00  0.91188000000E+02  0.91188000000E+02 0.  0.
    9900012    2    3    3    0    0  0.40486401177E+01 -0.36342728962E+02  0.43114170300E+01  0.54367166875E+02  0.40000188525E+02 0.  0.
        -12    1    3    3    0    0 -0.40486401177E+01  0.36342728962E+02 -0.43114170300E+01  0.36820833125E+02  0.00000000000E+00 0.  1.
         11    1    4    4    0    0  0.18666105370E+01 -0.88456272589E+01 -0.59352320334E+01  0.10814635271E+02  0.51100000000E-03 0. -1.
        -11    1    4    4    0    0 -0.37258508366E+01 -0.17106387619E+02 -0.99105468960E+01  0.20117887609E+02  0.51100000000E-03 0.  1.
         12    1    4    4    0    0  0.59078804173E+01 -0.10390714084E+02  0.20157195959E+02  0.23434643995E+02  0.00000000000E+00 0. -1.
</event>
<event>
 8    1  0.1253703E-006  0.9118800E+02  0.7816164E-02  0.1184000E+00
        -11   -1    0    0    0    0  0.00000000000E+00  0.00000000000E+00  0.45593999997E+02  0.45594000000E+02  0.51100000000E-03 0.  1.
         11   -1    0    0    0    0 -0.00000000000E+00 -0.00000000000E+00 -0.45593999997E+02  0.45594000000E+02  0.51100000000E-03 0. -1.
         23    2    1    2    0    0  0.00000000000E+00  0.00000000000E+00  0.00000000000E+00  0.91188000000E+02  0.91188000000E+02 0.  0.
    9900012    2    3    3    0    0 -0.57589339188E+01 -0.24550830356E+02  0.26830422003E+02  0.54367080186E+02  0.39999990901E+02 0.  0.
         12    1    3    3    0    0  0.57589339188E+01  0.24550830356E+02 -0.26830422003E+02  0.36820919814E+02  0.00000000000E+00 0. -1.
         11    1    4    4    0    0 -0.27443681063E+01 -0.30082628849E+01 -0.52050100722E+01  0.66085801803E+01  0.51100000000E-03 0. -1.
        -11    1    4    4    0    0  0.48396067155E+01 -0.22693165390E+02  0.11820450545E+02  0.26040825638E+02  0.51100000000E-03 0.  1.
         12    1    4    4    0    0 -0.78541725280E+01  0.11505979191E+01  0.20214981530E+02  0.21717674368E+02  0.00000000000E+00 0. -1.
</event>
<event>
 8    1  0.1253703E-006  0.9118800E+02  0.7816164E-02  0.1184000E+00
        -11   -1    0    0    0    0  0.00000000000E+00  0.00000000000E+00  0.45593999997E+02  0.45594000000E+02  0.51100000000E-03 0.  1.
         11   -1    0    0    0    0 -0.00000000000E+00 -0.00000000000E+00 -0.45593999997E+02  0.45594000000E+02  0.51100000000E-03 0. -1.
         23    2    1    2    0    0  0.00000000000E+00  0.17763568394E-14  0.00000000000E+00  0.91188000000E+02  0.91188000000E+02 0.  0.
    9900012    2    3    3    0    0  0.32069695567E+01 -0.94231287704E+01 -0.35449956343E+02  0.54367089986E+02  0.40000013240E+02 0.  0.
        -12    1    3    3    0    0 -0.32069695567E+01  0.94231287704E+01  0.35449956343E+02  0.36820910014E+02  0.00000000000E+00 0.  1.
         11    1    4    4    0    0  0.49862382998E+01 -0.12256895318E+02 -0.28183661163E+02  0.31135394842E+02  0.51100000000E-03 0. -1.
        -11    1    4    4    0    0  0.97194190888E+01  0.68190258352E+00 -0.58726167049E+00  0.97609925258E+01  0.51100000000E-03 0.  1.
         12    1    4    4    0    0 -0.11498687832E+02  0.21518639637E+01 -0.66790335100E+01  0.13470702617E+02  0.00000000000E+00 0. -1.
</event>
<event>
 8    1  0.1253703E-006  0.9118800E+02  0.7816164E-02  0.1184000E+00
        -11   -1    0    0    0    0  0.00000000000E+00  0.00000000000E+00  0.45593999997E+02  0.45594000000E+02  0.51100000000E-03 0.  1.
         11   -1    0    0    0    0 -0.00000000000E+00 -0.00000000000E+00 -0.45593999997E+02  0.45594000000E+02  0.51100000000E-03 0. -1.
         23    2    1    2    0    0 -0.17763568394E-14  0.00000000000E+00  0.35527136788E-14  0.91188000000E+02  0.91188000000E+02 0.  0.
    9900012    2    3    3    0    0 -0.64656204889E+01  0.29493724527E+02 -0.21073573294E+02  0.54367088467E+02  0.40000009777E+02 0.  0.
        -12    1    3    3    0    0  0.64656204889E+01 -0.29493724527E+02  0.21073573294E+02  0.36820911533E+02  0.00000000000E+00 0.  1.
         11    1    4    4    0    0 -0.33283455609E+01  0.12091511093E+02 -0.55423799664E+01  0.13711327457E+02  0.51100000000E-03 0. -1.
        -11    1    4    4    0    0 -0.11435550456E+02  0.96246241944E+01 -0.22723885725E+02  0.27198900490E+02  0.51100000000E-03 0.  1.
        -12    1    4    4    0    0  0.82982755282E+01  0.77775892396E+01  0.71926923979E+01  0.13456860520E+02  0.00000000000E+00 0.  1.
</event>
<event>
 8    1  0.1253703E-006  0.9118800E+02  0.7816164E-02  0.1184000E+00
        -11   -1    0    0    0    0  0.00000000000E+00  0.00000000000E+00  0.45593999997E+02  0.45594000000E+02  0.51100000000E-03 0. -1.
         11   -1    0    0    0    0 -0.00000000000E+00 -0.00000000000E+00 -0.45593999997E+02  0.45594000000E+02  0.51100000000E-03 0.  1.
         23    2    1    2    0    0  0.00000000000E+00  0.35527136788E-14  0.00000000000E+00  0.91188000000E+02  0.91188000000E+02 0.  0.
    9900012    2    3    3    0    0  0.44545492295E+01  0.20284099137E+02 -0.30405592727E+02  0.54366976716E+02  0.39999755018E+02 0.  0.
         12    1    3    3    0    0 -0.44545492295E+01 -0.20284099137E+02  0.30405592727E+02  0.36821023284E+02  0.00000000000E+00 0. -1.
         11    1    4    4    0    0 -0.86616231450E+01 -0.73655419740E+01 -0.14720493980E+01  0.11464809365E+02  0.51100000000E-03 0. -1.
        -11    1    4    4    0    0  0.92169765860E+01  0.25726451215E+02 -0.24802145179E+02  0.36904598023E+02  0.51100000000E-03 0.  1.
         12    1    4    4    0    0  0.38991957885E+01  0.19231898962E+01 -0.41313981500E+01  0.59975693283E+01  0.00000000000E+00 0. -1.
</event>
<event>
 8    1  0.1253703E-006  0.9118800E+02  0.7816164E-02  0.1184000E+00
        -11   -1    0    0    0    0  0.00000000000E+00  0.00000000000E+00  0.45593999997E+02  0.45594000000E+02  0.51100000000E-03 0.  1.
         11   -1    0    0    0    0 -0.00000000000E+00 -0.00000000000E+00 -0.45593999997E+02  0.45594000000E+02  0.51100000000E-03 0. -1.
         23    2    1    2    0    0 -0.35527136788E-14  0.00000000000E+00  0.35527136788E-14  0.91188000000E+02  0.91188000000E+02 0.  0.
    9900012    2    3    3    0    0  0.18059846945E+02  0.19893877550E+02  0.25176517345E+02  0.54367062189E+02  0.39999949872E+02 0.  0.
         12    1    3    3    0    0 -0.18059846945E+02 -0.19893877550E+02 -0.25176517345E+02  0.36820937811E+02  0.00000000000E+00 0. -1.
         11    1    4    4    0    0 -0.29345462226E+01 -0.23294700465E+01  0.12249995978E+02  0.12810167601E+02  0.51100000000E-03 0. -1.
        -11    1    4    4    0    0  0.24372667659E+02  0.92601762400E+01  0.78137046900E+01  0.27218225035E+02  0.51100000000E-03 0.  1.
         12    1    4    4    0    0 -0.33782744921E+01  0.12963171357E+02  0.51128166769E+01  0.14338669553E+02  0.00000000000E+00 0. -1.
</event>
<event>
 8    1  0.1253703E-006  0.9118800E+02  0.7816164E-02  0.1184000E+00
        -11   -1    0    0    0    0  0.00000000000E+00  0.00000000000E+00  0.45593999997E+02  0.45594000000E+02  0.51100000000E-03 0.  1.
         11   -1    0    0    0    0 -0.00000000000E+00 -0.00000000000E+00 -0.45593999997E+02  0.45594000000E+02  0.51100000000E-03 0. -1.
         23    2    1    2    0    0  0.00000000000E+00 -0.88817841970E-15  0.17763568394E-14  0.91188000000E+02  0.91188000000E+02 0.  0.
    9900012    2    3    3    0    0  0.34266924296E+02  0.26307480885E+01  0.13215043676E+02  0.54367077747E+02  0.39999985339E+02 0.  0.
         12    1    3    3    0    0 -0.34266924296E+02 -0.26307480885E+01 -0.13215043676E+02  0.36820922253E+02  0.00000000000E+00 0. -1.
         11    1    4    4    0    0  0.19716779695E+02 -0.18756899099E+01 -0.36817049410E+00  0.19809219165E+02  0.51100000000E-03 0. -1.
        -11    1    4    4    0    0  0.76268374409E+01  0.11369606436E+02 -0.41635295343E+01  0.14309842008E+02  0.51100000000E-03 0.  1.
         12    1    4    4    0    0  0.69233071608E+01 -0.68631684375E+01  0.17746743704E+02  0.20248016573E+02  0.00000000000E+00 0. -1.
</event>
<event>
 8    1  0.1253703E-006  0.9118800E+02  0.7816164E-02  0.1184000E+00
        -11   -1    0    0    0    0  0.00000000000E+00  0.00000000000E+00  0.45593999997E+02  0.45594000000E+02  0.51100000000E-03 0.  1.
         11   -1    0    0    0    0 -0.00000000000E+00 -0.00000000000E+00 -0.45593999997E+02  0.45594000000E+02  0.51100000000E-03 0. -1.
         23    2    1    2    0    0  0.00000000000E+00  0.00000000000E+00  0.00000000000E+00  0.91188000000E+02  0.91188000000E+02 0.  0.
    9900012    2    3    3    0    0  0.70431424719E+01 -0.15361056694E+02  0.32714083640E+02  0.54367093072E+02  0.40000020276E+02 0.  0.
         12    1    3    3    0    0 -0.70431424719E+01  0.15361056694E+02 -0.32714083640E+02  0.36820906928E+02  0.00000000000E+00 0. -1.
         11    1    4    4    0    0 -0.10974851066E+02  0.38475243067E+01  0.81676514131E+01  0.14211309900E+02  0.51100000000E-03 0. -1.
        -11    1    4    4    0    0  0.94557550109E+00 -0.13783696882E+02  0.95748963657E+01  0.16809611936E+02  0.51100000000E-03 0.  1.
         12    1    4    4    0    0  0.17072418037E+02 -0.54248841181E+01  0.14971535861E+02  0.23346171235E+02  0.00000000000E+00 0. -1.
</event>
<event>
 8    1  0.1253703E-006  0.9118800E+02  0.7816164E-02  0.1184000E+00
        -11   -1    0    0    0    0  0.00000000000E+00  0.00000000000E+00  0.45593999997E+02  0.45594000000E+02  0.51100000000E-03 0.  1.
         11   -1    0    0    0    0 -0.00000000000E+00 -0.00000000000E+00 -0.45593999997E+02  0.45594000000E+02  0.51100000000E-03 0. -1.
         23    2    1    2    0    0  0.88817841970E-15  0.71054273576E-14  0.35527136788E-14  0.91188000000E+02  0.91188000000E+02 0.  0.
    9900012    2    3    3    0    0  0.50030467308E+01  0.29023424621E+02  0.22099479283E+02  0.54367127687E+02  0.40000099187E+02 0.  0.
         12    1    3    3    0    0 -0.50030467308E+01 -0.29023424621E+02 -0.22099479283E+02  0.36820872313E+02  0.00000000000E+00 0. -1.
         11    1    4    4    0    0 -0.48063630575E+01  0.15411715009E+02  0.16213950526E+02  0.22880434377E+02  0.51100000000E-03 0.  1.
        -11    1    4    4    0    0  0.12796013180E+02  0.17396881623E+02  0.11186195751E+02  0.24321192799E+02  0.51100000000E-03 0. -1.
         12    1    4    4    0    0 -0.29866033921E+01 -0.37851720112E+01 -0.53006669944E+01  0.71655005102E+01  0.00000000000E+00 0. -1.
</event>
<event>
 8    1  0.1253703E-006  0.9118800E+02  0.7816164E-02  0.1184000E+00
        -11   -1    0    0    0    0  0.00000000000E+00  0.00000000000E+00  0.45593999997E+02  0.45594000000E+02  0.51100000000E-03 0. -1.
         11   -1    0    0    0    0 -0.00000000000E+00 -0.00000000000E+00 -0.45593999997E+02  0.45594000000E+02  0.51100000000E-03 0.  1.
         23    2    1    2    0    0  0.88817841970E-15  0.00000000000E+00  0.00000000000E+00  0.91188000000E+02  0.91188000000E+02 0.  0.
    9900012    2    3    3    0    0  0.32850491066E+01  0.20006136655E+02  0.30736669343E+02  0.54367083474E+02  0.39999998397E+02 0.  0.
        -12    1    3    3    0    0 -0.32850491066E+01 -0.20006136655E+02 -0.30736669343E+02  0.36820916526E+02  0.00000000000E+00 0.  1.
         11    1    4    4    0    0  0.80100896928E+01  0.41754104885E+01  0.59464773377E+01  0.10814628178E+02  0.51100000000E-03 0. -1.
        -11    1    4    4    0    0  0.35766112360E+01  0.22569582970E+02  0.91686297592E+01  0.24621981953E+02  0.51100000000E-03 0.  1.
        -12    1    4    4    0    0 -0.83016518223E+01 -0.67388568037E+01  0.15621562246E+02  0.18930473343E+02  0.00000000000E+00 0.  1.
</event>
<event>
 8    1  0.1253703E-006  0.9118800E+02  0.7816164E-02  0.1184000E+00
        -11   -1    0    0    0    0  0.00000000000E+00  0.00000000000E+00  0.45593999997E+02  0.45594000000E+02  0.51100000000E-03 0.  1.
         11   -1    0    0    0    0 -0.00000000000E+00 -0.00000000000E+00 -0.45593999997E+02  0.45594000000E+02  0.51100000000E-03 0. -1.
         23    2    1    2    0    0  0.00000000000E+00  0.17763568394E-14  0.00000000000E+00  0.91188000000E+02  0.91188000000E+02 0.  0.
    9900012    2    3    3    0    0  0.18182449306E+02 -0.11412108730E+02  0.29915354479E+02  0.54367270485E+02  0.40000424722E+02 0.  0.
         12    1    3    3    0    0 -0.18182449306E+02  0.11412108730E+02 -0.29915354479E+02  0.36820729515E+02  0.00000000000E+00 0. -1.
         11    1    4    4    0    0  0.26059434608E+01 -0.33809904835E+00 -0.62694359972E+01  0.67978732168E+01  0.51100000000E-03 0. -1.
        -11    1    4    4    0    0  0.96860522079E+01 -0.18531003431E+02  0.20848236655E+02  0.29527388429E+02  0.51100000000E-03 0.  1.
        -12    1    4    4    0    0  0.58904536370E+01  0.74569937495E+01  0.15336553821E+02  0.18042008839E+02  0.00000000000E+00 0.  1.
</event>
<event>
 8    1  0.1253703E-006  0.9118800E+02  0.7816164E-02  0.1184000E+00
        -11   -1    0    0    0    0  0.00000000000E+00  0.00000000000E+00  0.45593999997E+02  0.45594000000E+02  0.51100000000E-03 0.  1.
         11   -1    0    0    0    0 -0.00000000000E+00 -0.00000000000E+00 -0.45593999997E+02  0.45594000000E+02  0.51100000000E-03 0. -1.
         23    2    1    2    0    0  0.00000000000E+00  0.00000000000E+00  0.00000000000E+00  0.91188000000E+02  0.91188000000E+02 0.  0.
    9900012    2    3    3    0    0  0.28209602678E+02 -0.21687716350E+02  0.94679283900E+01  0.54367076713E+02  0.39999982982E+02 0.  0.
         12    1    3    3    0    0 -0.28209602678E+02  0.21687716350E+02 -0.94679283900E+01  0.36820923287E+02  0.00000000000E+00 0. -1.
         11    1    4    4    0    0 -0.42565675213E+01 -0.92287986311E+01 -0.28344191387E+01  0.10550972626E+02  0.51100000000E-03 0. -1.
        -11    1    4    4    0    0  0.27438636241E+01 -0.11873581686E+02  0.52114465684E+01  0.13254052408E+02  0.51100000000E-03 0.  1.
        -12    1    4    4    0    0  0.29722306575E+02 -0.58533603349E+00  0.70909009603E+01  0.30562051679E+02  0.00000000000E+00 0.  1.
</event>
<event>
 8    1  0.1253703E-006  0.9118800E+02  0.7816164E-02  0.1184000E+00
        -11   -1    0    0    0    0  0.00000000000E+00  0.00000000000E+00  0.45593999997E+02  0.45594000000E+02  0.51100000000E-03 0. -1.
         11   -1    0    0    0    0 -0.00000000000E+00 -0.00000000000E+00 -0.45593999997E+02  0.45594000000E+02  0.51100000000E-03 0.  1.
         23    2    1    2    0    0 -0.35527136788E-14  0.44408920985E-15  0.00000000000E+00  0.91188000000E+02  0.91188000000E+02 0.  0.
    9900012    2    3    3    0    0  0.30250769664E+02 -0.17163219926E+01  0.20921892057E+02  0.54367076686E+02  0.39999982921E+02 0.  0.
        -12    1    3    3    0    0 -0.30250769664E+02  0.17163219926E+01 -0.20921892057E+02  0.36820923314E+02  0.00000000000E+00 0.  1.
         11    1    4    4    0    0  0.79571782150E+01 -0.79127416870E+01  0.13158034500E+02  0.17293410257E+02  0.51100000000E-03 0. -1.
        -11    1    4    4    0    0 -0.54529835135E+01 -0.23636161495E+01 -0.22552923271E+01  0.63567329850E+01  0.51100000000E-03 0.  1.
        -12    1    4    4    0    0  0.27746574963E+02  0.85600358439E+01  0.10019149884E+02  0.30716933444E+02  0.00000000000E+00 0.  1.
</event>
<event>
 8    1  0.1253703E-006  0.9118800E+02  0.7816164E-02  0.1184000E+00
        -11   -1    0    0    0    0  0.00000000000E+00  0.00000000000E+00  0.45593999997E+02  0.45594000000E+02  0.51100000000E-03 0.  1.
         11   -1    0    0    0    0 -0.00000000000E+00 -0.00000000000E+00 -0.45593999997E+02  0.45594000000E+02  0.51100000000E-03 0. -1.
         23    2    1    2    0    0  0.00000000000E+00 -0.26645352591E-14  0.00000000000E+00  0.91188000000E+02  0.91188000000E+02 0.  0.
    9900012    2    3    3    0    0 -0.30212319865E+02  0.22220691816E+01  0.20929842251E+02  0.54367079863E+02  0.39999990164E+02 0.  0.
         12    1    3    3    0    0  0.30212319865E+02 -0.22220691816E+01 -0.20929842251E+02  0.36820920137E+02  0.00000000000E+00 0. -1.
         11    1    4    4    0    0 -0.75576363217E+01 -0.13639646286E+02  0.79418485276E+01  0.17499450731E+02  0.51100000000E-03 0.  1.
        -11    1    4    4    0    0 -0.19674678781E+02  0.14730850818E+01  0.86836757883E+01  0.21556186820E+02  0.51100000000E-03 0. -1.
         12    1    4    4    0    0 -0.29800047626E+01  0.14388630386E+02  0.43043179355E+01  0.15311442312E+02  0.00000000000E+00 0. -1.
</event>
<event>
 8    1  0.1253703E-006  0.9118800E+02  0.7816164E-02  0.1184000E+00
        -11   -1    0    0    0    0  0.00000000000E+00  0.00000000000E+00  0.45593999997E+02  0.45594000000E+02  0.51100000000E-03 0.  1.
         11   -1    0    0    0    0 -0.00000000000E+00 -0.00000000000E+00 -0.45593999997E+02  0.45594000000E+02  0.51100000000E-03 0. -1.
         23    2    1    2    0    0  0.00000000000E+00 -0.35527136788E-14  0.00000000000E+00  0.91188000000E+02  0.91188000000E+02 0.  0.
    9900012    2    3    3    0    0 -0.25443852936E+02  0.21973898835E+02  0.15017815660E+02  0.54367127259E+02  0.40000098211E+02 0.  0.
         12    1    3    3    0    0  0.25443852936E+02 -0.21973898835E+02 -0.15017815660E+02  0.36820872741E+02  0.00000000000E+00 0. -1.
         11    1    4    4    0    0 -0.15710148841E+02  0.42790752898E+01  0.22109201136E+02  0.27457895715E+02  0.51100000000E-03 0. -1.
        -11    1    4    4    0    0 -0.67550845586E+01  0.15725492951E+02  0.19140778870E+01  0.17221672113E+02  0.51100000000E-03 0.  1.
         12    1    4    4    0    0 -0.29786195367E+01  0.19693305942E+01 -0.90054633635E+01  0.96875594308E+01  0.00000000000E+00 0. -1.
</event>
<event>
 8    1  0.1253703E-006  0.9118800E+02  0.7816164E-02  0.1184000E+00
        -11   -1    0    0    0    0  0.00000000000E+00  0.00000000000E+00  0.45593999997E+02  0.45594000000E+02  0.51100000000E-03 0.  1.
         11   -1    0    0    0    0 -0.00000000000E+00 -0.00000000000E+00 -0.45593999997E+02  0.45594000000E+02  0.51100000000E-03 0. -1.
         23    2    1    2    0    0 -0.13322676296E-14  0.00000000000E+00  0.00000000000E+00  0.91188000000E+02  0.91188000000E+02 0.  0.
    9900012    2    3    3    0    0  0.32147197037E+01  0.10034750189E+02 -0.35281002707E+02  0.54367084936E+02  0.40000001728E+02 0.  0.
        -12    1    3    3    0    0 -0.32147197037E+01 -0.10034750189E+02  0.35281002707E+02  0.36820915064E+02  0.00000000000E+00 0.  1.
         11    1    4    4    0    0  0.60721490547E+01 -0.44298790681E+01 -0.17448007703E+02  0.18998099793E+02  0.51100000000E-03 0. -1.
        -11    1    4    4    0    0  0.11557941571E+02  0.30649671572E+01 -0.90725126689E+01  0.15009680990E+02  0.51100000000E-03 0.  1.
        -12    1    4    4    0    0 -0.14415370922E+02  0.11399662100E+02 -0.87604823359E+01  0.20359304152E+02  0.00000000000E+00 0.  1.
</event>
<event>
 8    1  0.1253703E-006  0.9118800E+02  0.7816164E-02  0.1184000E+00
        -11   -1    0    0    0    0  0.00000000000E+00  0.00000000000E+00  0.45593999997E+02  0.45594000000E+02  0.51100000000E-03 0.  1.
         11   -1    0    0    0    0 -0.00000000000E+00 -0.00000000000E+00 -0.45593999997E+02  0.45594000000E+02  0.51100000000E-03 0. -1.
         23    2    1    2    0    0  0.17763568394E-14  0.00000000000E+00 -0.11102230246E-15  0.91188000000E+02  0.91188000000E+02 0.  0.
    9900012    2    3    3    0    0  0.15704766112E+02  0.33299202314E+02 -0.55091914383E+00  0.54367081145E+02  0.39999993087E+02 0.  0.
        -12    1    3    3    0    0 -0.15704766112E+02 -0.33299202314E+02  0.55091914383E+00  0.36820918855E+02  0.00000000000E+00 0.  1.
         11    1    4    4    0    0  0.38146262408E+01  0.76715707074E+01  0.76097917106E+01  0.11459201570E+02  0.51100000000E-03 0. -1.
        -11    1    4    4    0    0 -0.16476200537E+01  0.50269664711E+01  0.10655529046E+02  0.11896442462E+02  0.51100000000E-03 0.  1.
         12    1    4    4    0    0  0.13537759925E+02  0.20600665136E+02 -0.18816239901E+02  0.31011437113E+02  0.00000000000E+00 0. -1.
</event>
<event>
 8    1  0.1253703E-006  0.9118800E+02  0.7816164E-02  0.1184000E+00
        -11   -1    0    0    0    0  0.00000000000E+00  0.00000000000E+00  0.45593999997E+02  0.45594000000E+02  0.51100000000E-03 0.  1.
         11   -1    0    0    0    0 -0.00000000000E+00 -0.00000000000E+00 -0.45593999997E+02  0.45594000000E+02  0.51100000000E-03 0. -1.
         23    2    1    2    0    0 -0.35527136788E-14  0.00000000000E+00  0.35527136788E-14  0.91188000000E+02  0.91188000000E+02 0.  0.
    9900012    2    3    3    0    0 -0.25156717699E+02  0.16013933235E+02  0.21597996512E+02  0.54367082624E+02  0.39999996458E+02 0.  0.
         12    1    3    3    0    0  0.25156717699E+02 -0.16013933235E+02 -0.21597996512E+02  0.36820917376E+02  0.00000000000E+00 0. -1.
         11    1    4    4    0    0 -0.46265586069E+01  0.17043324977E+02  0.26764331186E+01  0.17861782255E+02  0.51100000000E-03 0. -1.
        -11    1    4    4    0    0 -0.18879603548E+02 -0.89733620062E+01  0.19205327758E+02  0.28386709397E+02  0.51100000000E-03 0.  1.
        -12    1    4    4    0    0 -0.16505555443E+01  0.79439702640E+01 -0.28376436407E+00  0.81185909722E+01  0.00000000000E+00 0.  1.
</event>
<event>
 8    1  0.1253703E-006  0.9118800E+02  0.7816164E-02  0.1184000E+00
        -11   -1    0    0    0    0  0.00000000000E+00  0.00000000000E+00  0.45593999997E+02  0.45594000000E+02  0.51100000000E-03 0.  1.
         11   -1    0    0    0    0 -0.00000000000E+00 -0.00000000000E+00 -0.45593999997E+02  0.45594000000E+02  0.51100000000E-03 0. -1.
         23    2    1    2    0    0 -0.66613381478E-15 -0.88817841970E-15  0.00000000000E+00  0.91188000000E+02  0.91188000000E+02 0.  0.
    9900012    2    3    3    0    0 -0.15174269162E+01 -0.66377784447E+01 -0.36185861861E+02  0.54367091731E+02  0.40000017219E+02 0.  0.
        -12    1    3    3    0    0  0.15174269162E+01  0.66377784447E+01  0.36185861861E+02  0.36820908269E+02  0.00000000000E+00 0.  1.
         11    1    4    4    0    0 -0.27684546392E+01 -0.64149695562E+01 -0.71906369391E+01  0.10026037869E+02  0.51100000000E-03 0. -1.
        -11    1    4    4    0    0 -0.71424173765E+01 -0.14613383674E+02 -0.10080870654E+02  0.19136067041E+02  0.51100000000E-03 0.  1.
         12    1    4    4    0    0  0.83934450995E+01  0.14390574786E+02 -0.18914354268E+02  0.25204986821E+02  0.00000000000E+00 0. -1.
</event>
<event>
 8    1  0.1253703E-006  0.9118800E+02  0.7816164E-02  0.1184000E+00
        -11   -1    0    0    0    0  0.00000000000E+00  0.00000000000E+00  0.45593999997E+02  0.45594000000E+02  0.51100000000E-03 0. -1.
         11   -1    0    0    0    0 -0.00000000000E+00 -0.00000000000E+00 -0.45593999997E+02  0.45594000000E+02  0.51100000000E-03 0.  1.
         23    2    1    2    0    0  0.00000000000E+00  0.00000000000E+00 -0.44408920985E-15  0.91188000000E+02  0.91188000000E+02 0.  0.
    9900012    2    3    3    0    0 -0.16099473045E+02  0.32979323285E+02  0.29918137918E+01  0.54367085475E+02  0.40000002957E+02 0.  0.
        -12    1    3    3    0    0  0.16099473045E+02 -0.32979323285E+02 -0.29918137918E+01  0.36820914525E+02  0.00000000000E+00 0.  1.
         11    1    4    4    0    0 -0.19176178501E+02  0.72284975108E+01  0.16069538696E+01  0.20556247205E+02  0.51100000000E-03 0. -1.
        -11    1    4    4    0    0  0.93919631882E+01  0.11498773621E+02  0.80134797472E+01  0.16871473713E+02  0.51100000000E-03 0.  1.
         12    1    4    4    0    0 -0.63152577320E+01  0.14252052154E+02 -0.66286198249E+01  0.16939364557E+02  0.00000000000E+00 0. -1.
</event>
<event>
 8    1  0.1253703E-006  0.9118800E+02  0.7816164E-02  0.1184000E+00
        -11   -1    0    0    0    0  0.00000000000E+00  0.00000000000E+00  0.45593999997E+02  0.45594000000E+02  0.51100000000E-03 0. -1.
         11   -1    0    0    0    0 -0.00000000000E+00 -0.00000000000E+00 -0.45593999997E+02  0.45594000000E+02  0.51100000000E-03 0.  1.
         23    2    1    2    0    0  0.00000000000E+00  0.13322676296E-14  0.00000000000E+00  0.91188000000E+02  0.91188000000E+02 0.  0.
    9900012    2    3    3    0    0 -0.33947616128E+02 -0.38456099567E+01 -0.13731380600E+02  0.54367079725E+02  0.39999989849E+02 0.  0.
         12    1    3    3    0    0  0.33947616128E+02  0.38456099567E+01  0.13731380600E+02  0.36820920275E+02  0.00000000000E+00 0. -1.
         11    1    4    4    0    0 -0.17027287778E+02  0.12784054824E+02 -0.14480315208E+02  0.25749565348E+02  0.51100000000E-03 0. -1.
        -11    1    4    4    0    0 -0.15763949947E+02 -0.51093015594E+01  0.29502732863E+01  0.16831850554E+02  0.51100000000E-03 0.  1.
         12    1    4    4    0    0 -0.11563784037E+01 -0.11520363222E+02 -0.22013386787E+01  0.11785663823E+02  0.00000000000E+00 0. -1.
</event>
<event>
 8    1  0.1253703E-006  0.9118800E+02  0.7816164E-02  0.1184000E+00
        -11   -1    0    0    0    0  0.00000000000E+00  0.00000000000E+00  0.45593999997E+02  0.45594000000E+02  0.51100000000E-03 0. -1.
         11   -1    0    0    0    0 -0.00000000000E+00 -0.00000000000E+00 -0.45593999997E+02  0.45594000000E+02  0.51100000000E-03 0.  1.
         23    2    1    2    0    0  0.00000000000E+00 -0.35527136788E-14  0.00000000000E+00  0.91188000000E+02  0.91188000000E+02 0.  0.
    9900012    2    3    3    0    0 -0.25282386350E+02 -0.26459905209E+02  0.40563688347E+01  0.54367085137E+02  0.40000002187E+02 0.  0.
         12    1    3    3    0    0  0.25282386350E+02  0.26459905209E+02 -0.40563688347E+01  0.36820914863E+02  0.00000000000E+00 0. -1.
         11    1    4    4    0    0 -0.36988010764E+01  0.56892809974E+01 -0.67373433111E+01  0.95624705397E+01  0.51100000000E-03 0. -1.
        -11    1    4    4    0    0 -0.67911414451E+01 -0.32177924378E+01  0.97290956459E+01  0.12293457311E+02  0.51100000000E-03 0.  1.
        -12    1    4    4    0    0 -0.14792443828E+02 -0.28931393769E+02  0.10646164999E+01  0.32511157287E+02  0.00000000000E+00 0.  1.
</event>
<event>
 8    1  0.1253703E-006  0.9118800E+02  0.7816164E-02  0.1184000E+00
        -11   -1    0    0    0    0  0.00000000000E+00  0.00000000000E+00  0.45593999997E+02  0.45594000000E+02  0.51100000000E-03 0.  1.
         11   -1    0    0    0    0 -0.00000000000E+00 -0.00000000000E+00 -0.45593999997E+02  0.45594000000E+02  0.51100000000E-03 0. -1.
         23    2    1    2    0    0 -0.71054273576E-14  0.17763568394E-14  0.00000000000E+00  0.91188000000E+02  0.91188000000E+02 0.  0.
    9900012    2    3    3    0    0  0.33137785260E+02 -0.13253584738E+02 -0.90562648118E+01  0.54366997126E+02  0.39999801547E+02 0.  0.
        -12    1    3    3    0    0 -0.33137785260E+02  0.13253584738E+02  0.90562648118E+01  0.36821002874E+02  0.00000000000E+00 0.  1.
         11    1    4    4    0    0  0.84613921163E+01 -0.12217318246E+02  0.29809380536E+01  0.15157308917E+02  0.51100000000E-03 0. -1.
        -11    1    4    4    0    0  0.82132275036E+01 -0.14020228161E+02 -0.38341685358E+01  0.16695051732E+02  0.51100000000E-03 0.  1.
         12    1    4    4    0    0  0.16463165640E+02  0.12983961668E+02 -0.82030343296E+01  0.22514636477E+02  0.00000000000E+00 0. -1.
</event>
<event>
 8    1  0.1253703E-006  0.9118800E+02  0.7816164E-02  0.1184000E+00
        -11   -1    0    0    0    0  0.00000000000E+00  0.00000000000E+00  0.45593999997E+02  0.45594000000E+02  0.51100000000E-03 0. -1.
         11   -1    0    0    0    0 -0.00000000000E+00 -0.00000000000E+00 -0.45593999997E+02  0.45594000000E+02  0.51100000000E-03 0.  1.
         23    2    1    2    0    0  0.00000000000E+00 -0.17763568394E-14  0.00000000000E+00  0.91188000000E+02  0.91188000000E+02 0.  0.
    9900012    2    3    3    0    0  0.35882596798E+02  0.62160431005E+01  0.54380345151E+01  0.54367188436E+02  0.40000237678E+02 0.  0.
         12    1    3    3    0    0 -0.35882596798E+02 -0.62160431005E+01 -0.54380345151E+01  0.36820811564E+02  0.00000000000E+00 0. -1.
         11    1    4    4    0    0  0.16333653301E+02  0.84390212724E+01 -0.14608184868E+01  0.18442865860E+02  0.51100000000E-03 0. -1.
        -11    1    4    4    0    0  0.21525336706E+02 -0.12419254932E+02  0.43333160741E+01  0.25226090498E+02  0.51100000000E-03 0.  1.
         12    1    4    4    0    0 -0.19763932087E+01  0.10196276760E+02  0.25655369278E+01  0.10698232079E+02  0.00000000000E+00 0. -1.
</event>
<event>
 8    1  0.1253703E-006  0.9118800E+02  0.7816164E-02  0.1184000E+00
        -11   -1    0    0    0    0  0.00000000000E+00  0.00000000000E+00  0.45593999997E+02  0.45594000000E+02  0.51100000000E-03 0. -1.
         11   -1    0    0    0    0 -0.00000000000E+00 -0.00000000000E+00 -0.45593999997E+02  0.45594000000E+02  0.51100000000E-03 0.  1.
         23    2    1    2    0    0  0.00000000000E+00  0.00000000000E+00 -0.35527136788E-14  0.91188000000E+02  0.91188000000E+02 0.  0.
    9900012    2    3    3    0    0 -0.18689419290E+02  0.18391064203E+02 -0.25850609429E+02  0.54367086869E+02  0.40000006136E+02 0.  0.
        -12    1    3    3    0    0  0.18689419290E+02 -0.18391064203E+02  0.25850609429E+02  0.36820913131E+02  0.00000000000E+00 0.  1.
         11    1    4    4    0    0 -0.20902704928E+02  0.70511221471E+01 -0.28061362038E+02  0.35694277364E+02  0.51100000000E-03 0. -1.
        -11    1    4    4    0    0 -0.51733231624E+01  0.48238901365E+01  0.47258302229E+01  0.85068595938E+01  0.51100000000E-03 0.  1.
        -12    1    4    4    0    0  0.73866088006E+01  0.65160519198E+01 -0.25150776135E+01  0.10165949911E+02  0.00000000000E+00 0.  1.
</event>
<event>
 8    1  0.1253703E-006  0.9118800E+02  0.7816164E-02  0.1184000E+00
        -11   -1    0    0    0    0  0.00000000000E+00  0.00000000000E+00  0.45593999997E+02  0.45594000000E+02  0.51100000000E-03 0.  1.
         11   -1    0    0    0    0 -0.00000000000E+00 -0.00000000000E+00 -0.45593999997E+02  0.45594000000E+02  0.51100000000E-03 0. -1.
         23    2    1    2    0    0  0.00000000000E+00 -0.77715611724E-15  0.00000000000E+00  0.91188000000E+02  0.91188000000E+02 0.  0.
    9900012    2    3    3    0    0  0.11337550158E+02 -0.50251927843E+00  0.35028354731E+02  0.54367106415E+02  0.40000050694E+02 0.  0.
         12    1    3    3    0    0 -0.11337550158E+02  0.50251927843E+00 -0.35028354731E+02  0.36820893585E+02  0.00000000000E+00 0. -1.
         11    1    4    4    0    0  0.12647831548E+02  0.10832521080E+01 -0.25431459442E+00  0.12696682802E+02  0.51100000000E-03 0. -1.
        -11    1    4    4    0    0  0.71912987315E+01  0.69704939436E+01  0.14109361534E+02  0.17302504051E+02  0.51100000000E-03 0.  1.
        -12    1    4    4    0    0 -0.85015801217E+01 -0.85562653301E+01  0.21173307792E+02  0.24367919562E+02  0.00000000000E+00 0.  1.
</event>
<event>
 8    1  0.1253703E-006  0.9118800E+02  0.7816164E-02  0.1184000E+00
        -11   -1    0    0    0    0  0.00000000000E+00  0.00000000000E+00  0.45593999997E+02  0.45594000000E+02  0.51100000000E-03 0.  1.
         11   -1    0    0    0    0 -0.00000000000E+00 -0.00000000000E+00 -0.45593999997E+02  0.45594000000E+02  0.51100000000E-03 0. -1.
         23    2    1    2    0    0 -0.71054273576E-14 -0.44408920985E-15  0.00000000000E+00  0.91188000000E+02  0.91188000000E+02 0.  0.
    9900012    2    3    3    0    0 -0.34011675673E+02 -0.39230639797E+01  0.13549849226E+02  0.54367042284E+02  0.39999904495E+02 0.  0.
         12    1    3    3    0    0  0.34011675673E+02  0.39230639797E+01 -0.13549849226E+02  0.36820957716E+02  0.00000000000E+00 0. -1.
         11    1    4    4    0    0 -0.11603150805E+01 -0.12759466302E-01 -0.16844932475E+01  0.20454856763E+01  0.51100000000E-03 0. -1.
        -11    1    4    4    0    0 -0.23510782556E+02  0.23853193371E+01 -0.92445592774E+01  0.25375352633E+02  0.51100000000E-03 0.  1.
         12    1    4    4    0    0 -0.93405780358E+01 -0.62956238505E+01  0.24478901751E+02  0.26946203975E+02  0.00000000000E+00 0. -1.
</event>
<event>
 8    1  0.1253703E-006  0.9118800E+02  0.7816164E-02  0.1184000E+00
        -11   -1    0    0    0    0  0.00000000000E+00  0.00000000000E+00  0.45593999997E+02  0.45594000000E+02  0.51100000000E-03 0.  1.
         11   -1    0    0    0    0 -0.00000000000E+00 -0.00000000000E+00 -0.45593999997E+02  0.45594000000E+02  0.51100000000E-03 0. -1.
         23    2    1    2    0    0  0.00000000000E+00  0.71054273576E-14 -0.44408920985E-15  0.91188000000E+02  0.91188000000E+02 0.  0.
    9900012    2    3    3    0    0  0.10268357640E+02 -0.35345667107E+02 -0.10120274314E+01  0.54367088124E+02  0.40000008995E+02 0.  0.
        -12    1    3    3    0    0 -0.10268357640E+02  0.35345667107E+02  0.10120274314E+01  0.36820911876E+02  0.00000000000E+00 0.  1.
         11    1    4    4    0    0  0.11723366409E+02 -0.31392298704E+02 -0.87755280275E+01  0.34639913832E+02  0.51100000000E-03 0. -1.
        -11    1    4    4    0    0 -0.64462651887E+00 -0.11011265736E+02  0.46248823885E+01  0.11960478829E+02  0.51100000000E-03 0.  1.
        -12    1    4    4    0    0 -0.81038224975E+00  0.70578973326E+01  0.31386182075E+01  0.77666954621E+01  0.00000000000E+00 0.  1.
</event>
<event>
 8    1  0.1253703E-006  0.9118800E+02  0.7816164E-02  0.1184000E+00
        -11   -1    0    0    0    0  0.00000000000E+00  0.00000000000E+00  0.45593999997E+02  0.45594000000E+02  0.51100000000E-03 0. -1.
         11   -1    0    0    0    0 -0.00000000000E+00 -0.00000000000E+00 -0.45593999997E+02  0.45594000000E+02  0.51100000000E-03 0.  1.
         23    2    1    2    0    0  0.00000000000E+00  0.35527136788E-14  0.53290705182E-14  0.91188000000E+02  0.91188000000E+02 0.  0.
    9900012    2    3    3    0    0 -0.27095344932E+02  0.23585064542E+02 -0.80849680822E+01  0.54367086169E+02  0.40000004540E+02 0.  0.
         12    1    3    3    0    0  0.27095344932E+02 -0.23585064542E+02  0.80849680822E+01  0.36820913831E+02  0.00000000000E+00 0. -1.
         11    1    4    4    0    0 -0.46384478239E+01  0.19542742765E+01  0.83474139857E+01  0.97474974570E+01  0.51100000000E-03 0. -1.
        -11    1    4    4    0    0 -0.21405498670E+01  0.13069565876E+02  0.47269655546E+01  0.14061995219E+02  0.51100000000E-03 0.  1.
         12    1    4    4    0    0 -0.20316347241E+02  0.85612243894E+01 -0.21159347623E+02  0.30557593493E+02  0.00000000000E+00 0. -1.
</event>
<event>
 8    1  0.1253703E-006  0.9118800E+02  0.7816164E-02  0.1184000E+00
        -11   -1    0    0    0    0  0.00000000000E+00  0.00000000000E+00  0.45593999997E+02  0.45594000000E+02  0.51100000000E-03 0.  1.
         11   -1    0    0    0    0 -0.00000000000E+00 -0.00000000000E+00 -0.45593999997E+02  0.45594000000E+02  0.51100000000E-03 0. -1.
         23    2    1    2    0    0  0.00000000000E+00  0.44408920985E-15  0.22204460493E-15  0.91188000000E+02  0.91188000000E+02 0.  0.
    9900012    2    3    3    0    0  0.36781137084E+02  0.13550457579E+01 -0.10443791800E+01  0.54367096670E+02  0.40000028478E+02 0.  0.
         12    1    3    3    0    0 -0.36781137084E+02 -0.13550457579E+01  0.10443791800E+01  0.36820903330E+02  0.00000000000E+00 0. -1.
         11    1    4    4    0    0 -0.60032654382E+01  0.52174420050E+01  0.24723559905E+00  0.79575136003E+01  0.51100000000E-03 0. -1.
        -11    1    4    4    0    0  0.31240680348E+02 -0.27392901507E+01 -0.88261356665E+01  0.32578896393E+02  0.51100000000E-03 0.  1.
        -12    1    4    4    0    0  0.11543722174E+02 -0.11231060965E+01  0.75345208875E+01  0.13830686676E+02  0.00000000000E+00 0.  1.
</event>
<event>
 8    1  0.1253703E-006  0.9118800E+02  0.7816164E-02  0.1184000E+00
        -11   -1    0    0    0    0  0.00000000000E+00  0.00000000000E+00  0.45593999997E+02  0.45594000000E+02  0.51100000000E-03 0.  1.
         11   -1    0    0    0    0 -0.00000000000E+00 -0.00000000000E+00 -0.45593999997E+02  0.45594000000E+02  0.51100000000E-03 0. -1.
         23    2    1    2    0    0 -0.71054273576E-14  0.00000000000E+00  0.00000000000E+00  0.91188000000E+02  0.91188000000E+02 0.  0.
    9900012    2    3    3    0    0 -0.33870596947E+02  0.43237092390E+01 -0.13779290266E+02  0.54367073350E+02  0.39999975317E+02 0.  0.
        -12    1    3    3    0    0  0.33870596947E+02 -0.43237092390E+01  0.13779290266E+02  0.36820926650E+02  0.00000000000E+00 0.  1.
         11    1    4    4    0    0 -0.28404333897E+02  0.38449854931E+00 -0.14507628534E+02  0.31897105028E+02  0.51100000000E-03 0. -1.
        -11    1    4    4    0    0  0.39479525457E+01  0.14530121872E+01 -0.82274901110E+01  0.92406259261E+01  0.51100000000E-03 0.  1.
        -12    1    4    4    0    0 -0.94142155960E+01  0.24861985025E+01  0.89558283788E+01  0.13229342396E+02  0.00000000000E+00 0.  1.
</event>
<event>
 8    1  0.1253703E-006  0.9118800E+02  0.7816164E-02  0.1184000E+00
        -11   -1    0    0    0    0  0.00000000000E+00  0.00000000000E+00  0.45593999997E+02  0.45594000000E+02  0.51100000000E-03 0.  1.
         11   -1    0    0    0    0 -0.00000000000E+00 -0.00000000000E+00 -0.45593999997E+02  0.45594000000E+02  0.51100000000E-03 0. -1.
         23    2    1    2    0    0  0.88817841970E-15  0.00000000000E+00 -0.35527136788E-14  0.91188000000E+02  0.91188000000E+02 0.  0.
    9900012    2    3    3    0    0 -0.46682169498E+01  0.30950581831E+02  0.19391972173E+02  0.54367090859E+02  0.40000015232E+02 0.  0.
         12    1    3    3    0    0  0.46682169498E+01 -0.30950581831E+02 -0.19391972173E+02  0.36820909141E+02  0.00000000000E+00 0. -1.
         11    1    4    4    0    0 -0.88945268508E+00 -0.22594388085E+01  0.79346400958E+01  0.82978734336E+01  0.51100000000E-03 0. -1.
        -11    1    4    4    0    0 -0.37924729539E+01  0.46268870367E+00  0.12736214126E+02  0.13296920037E+02  0.51100000000E-03 0.  1.
         12    1    4    4    0    0  0.13708689127E-01  0.32747331936E+02 -0.12788820483E+01  0.32772297389E+02  0.00000000000E+00 0. -1.
</event>
<event>
 8    1  0.1253703E-006  0.9118800E+02  0.7816164E-02  0.1184000E+00
        -11   -1    0    0    0    0  0.00000000000E+00  0.00000000000E+00  0.45593999997E+02  0.45594000000E+02  0.51100000000E-03 0. -1.
         11   -1    0    0    0    0 -0.00000000000E+00 -0.00000000000E+00 -0.45593999997E+02  0.45594000000E+02  0.51100000000E-03 0.  1.
         23    2    1    2    0    0  0.35527136788E-14 -0.35527136788E-14  0.00000000000E+00  0.91188000000E+02  0.91188000000E+02 0.  0.
    9900012    2    3    3    0    0 -0.17823196212E+02  0.13892491397E+02  0.29070809565E+02  0.54367087339E+02  0.40000007207E+02 0.  0.
        -12    1    3    3    0    0  0.17823196212E+02 -0.13892491397E+02 -0.29070809565E+02  0.36820912661E+02  0.00000000000E+00 0.  1.
         11    1    4    4    0    0  0.53687358844E+01  0.30851465541E+01 -0.35233521610E+01  0.71242869796E+01  0.51100000000E-03 0. -1.
        -11    1    4    4    0    0 -0.96817095824E+01  0.95309269632E+01  0.19457389385E+01  0.13724429660E+02  0.51100000000E-03 0.  1.
         12    1    4    4    0    0 -0.13510222514E+02  0.12764178798E+01  0.30648422788E+02  0.33518370699E+02  0.00000000000E+00 0. -1.
</event>
<event>
 8    1  0.1253703E-006  0.9118800E+02  0.7816164E-02  0.1184000E+00
        -11   -1    0    0    0    0  0.00000000000E+00  0.00000000000E+00  0.45593999997E+02  0.45594000000E+02  0.51100000000E-03 0. -1.
         11   -1    0    0    0    0 -0.00000000000E+00 -0.00000000000E+00 -0.45593999997E+02  0.45594000000E+02  0.51100000000E-03 0.  1.
         23    2    1    2    0    0 -0.71054273576E-14  0.00000000000E+00  0.11102230246E-14  0.91188000000E+02  0.91188000000E+02 0.  0.
    9900012    2    3    3    0    0 -0.32156161511E+02  0.17884676087E+02  0.13783471571E+01  0.54367079279E+02  0.39999988833E+02 0.  0.
         12    1    3    3    0    0  0.32156161511E+02 -0.17884676087E+02 -0.13783471571E+01  0.36820920721E+02  0.00000000000E+00 0. -1.
         11    1    4    4    0    0 -0.13054209496E+02  0.90524232033E+00 -0.82262163080E+01  0.15456470627E+02  0.51100000000E-03 0. -1.
        -11    1    4    4    0    0  0.17925093241E+01  0.27166083306E+01 -0.76329497371E+01  0.82978896383E+01  0.51100000000E-03 0.  1.
        -12    1    4    4    0    0 -0.20894461339E+02  0.14262825436E+02  0.17237513202E+02  0.30612719014E+02  0.00000000000E+00 0.  1.
</event>
<event>
 8    1  0.1253703E-006  0.9118800E+02  0.7816164E-02  0.1184000E+00
        -11   -1    0    0    0    0  0.00000000000E+00  0.00000000000E+00  0.45593999997E+02  0.45594000000E+02  0.51100000000E-03 0. -1.
         11   -1    0    0    0    0 -0.00000000000E+00 -0.00000000000E+00 -0.45593999997E+02  0.45594000000E+02  0.51100000000E-03 0.  1.
         23    2    1    2    0    0 -0.71054273576E-14 -0.88817841970E-15 -0.71054273576E-14  0.91188000000E+02  0.91188000000E+02 0.  0.
    9900012    2    3    3    0    0  0.24488713373E+02  0.41488656639E+01 -0.27182157947E+02  0.54367083667E+02  0.39999998836E+02 0.  0.
         12    1    3    3    0    0 -0.24488713373E+02 -0.41488656639E+01  0.27182157947E+02  0.36820916333E+02  0.00000000000E+00 0. -1.
         11    1    4    4    0    0  0.18770872013E+01  0.26311770106E+01 -0.18807144529E+02  0.19082851842E+02  0.51100000000E-03 0. -1.
        -11    1    4    4    0    0  0.54208011375E+01 -0.64400003767E+01  0.69516316191E+01  0.10917136633E+02  0.51100000000E-03 0.  1.
        -12    1    4    4    0    0  0.17190825034E+02  0.79576890301E+01 -0.15326645037E+02  0.24367095193E+02  0.00000000000E+00 0.  1.
</event>
<event>
 8    1  0.1253703E-006  0.9118800E+02  0.7816164E-02  0.1184000E+00
        -11   -1    0    0    0    0  0.00000000000E+00  0.00000000000E+00  0.45593999997E+02  0.45594000000E+02  0.51100000000E-03 0.  1.
         11   -1    0    0    0    0 -0.00000000000E+00 -0.00000000000E+00 -0.45593999997E+02  0.45594000000E+02  0.51100000000E-03 0. -1.
         23    2    1    2    0    0  0.00000000000E+00 -0.35527136788E-14 -0.35527136788E-14  0.91188000000E+02  0.91188000000E+02 0.  0.
    9900012    2    3    3    0    0  0.10336470770E+02  0.28013725644E+02  0.21544561667E+02  0.54367087602E+02  0.40000007805E+02 0.  0.
        -12    1    3    3    0    0 -0.10336470770E+02 -0.28013725644E+02 -0.21544561667E+02  0.36820912398E+02  0.00000000000E+00 0.  1.
         11    1    4    4    0    0 -0.33388961300E+01  0.15731529813E+02 -0.54795181979E+01  0.16989831593E+02  0.51100000000E-03 0. -1.
        -11    1    4    4    0    0 -0.42011683818E+01  0.21530366363E+01  0.23653900016E+01  0.52801943762E+01  0.51100000000E-03 0.  1.
        -12    1    4    4    0    0  0.17876535281E+02  0.10129159195E+02  0.24658689863E+02  0.32097061632E+02  0.00000000000E+00 0.  1.
</event>
<event>
 8    1  0.1253703E-006  0.9118800E+02  0.7816164E-02  0.1184000E+00
        -11   -1    0    0    0    0  0.00000000000E+00  0.00000000000E+00  0.45593999997E+02  0.45594000000E+02  0.51100000000E-03 0.  1.
         11   -1    0    0    0    0 -0.00000000000E+00 -0.00000000000E+00 -0.45593999997E+02  0.45594000000E+02  0.51100000000E-03 0. -1.
         23    2    1    2    0    0 -0.35527136788E-14 -0.35527136788E-14  0.00000000000E+00  0.91188000000E+02  0.91188000000E+02 0.  0.
    9900012    2    3    3    0    0 -0.19511233634E+02 -0.23319298365E+02 -0.20767815314E+02  0.54367081121E+02  0.39999993032E+02 0.  0.
        -12    1    3    3    0    0  0.19511233634E+02  0.23319298365E+02  0.20767815314E+02  0.36820918879E+02  0.00000000000E+00 0.  1.
         11    1    4    4    0    0 -0.10001077602E+02 -0.39420593698E+01 -0.20930176084E+02  0.23529421082E+02  0.51100000000E-03 0. -1.
        -11    1    4    4    0    0 -0.10849867580E+02 -0.23203130785E+02 -0.28706634606E+01  0.25774902787E+02  0.51100000000E-03 0.  1.
        -12    1    4    4    0    0  0.13397115485E+01  0.38258917895E+01  0.30330242303E+01  0.50627572527E+01  0.00000000000E+00 0.  1.
</event>
<event>
 8    1  0.1253703E-006  0.9118800E+02  0.7816164E-02  0.1184000E+00
        -11   -1    0    0    0    0  0.00000000000E+00  0.00000000000E+00  0.45593999997E+02  0.45594000000E+02  0.51100000000E-03 0.  1.
         11   -1    0    0    0    0 -0.00000000000E+00 -0.00000000000E+00 -0.45593999997E+02  0.45594000000E+02  0.51100000000E-03 0. -1.
         23    2    1    2    0    0  0.71054273576E-14  0.17763568394E-14  0.00000000000E+00  0.91188000000E+02  0.91188000000E+02 0.  0.
    9900012    2    3    3    0    0 -0.25416486113E+02 -0.14550834560E+02  0.22317126441E+02  0.54367099885E+02  0.40000035808E+02 0.  0.
         12    1    3    3    0    0  0.25416486113E+02  0.14550834560E+02 -0.22317126441E+02  0.36820900115E+02  0.00000000000E+00 0. -1.
         11    1    4    4    0    0  0.31060992197E+01  0.63621657191E+01  0.56756004062E+01  0.90739983046E+01  0.51100000000E-03 0. -1.
        -11    1    4    4    0    0 -0.26001118944E+02 -0.63353208347E+01  0.14210011457E+02  0.30300476931E+02  0.51100000000E-03 0.  1.
         12    1    4    4    0    0 -0.25214663885E+01 -0.14577679444E+02  0.24315145779E+01  0.14992624649E+02  0.00000000000E+00 0. -1.
</event>
<event>
 8    1  0.1253703E-006  0.9118800E+02  0.7816164E-02  0.1184000E+00
        -11   -1    0    0    0    0  0.00000000000E+00  0.00000000000E+00  0.45593999997E+02  0.45594000000E+02  0.51100000000E-03 0. -1.
         11   -1    0    0    0    0 -0.00000000000E+00 -0.00000000000E+00 -0.45593999997E+02  0.45594000000E+02  0.51100000000E-03 0.  1.
         23    2    1    2    0    0  0.00000000000E+00  0.00000000000E+00 -0.26645352591E-14  0.91188000000E+02  0.91188000000E+02 0.  0.
    9900012    2    3    3    0    0 -0.36151945400E+02  0.19961286021E+01 -0.66957635664E+01  0.54367069331E+02  0.39999966153E+02 0.  0.
        -12    1    3    3    0    0  0.36151945400E+02 -0.19961286021E+01  0.66957635664E+01  0.36820930669E+02  0.00000000000E+00 0.  1.
         11    1    4    4    0    0 -0.20998725898E+02 -0.43012898856E+01  0.12396739406E+02  0.24761396006E+02  0.51100000000E-03 0. -1.
        -11    1    4    4    0    0 -0.56678301824E+01 -0.10652543512E+01  0.13265943927E+01  0.59176784936E+01  0.51100000000E-03 0.  1.
        -12    1    4    4    0    0 -0.94853893202E+01  0.73626728389E+01 -0.20419097365E+02  0.23687994831E+02  0.00000000000E+00 0.  1.
</event>
<event>
 8    1  0.1253703E-006  0.9118800E+02  0.7816164E-02  0.1184000E+00
        -11   -1    0    0    0    0  0.00000000000E+00  0.00000000000E+00  0.45593999997E+02  0.45594000000E+02  0.51100000000E-03 0.  1.
         11   -1    0    0    0    0 -0.00000000000E+00 -0.00000000000E+00 -0.45593999997E+02  0.45594000000E+02  0.51100000000E-03 0. -1.
         23    2    1    2    0    0  0.35527136788E-14  0.35527136788E-14  0.88123952580E-15  0.91188000000E+02  0.91188000000E+02 0.  0.
    9900012    2    3    3    0    0 -0.29232575658E+02  0.22388259104E+02  0.49631614848E-01  0.54367080829E+02  0.39999992366E+02 0.  0.
        -12    1    3    3    0    0  0.29232575658E+02 -0.22388259104E+02 -0.49631614848E-01  0.36820919171E+02  0.00000000000E+00 0.  1.
         11    1    4    4    0    0 -0.16604629302E+02  0.20532594476E+02  0.82976322367E+01  0.27679448173E+02  0.51100000000E-03 0. -1.
        -11    1    4    4    0    0 -0.19498295965E+01 -0.93914748493E+01 -0.50975184119E+01  0.10862151238E+02  0.51100000000E-03 0.  1.
        -12    1    4    4    0    0 -0.10678116759E+02  0.11247139477E+02 -0.31504822100E+01  0.15825481417E+02  0.00000000000E+00 0.  1.
</event>
<event>
 8    1  0.1253703E-006  0.9118800E+02  0.7816164E-02  0.1184000E+00
        -11   -1    0    0    0    0  0.00000000000E+00  0.00000000000E+00  0.45593999997E+02  0.45594000000E+02  0.51100000000E-03 0.  1.
         11   -1    0    0    0    0 -0.00000000000E+00 -0.00000000000E+00 -0.45593999997E+02  0.45594000000E+02  0.51100000000E-03 0. -1.
         23    2    1    2    0    0 -0.35527136788E-14  0.35527136788E-14  0.00000000000E+00  0.91188000000E+02  0.91188000000E+02 0.  0.
    9900012    2    3    3    0    0  0.28311773054E+02 -0.18870922494E+02 -0.14075220347E+02  0.54367081529E+02  0.39999993962E+02 0.  0.
         12    1    3    3    0    0 -0.28311773054E+02  0.18870922494E+02  0.14075220347E+02  0.36820918471E+02  0.00000000000E+00 0. -1.
         11    1    4    4    0    0  0.18452329722E+02  0.50021834187E+01  0.31776343895E+01  0.19380600396E+02  0.51100000000E-03 0. -1.
        -11    1    4    4    0    0  0.10204965795E+02 -0.75130493270E+01 -0.12835327242E+02  0.18036985966E+02  0.51100000000E-03 0.  1.
        -12    1    4    4    0    0 -0.34552246336E+00 -0.16360056586E+02 -0.44175274951E+01  0.16949495168E+02  0.00000000000E+00 0.  1.
</event>
<event>
 8    1  0.1253703E-006  0.9118800E+02  0.7816164E-02  0.1184000E+00
        -11   -1    0    0    0    0  0.00000000000E+00  0.00000000000E+00  0.45593999997E+02  0.45594000000E+02  0.51100000000E-03 0. -1.
         11   -1    0    0    0    0 -0.00000000000E+00 -0.00000000000E+00 -0.45593999997E+02  0.45594000000E+02  0.51100000000E-03 0.  1.
         23    2    1    2    0    0  0.00000000000E+00  0.00000000000E+00  0.00000000000E+00  0.91188000000E+02  0.91188000000E+02 0.  0.
    9900012    2    3    3    0    0 -0.35508418802E+02  0.84900201317E+01  0.47802685391E+01  0.54367092692E+02  0.40000019411E+02 0.  0.
         12    1    3    3    0    0  0.35508418802E+02 -0.84900201317E+01 -0.47802685391E+01  0.36820907308E+02  0.00000000000E+00 0. -1.
         11    1    4    4    0    0 -0.25950935219E+02 -0.12014510390E+02  0.27096809728E+01  0.28725282764E+02  0.51100000000E-03 0.  1.
        -11    1    4    4    0    0 -0.74416263616E+00  0.15011772451E+02 -0.10947234288E+00  0.15030604599E+02  0.51100000000E-03 0. -1.
        -12    1    4    4    0    0 -0.88133209473E+01  0.54927580706E+01  0.21800599092E+01  0.10611205330E+02  0.00000000000E+00 0.  1.
</event>
<event>
 8    1  0.1253703E-006  0.9118800E+02  0.7816164E-02  0.1184000E+00
        -11   -1    0    0    0    0  0.00000000000E+00  0.00000000000E+00  0.45593999997E+02  0.45594000000E+02  0.51100000000E-03 0.  1.
         11   -1    0    0    0    0 -0.00000000000E+00 -0.00000000000E+00 -0.45593999997E+02  0.45594000000E+02  0.51100000000E-03 0. -1.
         23    2    1    2    0    0  0.00000000000E+00  0.00000000000E+00  0.00000000000E+00  0.91188000000E+02  0.91188000000E+02 0.  0.
    9900012    2    3    3    0    0 -0.17297068107E+02 -0.31400254628E+02  0.84032442537E+01  0.54367094663E+02  0.40000023904E+02 0.  0.
        -12    1    3    3    0    0  0.17297068107E+02  0.31400254628E+02 -0.84032442537E+01  0.36820905337E+02  0.00000000000E+00 0.  1.
         11    1    4    4    0    0 -0.88524183808E+01 -0.33536326541E+02  0.13558743855E+02  0.37240972654E+02  0.51100000000E-03 0. -1.
        -11    1    4    4    0    0  0.29383799614E+01 -0.21469509394E+01 -0.31226740143E+01  0.47952652059E+01  0.51100000000E-03 0.  1.
         12    1    4    4    0    0 -0.11383029688E+02  0.42830228520E+01 -0.20328255871E+01  0.12330856803E+02  0.00000000000E+00 0. -1.
</event>
<event>
 8    1  0.1253703E-006  0.9118800E+02  0.7816164E-02  0.1184000E+00
        -11   -1    0    0    0    0  0.00000000000E+00  0.00000000000E+00  0.45593999997E+02  0.45594000000E+02  0.51100000000E-03 0. -1.
         11   -1    0    0    0    0 -0.00000000000E+00 -0.00000000000E+00 -0.45593999997E+02  0.45594000000E+02  0.51100000000E-03 0.  1.
         23    2    1    2    0    0  0.00000000000E+00  0.00000000000E+00  0.00000000000E+00  0.91188000000E+02  0.91188000000E+02 0.  0.
    9900012    2    3    3    0    0 -0.19929628416E+02 -0.23335031122E+02  0.20348621678E+02  0.54367079717E+02  0.39999989831E+02 0.  0.
        -12    1    3    3    0    0  0.19929628416E+02  0.23335031122E+02 -0.20348621678E+02  0.36820920283E+02  0.00000000000E+00 0.  1.
         11    1    4    4    0    0 -0.71275271707E+01 -0.14766921961E+02  0.62357263907E+01  0.17542745272E+02  0.51100000000E-03 0. -1.
        -11    1    4    4    0    0  0.99304272295E+00 -0.17266550448E+02  0.44131676515E+01  0.17849256208E+02  0.51100000000E-03 0.  1.
        -12    1    4    4    0    0 -0.13795143968E+02  0.86984412864E+01  0.96997276357E+01  0.18975078238E+02  0.00000000000E+00 0.  1.
</event>
<event>
 8    1  0.1253703E-006  0.9118800E+02  0.7816164E-02  0.1184000E+00
        -11   -1    0    0    0    0  0.00000000000E+00  0.00000000000E+00  0.45593999997E+02  0.45594000000E+02  0.51100000000E-03 0.  1.
         11   -1    0    0    0    0 -0.00000000000E+00 -0.00000000000E+00 -0.45593999997E+02  0.45594000000E+02  0.51100000000E-03 0. -1.
         23    2    1    2    0    0 -0.35527136788E-14 -0.35527136788E-14  0.17763568394E-14  0.91188000000E+02  0.91188000000E+02 0.  0.
    9900012    2    3    3    0    0  0.29425764997E+02  0.16836168208E+02 -0.14368294128E+02  0.54367080923E+02  0.39999992579E+02 0.  0.
        -12    1    3    3    0    0 -0.29425764997E+02 -0.16836168208E+02  0.14368294128E+02  0.36820919077E+02  0.00000000000E+00 0.  1.
         11    1    4    4    0    0  0.50524557347E+01  0.14815768856E+02 -0.70467707391E+01  0.17166574902E+02  0.51100000000E-03 0. -1.
        -11    1    4    4    0    0  0.24209272316E+02 -0.85074315576E+01 -0.72726978376E+01  0.26671284031E+02  0.51100000000E-03 0.  1.
        -12    1    4    4    0    0  0.16403694598E+00  0.10527830909E+02 -0.48825551143E-01  0.10529221989E+02  0.00000000000E+00 0.  1.
</event>
<event>
 8    1  0.1253703E-006  0.9118800E+02  0.7816164E-02  0.1184000E+00
        -11   -1    0    0    0    0  0.00000000000E+00  0.00000000000E+00  0.45593999997E+02  0.45594000000E+02  0.51100000000E-03 0. -1.
         11   -1    0    0    0    0 -0.00000000000E+00 -0.00000000000E+00 -0.45593999997E+02  0.45594000000E+02  0.51100000000E-03 0.  1.
         23    2    1    2    0    0  0.88817841970E-15  0.00000000000E+00 -0.44408920985E-15  0.91188000000E+02  0.91188000000E+02 0.  0.
    9900012    2    3    3    0    0  0.15356153203E+01  0.36772325843E+02  0.11067910738E+01  0.54366986315E+02  0.39999776902E+02 0.  0.
         12    1    3    3    0    0 -0.15356153203E+01 -0.36772325843E+02 -0.11067910738E+01  0.36821013685E+02  0.00000000000E+00 0. -1.
         11    1    4    4    0    0 -0.68851827292E+01  0.10046108790E+02  0.13626164458E+02  0.18275732574E+02  0.51100000000E-03 0. -1.
        -11    1    4    4    0    0  0.11689646958E+02  0.27255487380E+02 -0.13574793721E+02  0.32615708840E+02  0.51100000000E-03 0.  1.
        -12    1    4    4    0    0 -0.32688489089E+01 -0.52927032661E+00  0.10554203363E+01  0.34755449004E+01  0.00000000000E+00 0.  1.
</event>
<event>
 8    1  0.1253703E-006  0.9118800E+02  0.7816164E-02  0.1184000E+00
        -11   -1    0    0    0    0  0.00000000000E+00  0.00000000000E+00  0.45593999997E+02  0.45594000000E+02  0.51100000000E-03 0.  1.
         11   -1    0    0    0    0 -0.00000000000E+00 -0.00000000000E+00 -0.45593999997E+02  0.45594000000E+02  0.51100000000E-03 0. -1.
         23    2    1    2    0    0 -0.44408920985E-15  0.00000000000E+00  0.00000000000E+00  0.91188000000E+02  0.91188000000E+02 0.  0.
    9900012    2    3    3    0    0 -0.39551386603E+01 -0.13915602184E+02  0.33859915325E+02  0.54367068836E+02  0.39999965024E+02 0.  0.
         12    1    3    3    0    0  0.39551386603E+01  0.13915602184E+02 -0.33859915325E+02  0.36820931164E+02  0.00000000000E+00 0. -1.
         11    1    4    4    0    0  0.10250933702E+01 -0.31699061724E+01  0.12804273726E+02  0.13230591350E+02  0.51100000000E-03 0. -1.
        -11    1    4    4    0    0 -0.54212285857E+01  0.11152773719E+02  0.12541378028E+02  0.17636900071E+02  0.51100000000E-03 0.  1.
         12    1    4    4    0    0  0.44099655521E+00 -0.21898469731E+02  0.85142635720E+01  0.23499577415E+02  0.00000000000E+00 0. -1.
</event>
<event>
 8    1  0.1253703E-006  0.9118800E+02  0.7816164E-02  0.1184000E+00
        -11   -1    0    0    0    0  0.00000000000E+00  0.00000000000E+00  0.45593999997E+02  0.45594000000E+02  0.51100000000E-03 0.  1.
         11   -1    0    0    0    0 -0.00000000000E+00 -0.00000000000E+00 -0.45593999997E+02  0.45594000000E+02  0.51100000000E-03 0. -1.
         23    2    1    2    0    0 -0.17763568394E-14  0.00000000000E+00  0.00000000000E+00  0.91188000000E+02  0.91188000000E+02 0.  0.
    9900012    2    3    3    0    0  0.14542493679E+02  0.33266487130E+02 -0.61349112115E+01  0.54367076275E+02  0.39999981984E+02 0.  0.
        -12    1    3    3    0    0 -0.14542493679E+02 -0.33266487130E+02  0.61349112115E+01  0.36820923725E+02  0.00000000000E+00 0.  1.
         11    1    4    4    0    0  0.39568080940E+01  0.59497475378E+00 -0.15040040220E+02  0.15563198107E+02  0.51100000000E-03 0. -1.
        -11    1    4    4    0    0  0.94339044519E+00  0.14903154862E+02 -0.31566251017E+01  0.15262971292E+02  0.51100000000E-03 0.  1.
        -12    1    4    4    0    0  0.96422951400E+01  0.17768357515E+02  0.12061754110E+02  0.23540906876E+02  0.00000000000E+00 0.  1.
</event>
<event>
 8    1  0.1253703E-006  0.9118800E+02  0.7816164E-02  0.1184000E+00
        -11   -1    0    0    0    0  0.00000000000E+00  0.00000000000E+00  0.45593999997E+02  0.45594000000E+02  0.51100000000E-03 0.  1.
         11   -1    0    0    0    0 -0.00000000000E+00 -0.00000000000E+00 -0.45593999997E+02  0.45594000000E+02  0.51100000000E-03 0. -1.
         23    2    1    2    0    0  0.00000000000E+00 -0.35527136788E-14  0.00000000000E+00  0.91188000000E+02  0.91188000000E+02 0.  0.
    9900012    2    3    3    0    0  0.25364453816E+02  0.17611597323E+02  0.20056328177E+02  0.54367079621E+02  0.39999989612E+02 0.  0.
         12    1    3    3    0    0 -0.25364453816E+02 -0.17611597323E+02 -0.20056328177E+02  0.36820920379E+02  0.00000000000E+00 0. -1.
         11    1    4    4    0    0  0.57493033564E+01  0.26049274254E+01 -0.37720890113E+01  0.73531484240E+01  0.51100000000E-03 0. -1.
        -11    1    4    4    0    0  0.21942428781E+02 -0.12860127481E+01  0.20835396963E+02  0.30285933640E+02  0.51100000000E-03 0.  1.
         12    1    4    4    0    0 -0.23272783219E+01  0.16292682646E+02  0.29930202250E+01  0.16727997557E+02  0.00000000000E+00 0. -1.
</event>
<event>
 8    1  0.1253703E-006  0.9118800E+02  0.7816164E-02  0.1184000E+00
        -11   -1    0    0    0    0  0.00000000000E+00  0.00000000000E+00  0.45593999997E+02  0.45594000000E+02  0.51100000000E-03 0. -1.
         11   -1    0    0    0    0 -0.00000000000E+00 -0.00000000000E+00 -0.45593999997E+02  0.45594000000E+02  0.51100000000E-03 0.  1.
         23    2    1    2    0    0  0.00000000000E+00 -0.35527136788E-14 -0.35527136788E-14  0.91188000000E+02  0.91188000000E+02 0.  0.
    9900012    2    3    3    0    0 -0.10440085907E+02  0.26424808717E+02  0.23420375376E+02  0.54367083496E+02  0.39999998445E+02 0.  0.
        -12    1    3    3    0    0  0.10440085907E+02 -0.26424808717E+02 -0.23420375376E+02  0.36820916504E+02  0.00000000000E+00 0.  1.
         11    1    4    4    0    0  0.38610937753E+01  0.98538576572E+01  0.21998452981E+01  0.10809527070E+02  0.51100000000E-03 0. -1.
        -11    1    4    4    0    0 -0.99715642248E+01 -0.69867958992E+01  0.13971349444E+02  0.18532296554E+02  0.51100000000E-03 0.  1.
        -12    1    4    4    0    0 -0.43296154577E+01  0.23557746959E+02  0.72491806341E+01  0.25025259872E+02  0.00000000000E+00 0.  1.
</event>
<event>
 8    1  0.1253703E-006  0.9118800E+02  0.7816164E-02  0.1184000E+00
        -11   -1    0    0    0    0  0.00000000000E+00  0.00000000000E+00  0.45593999997E+02  0.45594000000E+02  0.51100000000E-03 0.  1.
         11   -1    0    0    0    0 -0.00000000000E+00 -0.00000000000E+00 -0.45593999997E+02  0.45594000000E+02  0.51100000000E-03 0. -1.
         23    2    1    2    0    0  0.00000000000E+00  0.00000000000E+00 -0.19984014443E-14  0.91188000000E+02  0.91188000000E+02 0.  0.
    9900012    2    3    3    0    0 -0.82496182207E+01  0.35858731144E+02  0.13692949754E+01  0.54367085172E+02  0.40000002266E+02 0.  0.
         12    1    3    3    0    0  0.82496182207E+01 -0.35858731144E+02 -0.13692949754E+01  0.36820914828E+02  0.00000000000E+00 0. -1.
         11    1    4    4    0    0 -0.12609547573E+02  0.21032772675E+02  0.93448037069E+01  0.26243162404E+02  0.51100000000E-03 0. -1.
        -11    1    4    4    0    0 -0.75382192820E+01  0.61463482841E+01  0.25099740349E+01  0.10045014539E+02  0.51100000000E-03 0.  1.
         12    1    4    4    0    0  0.11898148634E+02  0.86796101852E+01 -0.10485482766E+02  0.18078908228E+02  0.00000000000E+00 0. -1.
</event>
<event>
 8    1  0.1253703E-006  0.9118800E+02  0.7816164E-02  0.1184000E+00
        -11   -1    0    0    0    0  0.00000000000E+00  0.00000000000E+00  0.45593999997E+02  0.45594000000E+02  0.51100000000E-03 0.  1.
         11   -1    0    0    0    0 -0.00000000000E+00 -0.00000000000E+00 -0.45593999997E+02  0.45594000000E+02  0.51100000000E-03 0. -1.
         23    2    1    2    0    0  0.17763568394E-14  0.00000000000E+00  0.00000000000E+00  0.91188000000E+02  0.91188000000E+02 0.  0.
    9900012    2    3    3    0    0  0.29665269674E+01  0.29133844711E+02  0.22320378592E+02  0.54367075373E+02  0.39999979928E+02 0.  0.
         12    1    3    3    0    0 -0.29665269674E+01 -0.29133844711E+02 -0.22320378592E+02  0.36820924627E+02  0.00000000000E+00 0. -1.
         11    1    4    4    0    0 -0.91382126395E+01 -0.33980833067E+01  0.59352312899E+01  0.11414064619E+02  0.51100000000E-03 0. -1.
        -11    1    4    4    0    0  0.16942590130E+02  0.24687049046E+02  0.15439446324E+02  0.33687954137E+02  0.51100000000E-03 0.  1.
        -12    1    4    4    0    0 -0.48378505232E+01  0.78448789719E+01  0.94570097828E+00  0.92650566166E+01  0.00000000000E+00 0.  1.
</event>
<event>
 8    1  0.1253703E-006  0.9118800E+02  0.7816164E-02  0.1184000E+00
        -11   -1    0    0    0    0  0.00000000000E+00  0.00000000000E+00  0.45593999997E+02  0.45594000000E+02  0.51100000000E-03 0.  1.
         11   -1    0    0    0    0 -0.00000000000E+00 -0.00000000000E+00 -0.45593999997E+02  0.45594000000E+02  0.51100000000E-03 0. -1.
         23    2    1    2    0    0  0.00000000000E+00  0.35527136788E-14  0.35527136788E-14  0.91188000000E+02  0.91188000000E+02 0.  0.
    9900012    2    3    3    0    0 -0.13215723339E+02  0.24233532820E+02 -0.24369266239E+02  0.54367073975E+02  0.39999976740E+02 0.  0.
        -12    1    3    3    0    0  0.13215723339E+02 -0.24233532820E+02  0.24369266239E+02  0.36820926025E+02  0.00000000000E+00 0.  1.
         11    1    4    4    0    0  0.21272809094E+01  0.92869746311E+01 -0.15323118281E+02  0.18043590994E+02  0.51100000000E-03 0. -1.
        -11    1    4    4    0    0 -0.18265714815E+02  0.74786392371E+01 -0.16232624844E+02  0.25555126533E+02  0.51100000000E-03 0.  1.
        -12    1    4    4    0    0  0.29227105669E+01  0.74679189522E+01  0.71864768859E+01  0.10768356447E+02  0.00000000000E+00 0.  1.
</event>
<event>
 8    1  0.1253703E-006  0.9118800E+02  0.7816164E-02  0.1184000E+00
        -11   -1    0    0    0    0  0.00000000000E+00  0.00000000000E+00  0.45593999997E+02  0.45594000000E+02  0.51100000000E-03 0. -1.
         11   -1    0    0    0    0 -0.00000000000E+00 -0.00000000000E+00 -0.45593999997E+02  0.45594000000E+02  0.51100000000E-03 0.  1.
         23    2    1    2    0    0  0.35527136788E-14  0.00000000000E+00  0.17763568394E-14  0.91188000000E+02  0.91188000000E+02 0.  0.
    9900012    2    3    3    0    0  0.29975671399E+02 -0.17114325048E+02  0.12819440839E+02  0.54367094782E+02  0.40000024175E+02 0.  0.
        -12    1    3    3    0    0 -0.29975671399E+02  0.17114325048E+02 -0.12819440839E+02  0.36820905218E+02  0.00000000000E+00 0.  1.
         11    1    4    4    0    0 -0.64197578042E+01  0.28274821099E+01  0.87260777420E+01  0.11196087637E+02  0.51100000000E-03 0. -1.
        -11    1    4    4    0    0  0.17537431255E+02 -0.12232334105E+02  0.72016109224E+01  0.22562240421E+02  0.51100000000E-03 0.  1.
        -12    1    4    4    0    0  0.18857997948E+02 -0.77094730528E+01 -0.31082478256E+01  0.20608766724E+02  0.00000000000E+00 0.  1.
</event>
<event>
 8    1  0.1253703E-006  0.9118800E+02  0.7816164E-02  0.1184000E+00
        -11   -1    0    0    0    0  0.00000000000E+00  0.00000000000E+00  0.45593999997E+02  0.45594000000E+02  0.51100000000E-03 0.  1.
         11   -1    0    0    0    0 -0.00000000000E+00 -0.00000000000E+00 -0.45593999997E+02  0.45594000000E+02  0.51100000000E-03 0. -1.
         23    2    1    2    0    0  0.00000000000E+00  0.00000000000E+00  0.00000000000E+00  0.91188000000E+02  0.91188000000E+02 0.  0.
    9900012    2    3    3    0    0  0.19701731897E+02 -0.24663487491E+02 -0.18956120098E+02  0.54367077359E+02  0.39999984456E+02 0.  0.
        -12    1    3    3    0    0 -0.19701731897E+02  0.24663487491E+02  0.18956120098E+02  0.36820922641E+02  0.00000000000E+00 0.  1.
         11    1    4    4    0    0  0.92805715274E+01  0.13388600932E+01 -0.18435740739E+02  0.20683280472E+02  0.51100000000E-03 0. -1.
        -11    1    4    4    0    0 -0.52201497411E+01 -0.53267534140E+01  0.17447999031E+01  0.76595425592E+01  0.51100000000E-03 0.  1.
         12    1    4    4    0    0  0.15641310110E+02 -0.20675594170E+02 -0.22651792620E+01  0.26024254328E+02  0.00000000000E+00 0. -1.
</event>
<event>
 8    1  0.1253703E-006  0.9118800E+02  0.7816164E-02  0.1184000E+00
        -11   -1    0    0    0    0  0.00000000000E+00  0.00000000000E+00  0.45593999997E+02  0.45594000000E+02  0.51100000000E-03 0.  1.
         11   -1    0    0    0    0 -0.00000000000E+00 -0.00000000000E+00 -0.45593999997E+02  0.45594000000E+02  0.51100000000E-03 0. -1.
         23    2    1    2    0    0  0.35527136788E-14  0.00000000000E+00  0.00000000000E+00  0.91188000000E+02  0.91188000000E+02 0.  0.
    9900012    2    3    3    0    0 -0.22940573969E+02 -0.21298974148E+02  0.19387177188E+02  0.54367097334E+02  0.40000029993E+02 0.  0.
         12    1    3    3    0    0  0.22940573969E+02  0.21298974148E+02 -0.19387177188E+02  0.36820902666E+02  0.00000000000E+00 0. -1.
         11    1    4    4    0    0 -0.13908338537E+02 -0.71987508862E+01 -0.72863818125E+01  0.17272963132E+02  0.51100000000E-03 0. -1.
        -11    1    4    4    0    0 -0.28835427726E+01 -0.37823358055E+01 -0.26226620180E+01  0.54313202252E+01  0.51100000000E-03 0.  1.
        -12    1    4    4    0    0 -0.61486926590E+01 -0.10317887456E+02  0.29296221018E+02  0.31662813977E+02  0.00000000000E+00 0.  1.
</event>
<event>
 8    1  0.1253703E-006  0.9118800E+02  0.7816164E-02  0.1184000E+00
        -11   -1    0    0    0    0  0.00000000000E+00  0.00000000000E+00  0.45593999997E+02  0.45594000000E+02  0.51100000000E-03 0. -1.
         11   -1    0    0    0    0 -0.00000000000E+00 -0.00000000000E+00 -0.45593999997E+02  0.45594000000E+02  0.51100000000E-03 0.  1.
         23    2    1    2    0    0 -0.35527136788E-14  0.00000000000E+00  0.00000000000E+00  0.91188000000E+02  0.91188000000E+02 0.  0.
    9900012    2    3    3    0    0 -0.18685716592E+02 -0.23168301673E+02  0.21676099671E+02  0.54367088768E+02  0.40000010465E+02 0.  0.
        -12    1    3    3    0    0  0.18685716592E+02  0.23168301673E+02 -0.21676099671E+02  0.36820911232E+02  0.00000000000E+00 0.  1.
         11    1    4    4    0    0  0.43213906546E+01 -0.16106652573E+02  0.14082602430E+02  0.21827010005E+02  0.51100000000E-03 0. -1.
        -11    1    4    4    0    0  0.26054077732E+01  0.31289520693E+01  0.11647596401E+01  0.42349918532E+01  0.51100000000E-03 0.  1.
         12    1    4    4    0    0 -0.25612515020E+02 -0.10190601169E+02  0.64287376014E+01  0.28305086910E+02  0.00000000000E+00 0. -1.
</event>
<event>
 8    1  0.1253703E-006  0.9118800E+02  0.7816164E-02  0.1184000E+00
        -11   -1    0    0    0    0  0.00000000000E+00  0.00000000000E+00  0.45593999997E+02  0.45594000000E+02  0.51100000000E-03 0.  1.
         11   -1    0    0    0    0 -0.00000000000E+00 -0.00000000000E+00 -0.45593999997E+02  0.45594000000E+02  0.51100000000E-03 0. -1.
         23    2    1    2    0    0  0.00000000000E+00 -0.11102230246E-14  0.71054273576E-14  0.91188000000E+02  0.91188000000E+02 0.  0.
    9900012    2    3    3    0    0  0.13789270826E+02  0.15164698029E+01  0.34107718763E+02  0.54367079998E+02  0.39999990471E+02 0.  0.
         12    1    3    3    0    0 -0.13789270826E+02 -0.15164698029E+01 -0.34107718763E+02  0.36820920002E+02  0.00000000000E+00 0. -1.
         11    1    4    4    0    0  0.25118262743E+01  0.89428021742E+01  0.14681002401E+02  0.17372818243E+02  0.51100000000E-03 0. -1.
        -11    1    4    4    0    0  0.20954597023E+01  0.84744922013E+01  0.16127646617E+02  0.18338728285E+02  0.51100000000E-03 0.  1.
         12    1    4    4    0    0  0.91819848492E+01 -0.15900824573E+02  0.32990697457E+01  0.18655533470E+02  0.00000000000E+00 0. -1.
</event>
<event>
 8    1  0.1253703E-006  0.9118800E+02  0.7816164E-02  0.1184000E+00
        -11   -1    0    0    0    0  0.00000000000E+00  0.00000000000E+00  0.45593999997E+02  0.45594000000E+02  0.51100000000E-03 0.  1.
         11   -1    0    0    0    0 -0.00000000000E+00 -0.00000000000E+00 -0.45593999997E+02  0.45594000000E+02  0.51100000000E-03 0. -1.
         23    2    1    2    0    0  0.00000000000E+00  0.35527136788E-14  0.35527136788E-14  0.91188000000E+02  0.91188000000E+02 0.  0.
    9900012    2    3    3    0    0 -0.81751214456E+01 -0.30945933120E+02 -0.18201557024E+02  0.54367081144E+02  0.39999993084E+02 0.  0.
        -12    1    3    3    0    0  0.81751214456E+01  0.30945933120E+02  0.18201557024E+02  0.36820918856E+02  0.00000000000E+00 0.  1.
         11    1    4    4    0    0 -0.14610528604E+02 -0.77015278335E+01 -0.73683552226E+01  0.18085180011E+02  0.51100000000E-03 0. -1.
        -11    1    4    4    0    0 -0.10164640930E+01  0.32612878046E+01 -0.78826013653E+01  0.85909604784E+01  0.51100000000E-03 0.  1.
        -12    1    4    4    0    0  0.74518712519E+01 -0.26505693091E+02 -0.29506004356E+01  0.27690940655E+02  0.00000000000E+00 0.  1.
</event>
<event>
 8    1  0.1253703E-006  0.9118800E+02  0.7816164E-02  0.1184000E+00
        -11   -1    0    0    0    0  0.00000000000E+00  0.00000000000E+00  0.45593999997E+02  0.45594000000E+02  0.51100000000E-03 0.  1.
         11   -1    0    0    0    0 -0.00000000000E+00 -0.00000000000E+00 -0.45593999997E+02  0.45594000000E+02  0.51100000000E-03 0. -1.
         23    2    1    2    0    0  0.17763568394E-14  0.00000000000E+00  0.00000000000E+00  0.91188000000E+02  0.91188000000E+02 0.  0.
    9900012    2    3    3    0    0  0.15226894892E+02  0.96554319664E+01 -0.32104464379E+02  0.54367050425E+02  0.39999923055E+02 0.  0.
        -12    1    3    3    0    0 -0.15226894892E+02 -0.96554319664E+01  0.32104464379E+02  0.36820949575E+02  0.00000000000E+00 0.  1.
         11    1    4    4    0    0  0.23956489396E+02  0.16972896288E+02 -0.25302005759E+02  0.38758019664E+02  0.51100000000E-03 0. -1.
        -11    1    4    4    0    0 -0.81747893803E+00 -0.56766494828E+01 -0.14468740747E+01  0.59149020291E+01  0.51100000000E-03 0.  1.
         12    1    4    4    0    0 -0.79121155658E+01 -0.16408148385E+01 -0.53555845449E+01  0.96941287323E+01  0.00000000000E+00 0. -1.
</event>
<event>
 8    1  0.1253703E-006  0.9118800E+02  0.7816164E-02  0.1184000E+00
        -11   -1    0    0    0    0  0.00000000000E+00  0.00000000000E+00  0.45593999997E+02  0.45594000000E+02  0.51100000000E-03 0. -1.
         11   -1    0    0    0    0 -0.00000000000E+00 -0.00000000000E+00 -0.45593999997E+02  0.45594000000E+02  0.51100000000E-03 0.  1.
         23    2    1    2    0    0  0.00000000000E+00  0.35527136788E-14  0.00000000000E+00  0.91188000000E+02  0.91188000000E+02 0.  0.
    9900012    2    3    3    0    0  0.17696409333E+02 -0.22831372437E+02  0.22832946344E+02  0.54367110421E+02  0.40000059826E+02 0.  0.
        -12    1    3    3    0    0 -0.17696409333E+02  0.22831372437E+02 -0.22832946344E+02  0.36820889579E+02  0.00000000000E+00 0.  1.
         11    1    4    4    0    0  0.18634997548E+02 -0.30912739466E+02  0.10905074548E+02  0.37706514637E+02  0.51100000000E-03 0. -1.
        -11    1    4    4    0    0  0.20435581873E+00  0.94791462857E+01  0.82696948914E+01  0.12581090154E+02  0.51100000000E-03 0.  1.
        -12    1    4    4    0    0 -0.11429440338E+01 -0.13977792568E+01  0.36581769051E+01  0.40795056299E+01  0.00000000000E+00 0.  1.
</event>
<event>
 8    1  0.1253703E-006  0.9118800E+02  0.7816164E-02  0.1184000E+00
        -11   -1    0    0    0    0  0.00000000000E+00  0.00000000000E+00  0.45593999997E+02  0.45594000000E+02  0.51100000000E-03 0. -1.
         11   -1    0    0    0    0 -0.00000000000E+00 -0.00000000000E+00 -0.45593999997E+02  0.45594000000E+02  0.51100000000E-03 0.  1.
         23    2    1    2    0    0  0.35527136788E-14 -0.35527136788E-14  0.00000000000E+00  0.91188000000E+02  0.91188000000E+02 0.  0.
    9900012    2    3    3    0    0  0.24280974326E+02  0.25027902565E+02 -0.11824626449E+02  0.54367035705E+02  0.39999889496E+02 0.  0.
        -12    1    3    3    0    0 -0.24280974326E+02 -0.25027902565E+02  0.11824626449E+02  0.36820964295E+02  0.00000000000E+00 0.  1.
         11    1    4    4    0    0  0.15943062842E+02  0.16942092801E+02 -0.13761011795E+02  0.27029265753E+02  0.51100000000E-03 0. -1.
        -11    1    4    4    0    0 -0.80239507155E+01  0.71324181561E+01  0.21399174438E+01  0.10946890918E+02  0.51100000000E-03 0.  1.
        -12    1    4    4    0    0  0.16361862199E+02  0.95339160732E+00 -0.20353209769E+00  0.16390879034E+02  0.00000000000E+00 0.  1.
</event>
<event>
 8    1  0.1253703E-006  0.9118800E+02  0.7816164E-02  0.1184000E+00
        -11   -1    0    0    0    0  0.00000000000E+00  0.00000000000E+00  0.45593999997E+02  0.45594000000E+02  0.51100000000E-03 0. -1.
         11   -1    0    0    0    0 -0.00000000000E+00 -0.00000000000E+00 -0.45593999997E+02  0.45594000000E+02  0.51100000000E-03 0.  1.
         23    2    1    2    0    0  0.00000000000E+00 -0.35527136788E-14  0.00000000000E+00  0.91188000000E+02  0.91188000000E+02 0.  0.
    9900012    2    3    3    0    0 -0.11358780814E+02 -0.23314577171E+02 -0.26137848783E+02  0.54367101733E+02  0.40000040020E+02 0.  0.
         12    1    3    3    0    0  0.11358780814E+02  0.23314577171E+02  0.26137848783E+02  0.36820898267E+02  0.00000000000E+00 0. -1.
         11    1    4    4    0    0  0.62712016747E+01 -0.64397801813E+01 -0.19642064884E+02  0.21601144701E+02  0.51100000000E-03 0. -1.
        -11    1    4    4    0    0 -0.67247301156E+01 -0.23951591934E+00  0.62153499194E+01  0.91602367811E+01  0.51100000000E-03 0.  1.
        -12    1    4    4    0    0 -0.10905252373E+02 -0.16635281070E+02 -0.12711133818E+02  0.23605720251E+02  0.00000000000E+00 0.  1.
</event>
<event>
 8    1  0.1253703E-006  0.9118800E+02  0.7816164E-02  0.1184000E+00
        -11   -1    0    0    0    0  0.00000000000E+00  0.00000000000E+00  0.45593999997E+02  0.45594000000E+02  0.51100000000E-03 0. -1.
         11   -1    0    0    0    0 -0.00000000000E+00 -0.00000000000E+00 -0.45593999997E+02  0.45594000000E+02  0.51100000000E-03 0.  1.
         23    2    1    2    0    0  0.00000000000E+00  0.17763568394E-14  0.00000000000E+00  0.91188000000E+02  0.91188000000E+02 0.  0.
    9900012    2    3    3    0    0 -0.25662695574E+01  0.42347964883E+01  0.36486423184E+02  0.54367104879E+02  0.40000047192E+02 0.  0.
        -12    1    3    3    0    0  0.25662695574E+01 -0.42347964883E+01 -0.36486423184E+02  0.36820895121E+02  0.00000000000E+00 0.  1.
         11    1    4    4    0    0  0.49727890635E+00 -0.41986557844E+01  0.19927687420E+02  0.20371272000E+02  0.51100000000E-03 0. -1.
        -11    1    4    4    0    0 -0.36833718202E+01 -0.51748357097E+01 -0.52779435385E+01  0.82585011258E+01  0.51100000000E-03 0.  1.
         12    1    4    4    0    0  0.61982335641E+00  0.13608287982E+02  0.21836679303E+02  0.25737331753E+02  0.00000000000E+00 0. -1.
</event>
<event>
 8    1  0.1253703E-006  0.9118800E+02  0.7816164E-02  0.1184000E+00
        -11   -1    0    0    0    0  0.00000000000E+00  0.00000000000E+00  0.45593999997E+02  0.45594000000E+02  0.51100000000E-03 0. -1.
         11   -1    0    0    0    0 -0.00000000000E+00 -0.00000000000E+00 -0.45593999997E+02  0.45594000000E+02  0.51100000000E-03 0.  1.
         23    2    1    2    0    0  0.00000000000E+00  0.13322676296E-14  0.00000000000E+00  0.91188000000E+02  0.91188000000E+02 0.  0.
    9900012    2    3    3    0    0  0.36329894682E+02 -0.31951558016E+01 -0.50705259346E+01  0.54367075223E+02  0.39999979586E+02 0.  0.
         12    1    3    3    0    0 -0.36329894682E+02  0.31951558016E+01  0.50705259346E+01  0.36820924777E+02  0.00000000000E+00 0. -1.
         11    1    4    4    0    0  0.88171839572E+01  0.96559704223E+01  0.24199341181E+01  0.13297991545E+02  0.51100000000E-03 0. -1.
        -11    1    4    4    0    0  0.52399174535E+01  0.77283459711E+01  0.14607107620E+01  0.94508064502E+01  0.51100000000E-03 0.  1.
        -12    1    4    4    0    0  0.22272793271E+02 -0.20579472195E+02 -0.89511708147E+01  0.31618277228E+02  0.00000000000E+00 0.  1.
</event>
<event>
 8    1  0.1253703E-006  0.9118800E+02  0.7816164E-02  0.1184000E+00
        -11   -1    0    0    0    0  0.00000000000E+00  0.00000000000E+00  0.45593999997E+02  0.45594000000E+02  0.51100000000E-03 0.  1.
         11   -1    0    0    0    0 -0.00000000000E+00 -0.00000000000E+00 -0.45593999997E+02  0.45594000000E+02  0.51100000000E-03 0. -1.
         23    2    1    2    0    0  0.17763568394E-14  0.00000000000E+00  0.88817841970E-15  0.91188000000E+02  0.91188000000E+02 0.  0.
    9900012    2    3    3    0    0  0.12909869734E+02  0.33721309283E+02  0.72100572038E+01  0.54367131444E+02  0.40000107753E+02 0.  0.
        -12    1    3    3    0    0 -0.12909869734E+02 -0.33721309283E+02 -0.72100572038E+01  0.36820868556E+02  0.00000000000E+00 0.  1.
         11    1    4    4    0    0 -0.34122009965E+01  0.33485072854E+00 -0.52198800843E+01  0.62451892691E+01  0.51100000000E-03 0. -1.
        -11    1    4    4    0    0  0.43039515082E+00 -0.12589328440E+01 -0.57430174755E+01  0.58951167823E+01  0.51100000000E-03 0.  1.
        -12    1    4    4    0    0  0.15891675580E+02  0.34645391399E+02  0.18172954764E+02  0.42226825393E+02  0.00000000000E+00 0.  1.
</event>
<event>
 8    1  0.1253703E-006  0.9118800E+02  0.7816164E-02  0.1184000E+00
        -11   -1    0    0    0    0  0.00000000000E+00  0.00000000000E+00  0.45593999997E+02  0.45594000000E+02  0.51100000000E-03 0.  1.
         11   -1    0    0    0    0 -0.00000000000E+00 -0.00000000000E+00 -0.45593999997E+02  0.45594000000E+02  0.51100000000E-03 0. -1.
         23    2    1    2    0    0  0.00000000000E+00  0.00000000000E+00  0.00000000000E+00  0.91188000000E+02  0.91188000000E+02 0.  0.
    9900012    2    3    3    0    0 -0.28530913925E+02 -0.17873455475E+02  0.14909949471E+02  0.54367081309E+02  0.39999993461E+02 0.  0.
         12    1    3    3    0    0  0.28530913925E+02  0.17873455475E+02 -0.14909949471E+02  0.36820918691E+02  0.00000000000E+00 0. -1.
         11    1    4    4    0    0 -0.27718195771E+02 -0.50369752407E+01  0.69864124690E+00  0.28180801909E+02  0.51100000000E-03 0. -1.
        -11    1    4    4    0    0 -0.64530215149E+01 -0.12104939433E+02  0.36563459850E+01  0.14196475322E+02  0.51100000000E-03 0.  1.
         12    1    4    4    0    0  0.56403033616E+01 -0.73154080136E+00  0.10554962239E+02  0.11989804078E+02  0.00000000000E+00 0. -1.
</event>
<event>
 8    1  0.1253703E-006  0.9118800E+02  0.7816164E-02  0.1184000E+00
        -11   -1    0    0    0    0  0.00000000000E+00  0.00000000000E+00  0.45593999997E+02  0.45594000000E+02  0.51100000000E-03 0.  1.
         11   -1    0    0    0    0 -0.00000000000E+00 -0.00000000000E+00 -0.45593999997E+02  0.45594000000E+02  0.51100000000E-03 0. -1.
         23    2    1    2    0    0  0.00000000000E+00  0.00000000000E+00  0.00000000000E+00  0.91188000000E+02  0.91188000000E+02 0.  0.
    9900012    2    3    3    0    0  0.11847569984E+02  0.59350254560E+01 -0.34353901649E+02  0.54367082029E+02  0.39999995102E+02 0.  0.
        -12    1    3    3    0    0 -0.11847569984E+02 -0.59350254560E+01  0.34353901649E+02  0.36820917971E+02  0.00000000000E+00 0.  1.
         11    1    4    4    0    0  0.22145723440E+02  0.12443663155E+02 -0.31515520162E+02  0.40478461319E+02  0.51100000000E-03 0. -1.
        -11    1    4    4    0    0 -0.54648218864E+01 -0.54697712588E+01 -0.41480936914E+01  0.87743579485E+01  0.51100000000E-03 0.  1.
         12    1    4    4    0    0 -0.48333315694E+01 -0.10388664406E+01  0.13097122043E+01  0.51142627620E+01  0.00000000000E+00 0. -1.
</event>
<event>
 8    1  0.1253703E-006  0.9118800E+02  0.7816164E-02  0.1184000E+00
        -11   -1    0    0    0    0  0.00000000000E+00  0.00000000000E+00  0.45593999997E+02  0.45594000000E+02  0.51100000000E-03 0. -1.
         11   -1    0    0    0    0 -0.00000000000E+00 -0.00000000000E+00 -0.45593999997E+02  0.45594000000E+02  0.51100000000E-03 0.  1.
         23    2    1    2    0    0 -0.35527136788E-14  0.00000000000E+00 -0.35527136788E-14  0.91188000000E+02  0.91188000000E+02 0.  0.
    9900012    2    3    3    0    0  0.25380010794E+02  0.19254416686E+02  0.18463514540E+02  0.54367097255E+02  0.40000029812E+02 0.  0.
        -12    1    3    3    0    0 -0.25380010794E+02 -0.19254416686E+02 -0.18463514540E+02  0.36820902745E+02  0.00000000000E+00 0.  1.
         11    1    4    4    0    0  0.80848097263E+01  0.15093390264E+02 -0.14355844499E+01  0.17182417785E+02  0.51100000000E-03 0. -1.
        -11    1    4    4    0    0  0.16711493466E+02  0.13014391369E+02  0.87039756916E+01  0.22899947372E+02  0.51100000000E-03 0.  1.
        -12    1    4    4    0    0  0.58370760170E+00 -0.88533649468E+01  0.11195123298E+02  0.14284732098E+02  0.00000000000E+00 0.  1.
</event>
<event>
 8    1  0.1253703E-006  0.9118800E+02  0.7816164E-02  0.1184000E+00
        -11   -1    0    0    0    0  0.00000000000E+00  0.00000000000E+00  0.45593999997E+02  0.45594000000E+02  0.51100000000E-03 0. -1.
         11   -1    0    0    0    0 -0.00000000000E+00 -0.00000000000E+00 -0.45593999997E+02  0.45594000000E+02  0.51100000000E-03 0.  1.
         23    2    1    2    0    0  0.88817841970E-15  0.00000000000E+00  0.00000000000E+00  0.91188000000E+02  0.91188000000E+02 0.  0.
    9900012    2    3    3    0    0  0.50467809816E+01 -0.95701570428E+01 -0.35195487856E+02  0.54367078373E+02  0.39999986766E+02 0.  0.
         12    1    3    3    0    0 -0.50467809816E+01  0.95701570428E+01  0.35195487856E+02  0.36820921627E+02  0.00000000000E+00 0. -1.
         11    1    4    4    0    0  0.80271563857E+01 -0.13428041052E+02 -0.12082412444E+02  0.19766947586E+02  0.51100000000E-03 0. -1.
        -11    1    4    4    0    0  0.60491489418E+01 -0.24115461785E+01  0.23040796083E+01  0.69077160475E+01  0.51100000000E-03 0.  1.
        -12    1    4    4    0    0 -0.90295243458E+01  0.62694301876E+01 -0.25417155020E+02  0.27692414739E+02  0.00000000000E+00 0.  1.
</event>
<event>
 8    1  0.1253703E-006  0.9118800E+02  0.7816164E-02  0.1184000E+00
        -11   -1    0    0    0    0  0.00000000000E+00  0.00000000000E+00  0.45593999997E+02  0.45594000000E+02  0.51100000000E-03 0. -1.
         11   -1    0    0    0    0 -0.00000000000E+00 -0.00000000000E+00 -0.45593999997E+02  0.45594000000E+02  0.51100000000E-03 0.  1.
         23    2    1    2    0    0  0.00000000000E+00  0.00000000000E+00  0.17763568394E-14  0.91188000000E+02  0.91188000000E+02 0.  0.
    9900012    2    3    3    0    0  0.34590331712E+02  0.50634783905E+01 -0.11560718391E+02  0.54367081067E+02  0.39999992908E+02 0.  0.
        -12    1    3    3    0    0 -0.34590331712E+02 -0.50634783905E+01  0.11560718391E+02  0.36820918933E+02  0.00000000000E+00 0.  1.
         11    1    4    4    0    0  0.15368178545E+02 -0.16207445011E+01 -0.69137198636E+01  0.16929478643E+02  0.51100000000E-03 0. -1.
        -11    1    4    4    0    0 -0.10912790418E+01  0.14123477192E+01 -0.14247969350E+02  0.14359326130E+02  0.51100000000E-03 0.  1.
        -12    1    4    4    0    0  0.20313432209E+02  0.52718751724E+01  0.96009708231E+01  0.23078276294E+02  0.00000000000E+00 0.  1.
</event>
<event>
 8    1  0.1253703E-006  0.9118800E+02  0.7816164E-02  0.1184000E+00
        -11   -1    0    0    0    0  0.00000000000E+00  0.00000000000E+00  0.45593999997E+02  0.45594000000E+02  0.51100000000E-03 0.  1.
         11   -1    0    0    0    0 -0.00000000000E+00 -0.00000000000E+00 -0.45593999997E+02  0.45594000000E+02  0.51100000000E-03 0. -1.
         23    2    1    2    0    0  0.35527136788E-14 -0.71054273576E-14  0.35527136788E-14  0.91188000000E+02  0.91188000000E+02 0.  0.
    9900012    2    3    3    0    0 -0.17706503394E+02  0.24705893623E+02 -0.20781754093E+02  0.54367044753E+02  0.39999910122E+02 0.  0.
        -12    1    3    3    0    0  0.17706503394E+02 -0.24705893623E+02  0.20781754093E+02  0.36820955247E+02  0.00000000000E+00 0.  1.
         11    1    4    4    0    0  0.30142200074E+01 -0.28949938759E+01 -0.82610950801E+01  0.92580885705E+01  0.51100000000E-03 0. -1.
        -11    1    4    4    0    0  0.46030471338E+01  0.75528190728E+01 -0.89999839005E+01  0.12618749119E+02  0.51100000000E-03 0.  1.
         12    1    4    4    0    0 -0.25323770535E+02  0.20048068426E+02 -0.35206751122E+01  0.32490207063E+02  0.00000000000E+00 0. -1.
</event>
<event>
 8    1  0.1253703E-006  0.9118800E+02  0.7816164E-02  0.1184000E+00
        -11   -1    0    0    0    0  0.00000000000E+00  0.00000000000E+00  0.45593999997E+02  0.45594000000E+02  0.51100000000E-03 0. -1.
         11   -1    0    0    0    0 -0.00000000000E+00 -0.00000000000E+00 -0.45593999997E+02  0.45594000000E+02  0.51100000000E-03 0.  1.
         23    2    1    2    0    0  0.88817841970E-15  0.80491169285E-15  0.00000000000E+00  0.91188000000E+02  0.91188000000E+02 0.  0.
    9900012    2    3    3    0    0  0.54211346037E+01 -0.65763159061E-01 -0.36419601596E+02  0.54367076524E+02  0.39999982553E+02 0.  0.
         12    1    3    3    0    0 -0.54211346037E+01  0.65763159061E-01  0.36419601596E+02  0.36820923476E+02  0.00000000000E+00 0. -1.
         11    1    4    4    0    0 -0.25181358784E+01 -0.10042664942E+02 -0.85376780964E+01  0.13419689824E+02  0.51100000000E-03 0. -1.
        -11    1    4    4    0    0  0.13422572979E+00 -0.82004301480E+01 -0.21285546607E+01  0.84732411959E+01  0.51100000000E-03 0.  1.
         12    1    4    4    0    0  0.78050447524E+01  0.18177331931E+02 -0.25753368839E+02  0.32474145505E+02  0.00000000000E+00 0. -1.
</event>
<event>
 8    1  0.1253703E-006  0.9118800E+02  0.7816164E-02  0.1184000E+00
        -11   -1    0    0    0    0  0.00000000000E+00  0.00000000000E+00  0.45593999997E+02  0.45594000000E+02  0.51100000000E-03 0. -1.
         11   -1    0    0    0    0 -0.00000000000E+00 -0.00000000000E+00 -0.45593999997E+02  0.45594000000E+02  0.51100000000E-03 0.  1.
         23    2    1    2    0    0  0.00000000000E+00  0.00000000000E+00 -0.88817841970E-15  0.91188000000E+02  0.91188000000E+02 0.  0.
    9900012    2    3    3    0    0  0.27577586133E+02 -0.23300888807E+02 -0.72335218390E+01  0.54367102207E+02  0.40000041101E+02 0.  0.
        -12    1    3    3    0    0 -0.27577586133E+02  0.23300888807E+02  0.72335218390E+01  0.36820897793E+02  0.00000000000E+00 0.  1.
         11    1    4    4    0    0  0.90767840954E+01  0.27090893034E-02 -0.62437746151E+01  0.11016929634E+02  0.51100000000E-03 0. -1.
        -11    1    4    4    0    0 -0.42850347711E+01 -0.11252933003E+02  0.96832222474E+01  0.15451693030E+02  0.51100000000E-03 0.  1.
        -12    1    4    4    0    0  0.22785836809E+02 -0.12050664894E+02 -0.10672969471E+02  0.27898479542E+02  0.00000000000E+00 0.  1.
</event>
<event>
 8    1  0.1253703E-006  0.9118800E+02  0.7816164E-02  0.1184000E+00
        -11   -1    0    0    0    0  0.00000000000E+00  0.00000000000E+00  0.45593999997E+02  0.45594000000E+02  0.51100000000E-03 0.  1.
         11   -1    0    0    0    0 -0.00000000000E+00 -0.00000000000E+00 -0.45593999997E+02  0.45594000000E+02  0.51100000000E-03 0. -1.
         23    2    1    2    0    0  0.88817841970E-15  0.00000000000E+00  0.00000000000E+00  0.91188000000E+02  0.91188000000E+02 0.  0.
    9900012    2    3    3    0    0 -0.39275316804E+01 -0.34923881717E+02 -0.10985229319E+02  0.54367105355E+02  0.40000048277E+02 0.  0.
         12    1    3    3    0    0  0.39275316804E+01  0.34923881717E+02  0.10985229319E+02  0.36820894645E+02  0.00000000000E+00 0. -1.
         11    1    4    4    0    0 -0.12926902310E+02 -0.17517581257E+02 -0.14810503127E+02  0.26330998074E+02  0.51100000000E-03 0.  1.
        -11    1    4    4    0    0 -0.53716208444E+01 -0.32880181471E+01  0.47200940443E+01  0.78704931154E+01  0.51100000000E-03 0. -1.
        -12    1    4    4    0    0  0.14370991474E+02 -0.14118282313E+02 -0.89482023689E+00  0.20165614166E+02  0.00000000000E+00 0.  1.
</event>
<event>
 8    1  0.1253703E-006  0.9118800E+02  0.7816164E-02  0.1184000E+00
        -11   -1    0    0    0    0  0.00000000000E+00  0.00000000000E+00  0.45593999997E+02  0.45594000000E+02  0.51100000000E-03 0.  1.
         11   -1    0    0    0    0 -0.00000000000E+00 -0.00000000000E+00 -0.45593999997E+02  0.45594000000E+02  0.51100000000E-03 0. -1.
         23    2    1    2    0    0  0.00000000000E+00  0.00000000000E+00  0.00000000000E+00  0.91188000000E+02  0.91188000000E+02 0.  0.
    9900012    2    3    3    0    0  0.63790808414E+01 -0.74166250530E+01  0.35497595297E+02  0.54367105505E+02  0.40000048620E+02 0.  0.
         12    1    3    3    0    0 -0.63790808414E+01  0.74166250530E+01 -0.35497595297E+02  0.36820894495E+02  0.00000000000E+00 0. -1.
         11    1    4    4    0    0  0.48062902016E+01 -0.37829019983E+01  0.20227592986E+02  0.21132115164E+02  0.51100000000E-03 0. -1.
        -11    1    4    4    0    0  0.44519493569E+01 -0.83850502283E+01  0.22322310467E+02  0.24257255930E+02  0.51100000000E-03 0.  1.
         12    1    4    4    0    0 -0.28791587171E+01  0.47513271735E+01 -0.70523081561E+01  0.89777344111E+01  0.00000000000E+00 0. -1.
</event>
<event>
 8    1  0.1253703E-006  0.9118800E+02  0.7816164E-02  0.1184000E+00
        -11   -1    0    0    0    0  0.00000000000E+00  0.00000000000E+00  0.45593999997E+02  0.45594000000E+02  0.51100000000E-03 0.  1.
         11   -1    0    0    0    0 -0.00000000000E+00 -0.00000000000E+00 -0.45593999997E+02  0.45594000000E+02  0.51100000000E-03 0. -1.
         23    2    1    2    0    0 -0.53290705182E-14  0.88817841970E-15  0.00000000000E+00  0.91188000000E+02  0.91188000000E+02 0.  0.
    9900012    2    3    3    0    0 -0.49648231827E+01  0.78724925049E+01  0.35625087217E+02  0.54367184600E+02  0.40000228933E+02 0.  0.
         12    1    3    3    0    0  0.49648231827E+01 -0.78724925049E+01 -0.35625087217E+02  0.36820815400E+02  0.00000000000E+00 0. -1.
         11    1    4    4    0    0  0.11657592659E+02 -0.93443620471E+01  0.11760670999E+02  0.19013940972E+02  0.51100000000E-03 0.  1.
        -11    1    4    4    0    0 -0.10069485231E+02  0.16618252075E+02  0.18938542751E+02  0.27133544491E+02  0.51100000000E-03 0. -1.
         12    1    4    4    0    0 -0.65529306099E+01  0.59860247714E+00  0.49258734665E+01  0.82196991375E+01  0.00000000000E+00 0. -1.
</event>
<event>
 8    1  0.1253703E-006  0.9118800E+02  0.7816164E-02  0.1184000E+00
        -11   -1    0    0    0    0  0.00000000000E+00  0.00000000000E+00  0.45593999997E+02  0.45594000000E+02  0.51100000000E-03 0.  1.
         11   -1    0    0    0    0 -0.00000000000E+00 -0.00000000000E+00 -0.45593999997E+02  0.45594000000E+02  0.51100000000E-03 0. -1.
         23    2    1    2    0    0  0.00000000000E+00 -0.35527136788E-14  0.00000000000E+00  0.91188000000E+02  0.91188000000E+02 0.  0.
    9900012    2    3    3    0    0  0.25011504939E+02 -0.26762033322E+02  0.37414212999E+01  0.54367081486E+02  0.39999993864E+02 0.  0.
         12    1    3    3    0    0 -0.25011504939E+02  0.26762033322E+02 -0.37414212999E+01  0.36820918514E+02  0.00000000000E+00 0. -1.
         11    1    4    4    0    0  0.11746582413E+02 -0.25630834928E+02  0.12049117065E+02  0.30661101085E+02  0.51100000000E-03 0. -1.
        -11    1    4    4    0    0 -0.28112336072E+01 -0.42952566935E+01  0.40409824682E+00  0.51493261804E+01  0.51100000000E-03 0.  1.
        -12    1    4    4    0    0  0.16076156134E+02  0.31640582992E+01 -0.87117940118E+01  0.18556654220E+02  0.00000000000E+00 0.  1.
</event>
<event>
 8    1  0.1253703E-006  0.9118800E+02  0.7816164E-02  0.1184000E+00
        -11   -1    0    0    0    0  0.00000000000E+00  0.00000000000E+00  0.45593999997E+02  0.45594000000E+02  0.51100000000E-03 0. -1.
         11   -1    0    0    0    0 -0.00000000000E+00 -0.00000000000E+00 -0.45593999997E+02  0.45594000000E+02  0.51100000000E-03 0.  1.
         23    2    1    2    0    0  0.35527136788E-14  0.35527136788E-14 -0.17763568394E-14  0.91188000000E+02  0.91188000000E+02 0.  0.
    9900012    2    3    3    0    0  0.24081499281E+02  0.24569218309E+02 -0.13123245056E+02  0.54367018797E+02  0.39999850952E+02 0.  0.
         12    1    3    3    0    0 -0.24081499281E+02 -0.24569218309E+02  0.13123245056E+02  0.36820981203E+02  0.00000000000E+00 0. -1.
         11    1    4    4    0    0  0.58635335634E+01 -0.84060319341E+01 -0.34622523609E+01  0.10818021557E+02  0.51100000000E-03 0.  1.
        -11    1    4    4    0    0  0.79600658542E+01  0.24086181017E+00 -0.20825333007E+00  0.79664316055E+01  0.51100000000E-03 0. -1.
        -12    1    4    4    0    0  0.10257899863E+02  0.32734388433E+02 -0.94527393648E+01  0.35582565635E+02  0.00000000000E+00 0.  1.
</event>
<event>
 8    1  0.1253703E-006  0.9118800E+02  0.7816164E-02  0.1184000E+00
        -11   -1    0    0    0    0  0.00000000000E+00  0.00000000000E+00  0.45593999997E+02  0.45594000000E+02  0.51100000000E-03 0.  1.
         11   -1    0    0    0    0 -0.00000000000E+00 -0.00000000000E+00 -0.45593999997E+02  0.45594000000E+02  0.51100000000E-03 0. -1.
         23    2    1    2    0    0  0.00000000000E+00  0.35527136788E-14  0.00000000000E+00  0.91188000000E+02  0.91188000000E+02 0.  0.
    9900012    2    3    3    0    0 -0.66997999192E+01 -0.10323438288E+02  0.34703274915E+02  0.54367109369E+02  0.40000057428E+02 0.  0.
         12    1    3    3    0    0  0.66997999192E+01  0.10323438288E+02 -0.34703274915E+02  0.36820890631E+02  0.00000000000E+00 0. -1.
         11    1    4    4    0    0 -0.46878851926E+01  0.14159543551E+02  0.12893591310E+02  0.19715822029E+02  0.51100000000E-03 0. -1.
        -11    1    4    4    0    0  0.24058959907E-01 -0.78916460196E+01  0.14285026318E+02  0.16319945861E+02  0.51100000000E-03 0.  1.
         12    1    4    4    0    0 -0.20359736864E+01 -0.16591335820E+02  0.75246572878E+01  0.18331341479E+02  0.00000000000E+00 0. -1.
</event>
<event>
 8    1  0.1253703E-006  0.9118800E+02  0.7816164E-02  0.1184000E+00
        -11   -1    0    0    0    0  0.00000000000E+00  0.00000000000E+00  0.45593999997E+02  0.45594000000E+02  0.51100000000E-03 0. -1.
         11   -1    0    0    0    0 -0.00000000000E+00 -0.00000000000E+00 -0.45593999997E+02  0.45594000000E+02  0.51100000000E-03 0.  1.
         23    2    1    2    0    0  0.17763568394E-14  0.00000000000E+00  0.00000000000E+00  0.91188000000E+02  0.91188000000E+02 0.  0.
    9900012    2    3    3    0    0  0.11497075604E+02 -0.33266467282E+02  0.10813826973E+02  0.54367089546E+02  0.40000012238E+02 0.  0.
        -12    1    3    3    0    0 -0.11497075604E+02  0.33266467282E+02 -0.10813826973E+02  0.36820910454E+02  0.00000000000E+00 0.  1.
         11    1    4    4    0    0  0.60346551314E+01 -0.11184604976E+02  0.11340981735E+02  0.17033212204E+02  0.51100000000E-03 0. -1.
        -11    1    4    4    0    0 -0.10571763930E+02 -0.17498918839E+02  0.16745252091E+01  0.20512883465E+02  0.51100000000E-03 0.  1.
        -12    1    4    4    0    0  0.16034184403E+02 -0.45829434671E+01 -0.22016799709E+01  0.16820993876E+02  0.00000000000E+00 0.  1.
</event>
<event>
 8    1  0.1253703E-006  0.9118800E+02  0.7816164E-02  0.1184000E+00
        -11   -1    0    0    0    0  0.00000000000E+00  0.00000000000E+00  0.45593999997E+02  0.45594000000E+02  0.51100000000E-03 0. -1.
         11   -1    0    0    0    0 -0.00000000000E+00 -0.00000000000E+00 -0.45593999997E+02  0.45594000000E+02  0.51100000000E-03 0.  1.
         23    2    1    2    0    0 -0.17763568394E-14  0.00000000000E+00  0.00000000000E+00  0.91188000000E+02  0.91188000000E+02 0.  0.
    9900012    2    3    3    0    0  0.10219758043E+02 -0.44390845679E+01  0.35094589219E+02  0.54367093999E+02  0.40000022391E+02 0.  0.
        -12    1    3    3    0    0 -0.10219758043E+02  0.44390845679E+01 -0.35094589219E+02  0.36820906001E+02  0.00000000000E+00 0.  1.
         11    1    4    4    0    0 -0.23581359690E+01 -0.31135430806E+01 -0.36223536320E+01  0.53269505216E+01  0.51100000000E-03 0. -1.
        -11    1    4    4    0    0  0.12128065523E+01 -0.23721156558E+00  0.37542482944E+02  0.37562816653E+02  0.51100000000E-03 0.  1.
        -12    1    4    4    0    0  0.11365087459E+02 -0.10883299217E+01  0.11744599075E+01  0.11477326825E+02  0.00000000000E+00 0.  1.
</event>
<event>
 8    1  0.1253703E-006  0.9118800E+02  0.7816164E-02  0.1184000E+00
        -11   -1    0    0    0    0  0.00000000000E+00  0.00000000000E+00  0.45593999997E+02  0.45594000000E+02  0.51100000000E-03 0. -1.
         11   -1    0    0    0    0 -0.00000000000E+00 -0.00000000000E+00 -0.45593999997E+02  0.45594000000E+02  0.51100000000E-03 0.  1.
         23    2    1    2    0    0 -0.44408920985E-15 -0.71054273576E-14  0.00000000000E+00  0.91188000000E+02  0.91188000000E+02 0.  0.
    9900012    2    3    3    0    0 -0.13617961587E+01 -0.34048048537E+02 -0.13951941917E+02  0.54367071424E+02  0.39999970925E+02 0.  0.
        -12    1    3    3    0    0  0.13617961587E+01  0.34048048537E+02  0.13951941917E+02  0.36820928576E+02  0.00000000000E+00 0.  1.
         11    1    4    4    0    0  0.37014770586E+01 -0.33893458080E+02  0.26659043523E+01  0.34199042082E+02  0.51100000000E-03 0. -1.
        -11    1    4    4    0    0 -0.74606544008E+01  0.12281129864E+01 -0.75415385999E+01  0.10679158689E+02  0.51100000000E-03 0.  1.
         12    1    4    4    0    0  0.23973811835E+01 -0.13827034433E+01 -0.90763076697E+01  0.94888706528E+01  0.00000000000E+00 0. -1.
</event>
<event>
 8    1  0.1253703E-006  0.9118800E+02  0.7816164E-02  0.1184000E+00
        -11   -1    0    0    0    0  0.00000000000E+00  0.00000000000E+00  0.45593999997E+02  0.45594000000E+02  0.51100000000E-03 0. -1.
         11   -1    0    0    0    0 -0.00000000000E+00 -0.00000000000E+00 -0.45593999997E+02  0.45594000000E+02  0.51100000000E-03 0.  1.
         23    2    1    2    0    0  0.71054273576E-14 -0.17763568394E-14 -0.35527136788E-14  0.91188000000E+02  0.91188000000E+02 0.  0.
    9900012    2    3    3    0    0  0.32391040725E+02 -0.12219890744E+02 -0.12540950883E+02  0.54367072552E+02  0.39999973497E+02 0.  0.
         12    1    3    3    0    0 -0.32391040725E+02  0.12219890744E+02  0.12540950883E+02  0.36820927448E+02  0.00000000000E+00 0. -1.
         11    1    4    4    0    0  0.13246200031E+02 -0.15084755673E+02  0.16235415665E+01  0.20140694041E+02  0.51100000000E-03 0. -1.
        -11    1    4    4    0    0  0.75071061157E+01 -0.80251546472E+01  0.23904325186E+01  0.11246062299E+02  0.51100000000E-03 0.  1.
        -12    1    4    4    0    0  0.11637734579E+02  0.10890019577E+02 -0.16554924968E+02  0.22980316212E+02  0.00000000000E+00 0.  1.
</event>
<event>
 8    1  0.1253703E-006  0.9118800E+02  0.7816164E-02  0.1184000E+00
        -11   -1    0    0    0    0  0.00000000000E+00  0.00000000000E+00  0.45593999997E+02  0.45594000000E+02  0.51100000000E-03 0. -1.
         11   -1    0    0    0    0 -0.00000000000E+00 -0.00000000000E+00 -0.45593999997E+02  0.45594000000E+02  0.51100000000E-03 0.  1.
         23    2    1    2    0    0  0.00000000000E+00  0.00000000000E+00  0.00000000000E+00  0.91188000000E+02  0.91188000000E+02 0.  0.
    9900012    2    3    3    0    0 -0.12181396867E+02 -0.28485639599E+02  0.19898659527E+02  0.54367153405E+02  0.40000157817E+02 0.  0.
        -12    1    3    3    0    0  0.12181396867E+02  0.28485639599E+02 -0.19898659527E+02  0.36820846595E+02  0.00000000000E+00 0.  1.
         11    1    4    4    0    0 -0.87237782639E+01 -0.11952386810E+02  0.25024194302E+02  0.29071879168E+02  0.51100000000E-03 0. -1.
        -11    1    4    4    0    0 -0.89792763813E+01 -0.78515451366E+01 -0.82957669349E+01  0.14529071363E+02  0.51100000000E-03 0.  1.
         12    1    4    4    0    0  0.55216577782E+01 -0.86817076528E+01  0.31702321604E+01  0.10766202875E+02  0.00000000000E+00 0. -1.
</event>
<event>
 8    1  0.1253703E-006  0.9118800E+02  0.7816164E-02  0.1184000E+00
        -11   -1    0    0    0    0  0.00000000000E+00  0.00000000000E+00  0.45593999997E+02  0.45594000000E+02  0.51100000000E-03 0.  1.
         11   -1    0    0    0    0 -0.00000000000E+00 -0.00000000000E+00 -0.45593999997E+02  0.45594000000E+02  0.51100000000E-03 0. -1.
         23    2    1    2    0    0  0.00000000000E+00  0.71054273576E-14  0.00000000000E+00  0.91188000000E+02  0.91188000000E+02 0.  0.
    9900012    2    3    3    0    0 -0.21151959227E+01 -0.32823149238E+02  0.16551319783E+02  0.54367090637E+02  0.40000014726E+02 0.  0.
         12    1    3    3    0    0  0.21151959227E+01  0.32823149238E+02 -0.16551319783E+02  0.36820909363E+02  0.00000000000E+00 0. -1.
         11    1    4    4    0    0 -0.51313584842E+01  0.74247108382E+01 -0.22014202206E+01  0.92899635184E+01  0.51100000000E-03 0. -1.
        -11    1    4    4    0    0 -0.23291940976E+01 -0.14010547136E+02  0.70228462269E+01  0.15844271696E+02  0.51100000000E-03 0.  1.
         12    1    4    4    0    0  0.53453566591E+01 -0.26237312940E+02  0.11729893777E+02  0.29232855423E+02  0.00000000000E+00 0. -1.
</event>
<event>
 8    1  0.1253703E-006  0.9118800E+02  0.7816164E-02  0.1184000E+00
        -11   -1    0    0    0    0  0.00000000000E+00  0.00000000000E+00  0.45593999997E+02  0.45594000000E+02  0.51100000000E-03 0.  1.
         11   -1    0    0    0    0 -0.00000000000E+00 -0.00000000000E+00 -0.45593999997E+02  0.45594000000E+02  0.51100000000E-03 0. -1.
         23    2    1    2    0    0  0.35527136788E-14  0.00000000000E+00  0.00000000000E+00  0.91188000000E+02  0.91188000000E+02 0.  0.
    9900012    2    3    3    0    0  0.22482676807E+02 -0.63305402694E+01  0.28464880834E+02  0.54366865615E+02  0.39999501740E+02 0.  0.
         12    1    3    3    0    0 -0.22482676807E+02  0.63305402694E+01 -0.28464880834E+02  0.36821134385E+02  0.00000000000E+00 0. -1.
         11    1    4    4    0    0 -0.52097016360E+01  0.25540517737E+01  0.49448466741E+01  0.76233641190E+01  0.51100000000E-03 0. -1.
        -11    1    4    4    0    0  0.19416386509E+01 -0.13191214968E+02  0.33400467276E+01  0.13745327402E+02  0.51100000000E-03 0.  1.
         12    1    4    4    0    0  0.25750739792E+02  0.43066229245E+01  0.20179987432E+02  0.32998174095E+02  0.00000000000E+00 0. -1.
</event>
<event>
 8    1  0.1253703E-006  0.9118800E+02  0.7816164E-02  0.1184000E+00
        -11   -1    0    0    0    0  0.00000000000E+00  0.00000000000E+00  0.45593999997E+02  0.45594000000E+02  0.51100000000E-03 0.  1.
         11   -1    0    0    0    0 -0.00000000000E+00 -0.00000000000E+00 -0.45593999997E+02  0.45594000000E+02  0.51100000000E-03 0. -1.
         23    2    1    2    0    0  0.00000000000E+00  0.17763568394E-14  0.00000000000E+00  0.91188000000E+02  0.91188000000E+02 0.  0.
    9900012    2    3    3    0    0  0.10521863511E+01  0.88232871428E+01 -0.35732646338E+02  0.54367088734E+02  0.40000010387E+02 0.  0.
        -12    1    3    3    0    0 -0.10521863511E+01 -0.88232871428E+01  0.35732646338E+02  0.36820911266E+02  0.00000000000E+00 0.  1.
         11    1    4    4    0    0 -0.46014463323E+01 -0.42742964443E+01 -0.10531924196E+02  0.12262314054E+02  0.51100000000E-03 0. -1.
        -11    1    4    4    0    0 -0.21653177802E+01 -0.92775989657E+01 -0.10665401174E+02  0.14300812079E+02  0.51100000000E-03 0.  1.
         12    1    4    4    0    0  0.78189504636E+01  0.22375182553E+02 -0.14535320969E+02  0.27803962601E+02  0.00000000000E+00 0. -1.
</event>
<event>
 8    1  0.1253703E-006  0.9118800E+02  0.7816164E-02  0.1184000E+00
        -11   -1    0    0    0    0  0.00000000000E+00  0.00000000000E+00  0.45593999997E+02  0.45594000000E+02  0.51100000000E-03 0. -1.
         11   -1    0    0    0    0 -0.00000000000E+00 -0.00000000000E+00 -0.45593999997E+02  0.45594000000E+02  0.51100000000E-03 0.  1.
         23    2    1    2    0    0  0.35527136788E-14  0.00000000000E+00 -0.17763568394E-14  0.91188000000E+02  0.91188000000E+02 0.  0.
    9900012    2    3    3    0    0 -0.22592133749E+02 -0.26813327159E+02  0.11243911715E+02  0.54367019957E+02  0.39999853595E+02 0.  0.
         12    1    3    3    0    0  0.22592133749E+02  0.26813327159E+02 -0.11243911715E+02  0.36820980043E+02  0.00000000000E+00 0. -1.
         11    1    4    4    0    0 -0.38045582916E+01 -0.14188578565E+02 -0.12578803644E+02  0.19339512063E+02  0.51100000000E-03 0. -1.
        -11    1    4    4    0    0 -0.64725077262E+01 -0.10511520226E+02  0.74026332884E+01  0.14393901263E+02  0.51100000000E-03 0.  1.
         12    1    4    4    0    0 -0.12315067731E+02 -0.21132283689E+01  0.16420082070E+02  0.20633606630E+02  0.00000000000E+00 0. -1.
</event>
<event>
 8    1  0.1253703E-006  0.9118800E+02  0.7816164E-02  0.1184000E+00
        -11   -1    0    0    0    0  0.00000000000E+00  0.00000000000E+00  0.45593999997E+02  0.45594000000E+02  0.51100000000E-03 0.  1.
         11   -1    0    0    0    0 -0.00000000000E+00 -0.00000000000E+00 -0.45593999997E+02  0.45594000000E+02  0.51100000000E-03 0. -1.
         23    2    1    2    0    0  0.00000000000E+00 -0.35527136788E-14  0.00000000000E+00  0.91188000000E+02  0.91188000000E+02 0.  0.
    9900012    2    3    3    0    0 -0.18353208486E+02  0.22627276609E+02 -0.22515466021E+02  0.54367080421E+02  0.39999991437E+02 0.  0.
         12    1    3    3    0    0  0.18353208486E+02 -0.22627276609E+02  0.22515466021E+02  0.36820919579E+02  0.00000000000E+00 0. -1.
         11    1    4    4    0    0 -0.29857704465E+01  0.17872885588E+02 -0.13137240789E+02  0.22381732735E+02  0.51100000000E-03 0. -1.
        -11    1    4    4    0    0  0.93437404319E+00 -0.25099880491E+01  0.71656267754E+01  0.76497909909E+01  0.51100000000E-03 0.  1.
        -12    1    4    4    0    0 -0.16301812083E+02  0.72643790706E+01 -0.16543852007E+02  0.24335556696E+02  0.00000000000E+00 0.  1.
</event>
<event>
 8    1  0.1253703E-006  0.9118800E+02  0.7816164E-02  0.1184000E+00
        -11   -1    0    0    0    0  0.00000000000E+00  0.00000000000E+00  0.45593999997E+02  0.45594000000E+02  0.51100000000E-03 0.  1.
         11   -1    0    0    0    0 -0.00000000000E+00 -0.00000000000E+00 -0.45593999997E+02  0.45594000000E+02  0.51100000000E-03 0. -1.
         23    2    1    2    0    0  0.71054273576E-14  0.00000000000E+00  0.00000000000E+00  0.91188000000E+02  0.91188000000E+02 0.  0.
    9900012    2    3    3    0    0 -0.32129729618E+02 -0.16922637832E+02  0.60896617547E+01  0.54367093210E+02  0.40000020591E+02 0.  0.
         12    1    3    3    0    0  0.32129729618E+02  0.16922637832E+02 -0.60896617547E+01  0.36820906790E+02  0.00000000000E+00 0. -1.
         11    1    4    4    0    0 -0.75850382226E+01 -0.16807702032E+02  0.19914282730E+01  0.18547167958E+02  0.51100000000E-03 0. -1.
        -11    1    4    4    0    0 -0.19257696841E+02 -0.11657651633E+02  0.10756762100E+00  0.22511581470E+02  0.51100000000E-03 0.  1.
         12    1    4    4    0    0 -0.52869945544E+01  0.11542715833E+02  0.39906658607E+01  0.13308343782E+02  0.00000000000E+00 0. -1.
</event>
<event>
 8    1  0.1253703E-006  0.9118800E+02  0.7816164E-02  0.1184000E+00
        -11   -1    0    0    0    0  0.00000000000E+00  0.00000000000E+00  0.45593999997E+02  0.45594000000E+02  0.51100000000E-03 0.  1.
         11   -1    0    0    0    0 -0.00000000000E+00 -0.00000000000E+00 -0.45593999997E+02  0.45594000000E+02  0.51100000000E-03 0. -1.
         23    2    1    2    0    0  0.22204460493E-15  0.44408920985E-15 -0.71054273576E-14  0.91188000000E+02  0.91188000000E+02 0.  0.
    9900012    2    3    3    0    0  0.15244201231E+01 -0.27108083208E+01 -0.36689371166E+02  0.54367050867E+02  0.39999924062E+02 0.  0.
        -12    1    3    3    0    0 -0.15244201231E+01  0.27108083208E+01  0.36689371166E+02  0.36820949133E+02  0.00000000000E+00 0.  1.
         11    1    4    4    0    0  0.76852104505E+01 -0.89562313557E-01 -0.13802773942E+02  0.15798324273E+02  0.51100000000E-03 0. -1.
        -11    1    4    4    0    0 -0.16914948228E+02  0.21856885624E+01 -0.62090521124E+01  0.18150620828E+02  0.51100000000E-03 0.  1.
        -12    1    4    4    0    0  0.10754157901E+02 -0.48069345696E+01 -0.16677545111E+02  0.20418105766E+02  0.00000000000E+00 0.  1.
</event>
<event>
 8    1  0.1253703E-006  0.9118800E+02  0.7816164E-02  0.1184000E+00
        -11   -1    0    0    0    0  0.00000000000E+00  0.00000000000E+00  0.45593999997E+02  0.45594000000E+02  0.51100000000E-03 0.  1.
         11   -1    0    0    0    0 -0.00000000000E+00 -0.00000000000E+00 -0.45593999997E+02  0.45594000000E+02  0.51100000000E-03 0. -1.
         23    2    1    2    0    0  0.00000000000E+00  0.17763568394E-14  0.17763568394E-14  0.91188000000E+02  0.91188000000E+02 0.  0.
    9900012    2    3    3    0    0  0.31182454478E+02  0.12455353989E+02  0.15109556476E+02  0.54367081935E+02  0.39999994887E+02 0.  0.
        -12    1    3    3    0    0 -0.31182454478E+02 -0.12455353989E+02 -0.15109556476E+02  0.36820918065E+02  0.00000000000E+00 0.  1.
         11    1    4    4    0    0  0.11139138188E+01  0.18787655540E+02  0.32583718254E+01  0.19100622814E+02  0.51100000000E-03 0. -1.
        -11    1    4    4    0    0  0.45499955836E+01 -0.60583471599E+01  0.14817917791E+01  0.77202161407E+01  0.51100000000E-03 0.  1.
         12    1    4    4    0    0  0.25518545076E+02 -0.27395439058E+00  0.10369392871E+02  0.27546242980E+02  0.00000000000E+00 0. -1.
</event>
<event>
 8    1  0.1253703E-006  0.9118800E+02  0.7816164E-02  0.1184000E+00
        -11   -1    0    0    0    0  0.00000000000E+00  0.00000000000E+00  0.45593999997E+02  0.45594000000E+02  0.51100000000E-03 0. -1.
         11   -1    0    0    0    0 -0.00000000000E+00 -0.00000000000E+00 -0.45593999997E+02  0.45594000000E+02  0.51100000000E-03 0.  1.
         23    2    1    2    0    0  0.00000000000E+00  0.00000000000E+00  0.00000000000E+00  0.91188000000E+02  0.91188000000E+02 0.  0.
    9900012    2    3    3    0    0 -0.21455311549E+02  0.10073819675E+02 -0.28177413449E+02  0.54367097442E+02  0.40000030239E+02 0.  0.
         12    1    3    3    0    0  0.21455311549E+02 -0.10073819675E+02  0.28177413449E+02  0.36820902558E+02  0.00000000000E+00 0. -1.
         11    1    4    4    0    0 -0.37694044876E+00 -0.54130938289E+01 -0.17568599359E+02  0.18387478146E+02  0.51100000000E-03 0. -1.
        -11    1    4    4    0    0  0.23284587057E+01 -0.35170188280E+01 -0.16163085957E+01  0.45170338850E+01  0.51100000000E-03 0.  1.
         12    1    4    4    0    0 -0.23406829806E+02  0.19003932332E+02 -0.89925054945E+01  0.31462585411E+02  0.00000000000E+00 0. -1.
</event>
<event>
 8    1  0.1253703E-006  0.9118800E+02  0.7816164E-02  0.1184000E+00
        -11   -1    0    0    0    0  0.00000000000E+00  0.00000000000E+00  0.45593999997E+02  0.45594000000E+02  0.51100000000E-03 0.  1.
         11   -1    0    0    0    0 -0.00000000000E+00 -0.00000000000E+00 -0.45593999997E+02  0.45594000000E+02  0.51100000000E-03 0. -1.
         23    2    1    2    0    0  0.00000000000E+00  0.00000000000E+00 -0.35527136788E-14  0.91188000000E+02  0.91188000000E+02 0.  0.
    9900012    2    3    3    0    0 -0.23265752876E+02 -0.17349681397E+01 -0.28486349350E+02  0.54367116380E+02  0.40000073410E+02 0.  0.
        -12    1    3    3    0    0  0.23265752876E+02  0.17349681397E+01  0.28486349350E+02  0.36820883620E+02  0.00000000000E+00 0.  1.
         11    1    4    4    0    0 -0.40204802387E+01  0.48461895352E+01 -0.13911322133E+02  0.15270058877E+02  0.51100000000E-03 0. -1.
        -11    1    4    4    0    0  0.22343249371E+01 -0.12994469288E+02 -0.18325528509E+01  0.13311900323E+02  0.51100000000E-03 0.  1.
         12    1    4    4    0    0 -0.21479597574E+02  0.64133116130E+01 -0.12742474365E+02  0.25785157179E+02  0.00000000000E+00 0. -1.
</event>
<event>
 8    1  0.1253703E-006  0.9118800E+02  0.7816164E-02  0.1184000E+00
        -11   -1    0    0    0    0  0.00000000000E+00  0.00000000000E+00  0.45593999997E+02  0.45594000000E+02  0.51100000000E-03 0.  1.
         11   -1    0    0    0    0 -0.00000000000E+00 -0.00000000000E+00 -0.45593999997E+02  0.45594000000E+02  0.51100000000E-03 0. -1.
         23    2    1    2    0    0  0.00000000000E+00  0.00000000000E+00  0.00000000000E+00  0.91188000000E+02  0.91188000000E+02 0.  0.
    9900012    2    3    3    0    0 -0.17896286280E+02 -0.31263173858E+02 -0.76235551188E+01  0.54367059016E+02  0.39999942639E+02 0.  0.
        -12    1    3    3    0    0  0.17896286280E+02  0.31263173858E+02  0.76235551188E+01  0.36820940984E+02  0.00000000000E+00 0.  1.
         11    1    4    4    0    0  0.69482341876E+01 -0.16828384271E+02  0.89454741389E+01  0.20285314475E+02  0.51100000000E-03 0. -1.
        -11    1    4    4    0    0 -0.14272279076E+02 -0.58808023581E+01 -0.49964079976E+01  0.16224853760E+02  0.51100000000E-03 0.  1.
        -12    1    4    4    0    0 -0.10572241391E+02 -0.85539872288E+01 -0.11572621260E+02  0.17856890781E+02  0.00000000000E+00 0.  1.
</event>
<event>
 8    1  0.1253703E-006  0.9118800E+02  0.7816164E-02  0.1184000E+00
        -11   -1    0    0    0    0  0.00000000000E+00  0.00000000000E+00  0.45593999997E+02  0.45594000000E+02  0.51100000000E-03 0.  1.
         11   -1    0    0    0    0 -0.00000000000E+00 -0.00000000000E+00 -0.45593999997E+02  0.45594000000E+02  0.51100000000E-03 0. -1.
         23    2    1    2    0    0  0.17763568394E-14  0.00000000000E+00  0.00000000000E+00  0.91188000000E+02  0.91188000000E+02 0.  0.
    9900012    2    3    3    0    0  0.11684070944E+02 -0.34502195568E+02  0.53722546359E+01  0.54367080230E+02  0.39999990999E+02 0.  0.
         12    1    3    3    0    0 -0.11684070944E+02  0.34502195568E+02 -0.53722546359E+01  0.36820919770E+02  0.00000000000E+00 0. -1.
         11    1    4    4    0    0  0.22971876616E+01 -0.44930666205E+01  0.14921206829E+02  0.15751416835E+02  0.51100000000E-03 0. -1.
        -11    1    4    4    0    0 -0.33293386209E+01  0.12176932432E+01 -0.19774897212E+01  0.40592780572E+01  0.51100000000E-03 0.  1.
         12    1    4    4    0    0  0.12716221903E+02 -0.31226822191E+02 -0.75714624718E+01  0.34556385338E+02  0.00000000000E+00 0. -1.
</event>
<event>
 8    1  0.1253703E-006  0.9118800E+02  0.7816164E-02  0.1184000E+00
        -11   -1    0    0    0    0  0.00000000000E+00  0.00000000000E+00  0.45593999997E+02  0.45594000000E+02  0.51100000000E-03 0.  1.
         11   -1    0    0    0    0 -0.00000000000E+00 -0.00000000000E+00 -0.45593999997E+02  0.45594000000E+02  0.51100000000E-03 0. -1.
         23    2    1    2    0    0  0.13322676296E-14 -0.71054273576E-14  0.00000000000E+00  0.91188000000E+02  0.91188000000E+02 0.  0.
    9900012    2    3    3    0    0 -0.31258757797E+01 -0.32876210481E+02 -0.16283850330E+02  0.54367080721E+02  0.39999992120E+02 0.  0.
        -12    1    3    3    0    0  0.31258757797E+01  0.32876210481E+02  0.16283850330E+02  0.36820919279E+02  0.00000000000E+00 0.  1.
         11    1    4    4    0    0 -0.84476848340E+01 -0.25619730483E+01 -0.14153739564E+02  0.16680990044E+02  0.51100000000E-03 0. -1.
        -11    1    4    4    0    0  0.13511596565E+02 -0.22617273147E+02 -0.22971472342E+01  0.26445815775E+02  0.51100000000E-03 0.  1.
        -12    1    4    4    0    0 -0.81897875110E+01 -0.76969642856E+01  0.16703646738E+00  0.11240274902E+02  0.00000000000E+00 0.  1.
</event>
<event>
 8    1  0.1253703E-006  0.9118800E+02  0.7816164E-02  0.1184000E+00
        -11   -1    0    0    0    0  0.00000000000E+00  0.00000000000E+00  0.45593999997E+02  0.45594000000E+02  0.51100000000E-03 0. -1.
         11   -1    0    0    0    0 -0.00000000000E+00 -0.00000000000E+00 -0.45593999997E+02  0.45594000000E+02  0.51100000000E-03 0.  1.
         23    2    1    2    0    0  0.00000000000E+00  0.00000000000E+00  0.00000000000E+00  0.91188000000E+02  0.91188000000E+02 0.  0.
    9900012    2    3    3    0    0  0.23975763961E+02  0.23038869596E+02 -0.15816006513E+02  0.54367179371E+02  0.40000217012E+02 0.  0.
         12    1    3    3    0    0 -0.23975763961E+02 -0.23038869596E+02  0.15816006513E+02  0.36820820629E+02  0.00000000000E+00 0. -1.
         11    1    4    4    0    0  0.17769723406E+01  0.29256018256E+01 -0.13906385120E+02  0.14321463756E+02  0.51100000000E-03 0. -1.
        -11    1    4    4    0    0  0.14905787708E+02  0.25192600924E+02  0.37469080916E+01  0.29510827996E+02  0.51100000000E-03 0.  1.
         12    1    4    4    0    0  0.72930039119E+01 -0.50793331534E+01 -0.56565294844E+01  0.10534887619E+02  0.00000000000E+00 0. -1.
</event>
<event>
 8    1  0.1253703E-006  0.9118800E+02  0.7816164E-02  0.1184000E+00
        -11   -1    0    0    0    0  0.00000000000E+00  0.00000000000E+00  0.45593999997E+02  0.45594000000E+02  0.51100000000E-03 0.  1.
         11   -1    0    0    0    0 -0.00000000000E+00 -0.00000000000E+00 -0.45593999997E+02  0.45594000000E+02  0.51100000000E-03 0. -1.
         23    2    1    2    0    0  0.17763568394E-14  0.00000000000E+00  0.00000000000E+00  0.91188000000E+02  0.91188000000E+02 0.  0.
    9900012    2    3    3    0    0  0.89041478658E+01 -0.12215991283E+02  0.33574762002E+02  0.54367096484E+02  0.40000028055E+02 0.  0.
         12    1    3    3    0    0 -0.89041478658E+01  0.12215991283E+02 -0.33574762002E+02  0.36820903516E+02  0.00000000000E+00 0. -1.
         11    1    4    4    0    0  0.11421305031E+02 -0.97849181825E+01  0.99347310860E+01  0.18024697348E+02  0.51100000000E-03 0. -1.
        -11    1    4    4    0    0  0.87814286052E+01 -0.56225182251E+00  0.23276832021E+02  0.24884543891E+02  0.51100000000E-03 0.  1.
         12    1    4    4    0    0 -0.11298585771E+02 -0.18688212782E+01  0.36319889429E+00  0.11457855246E+02  0.00000000000E+00 0. -1.
</event>
<event>
 8    1  0.1253703E-006  0.9118800E+02  0.7816164E-02  0.1184000E+00
        -11   -1    0    0    0    0  0.00000000000E+00  0.00000000000E+00  0.45593999997E+02  0.45594000000E+02  0.51100000000E-03 0.  1.
         11   -1    0    0    0    0 -0.00000000000E+00 -0.00000000000E+00 -0.45593999997E+02  0.45594000000E+02  0.51100000000E-03 0. -1.
         23    2    1    2    0    0 -0.35527136788E-14  0.35527136788E-14 -0.71054273576E-14  0.91188000000E+02  0.91188000000E+02 0.  0.
    9900012    2    3    3    0    0 -0.17486571236E+02  0.14314468078E+02 -0.29070547724E+02  0.54367069608E+02  0.39999966786E+02 0.  0.
        -12    1    3    3    0    0  0.17486571236E+02 -0.14314468078E+02  0.29070547724E+02  0.36820930392E+02  0.00000000000E+00 0.  1.
         11    1    4    4    0    0  0.28173534795E+01  0.96156970620E+01 -0.32015648037E+01  0.10518988928E+02  0.51100000000E-03 0. -1.
        -11    1    4    4    0    0  0.65786188805E+01  0.50466087376E+01 -0.82990753204E+01  0.11731203585E+02  0.51100000000E-03 0.  1.
        -12    1    4    4    0    0 -0.26882543596E+02 -0.34783772179E+00 -0.17569907600E+02  0.32116877095E+02  0.00000000000E+00 0.  1.
</event>
<event>
 8    1  0.1253703E-006  0.9118800E+02  0.7816164E-02  0.1184000E+00
        -11   -1    0    0    0    0  0.00000000000E+00  0.00000000000E+00  0.45593999997E+02  0.45594000000E+02  0.51100000000E-03 0.  1.
         11   -1    0    0    0    0 -0.00000000000E+00 -0.00000000000E+00 -0.45593999997E+02  0.45594000000E+02  0.51100000000E-03 0. -1.
         23    2    1    2    0    0 -0.17763568394E-14  0.00000000000E+00 -0.13322676296E-14  0.91188000000E+02  0.91188000000E+02 0.  0.
    9900012    2    3    3    0    0 -0.99145665419E+01  0.35288304877E+02  0.34948128509E+01  0.54367125381E+02  0.40000093931E+02 0.  0.
         12    1    3    3    0    0  0.99145665419E+01 -0.35288304877E+02 -0.34948128509E+01  0.36820874619E+02  0.00000000000E+00 0. -1.
         11    1    4    4    0    0 -0.50567934921E+01  0.78097306697E+01 -0.10495136629E+02  0.14025367970E+02  0.51100000000E-03 0. -1.
        -11    1    4    4    0    0  0.85303658443E+01  0.16983016724E+02  0.13520270143E+02  0.23323543973E+02  0.51100000000E-03 0.  1.
        -12    1    4    4    0    0 -0.13388138894E+02  0.10495557484E+02  0.46967933736E+00  0.17018213438E+02  0.00000000000E+00 0.  1.
</event>
<event>
 8    1  0.1253703E-006  0.9118800E+02  0.7816164E-02  0.1184000E+00
        -11   -1    0    0    0    0  0.00000000000E+00  0.00000000000E+00  0.45593999997E+02  0.45594000000E+02  0.51100000000E-03 0.  1.
         11   -1    0    0    0    0 -0.00000000000E+00 -0.00000000000E+00 -0.45593999997E+02  0.45594000000E+02  0.51100000000E-03 0. -1.
         23    2    1    2    0    0 -0.35527136788E-14 -0.71054273576E-14  0.00000000000E+00  0.91188000000E+02  0.91188000000E+02 0.  0.
    9900012    2    3    3    0    0  0.19602442487E+02  0.29755504437E+02 -0.92808316382E+01  0.54367087034E+02  0.40000006512E+02 0.  0.
        -12    1    3    3    0    0 -0.19602442487E+02 -0.29755504437E+02  0.92808316382E+01  0.36820912966E+02  0.00000000000E+00 0.  1.
         11    1    4    4    0    0  0.98074126513E+01  0.10624236915E+02 -0.18727179919E+02  0.23659396039E+02  0.51100000000E-03 0. -1.
        -11    1    4    4    0    0  0.27682921698E+01 -0.40908274948E+01  0.12058201441E+01  0.50845170479E+01  0.51100000000E-03 0.  1.
        -12    1    4    4    0    0  0.70267376657E+01  0.23222095017E+02  0.82405281368E+01  0.25623173948E+02  0.00000000000E+00 0.  1.
</event>
<event>
 8    1  0.1253703E-006  0.9118800E+02  0.7816164E-02  0.1184000E+00
        -11   -1    0    0    0    0  0.00000000000E+00  0.00000000000E+00  0.45593999997E+02  0.45594000000E+02  0.51100000000E-03 0.  1.
         11   -1    0    0    0    0 -0.00000000000E+00 -0.00000000000E+00 -0.45593999997E+02  0.45594000000E+02  0.51100000000E-03 0. -1.
         23    2    1    2    0    0 -0.35527136788E-14 -0.88817841970E-15  0.00000000000E+00  0.91188000000E+02  0.91188000000E+02 0.  0.
    9900012    2    3    3    0    0  0.26806040922E+02  0.65824157135E+01  0.24369906204E+02  0.54367022896E+02  0.39999860295E+02 0.  0.
         12    1    3    3    0    0 -0.26806040922E+02 -0.65824157135E+01 -0.24369906204E+02  0.36820977104E+02  0.00000000000E+00 0. -1.
         11    1    4    4    0    0  0.42284912080E+01 -0.60851805269E+01  0.21025381367E+01  0.77026116882E+01  0.51100000000E-03 0. -1.
        -11    1    4    4    0    0  0.30713132859E+02  0.85103381929E+01  0.17511264338E+02  0.36364361195E+02  0.51100000000E-03 0.  1.
         12    1    4    4    0    0 -0.81355831445E+01  0.41572580475E+01  0.47561037290E+01  0.10300050012E+02  0.00000000000E+00 0. -1.
</event>
<event>
 8    1  0.1253703E-006  0.9118800E+02  0.7816164E-02  0.1184000E+00
        -11   -1    0    0    0    0  0.00000000000E+00  0.00000000000E+00  0.45593999997E+02  0.45594000000E+02  0.51100000000E-03 0. -1.
         11   -1    0    0    0    0 -0.00000000000E+00 -0.00000000000E+00 -0.45593999997E+02  0.45594000000E+02  0.51100000000E-03 0.  1.
         23    2    1    2    0    0 -0.17763568394E-14  0.00000000000E+00  0.17763568394E-14  0.91188000000E+02  0.91188000000E+02 0.  0.
    9900012    2    3    3    0    0  0.86880090853E+01 -0.34550942637E+02  0.93021775996E+01  0.54367086825E+02  0.40000006034E+02 0.  0.
        -12    1    3    3    0    0 -0.86880090853E+01  0.34550942637E+02 -0.93021775996E+01  0.36820913175E+02  0.00000000000E+00 0.  1.
         11    1    4    4    0    0 -0.29332664912E+01 -0.22463433699E+02  0.95483629333E+01  0.24584164432E+02  0.51100000000E-03 0. -1.
        -11    1    4    4    0    0 -0.66216359354E+01  0.17282799579E+01  0.70101389469E+00  0.68792757479E+01  0.51100000000E-03 0.  1.
        -12    1    4    4    0    0  0.18242911512E+02 -0.13815788896E+02 -0.94719922839E+00  0.22903646645E+02  0.00000000000E+00 0.  1.
</event>
<event>
 8    1  0.1253703E-006  0.9118800E+02  0.7816164E-02  0.1184000E+00
        -11   -1    0    0    0    0  0.00000000000E+00  0.00000000000E+00  0.45593999997E+02  0.45594000000E+02  0.51100000000E-03 0.  1.
         11   -1    0    0    0    0 -0.00000000000E+00 -0.00000000000E+00 -0.45593999997E+02  0.45594000000E+02  0.51100000000E-03 0. -1.
         23    2    1    2    0    0  0.00000000000E+00  0.00000000000E+00  0.00000000000E+00  0.91188000000E+02  0.91188000000E+02 0.  0.
    9900012    2    3    3    0    0 -0.28781211806E+02  0.12522121648E+02 -0.19251461377E+02  0.54367075938E+02  0.39999981217E+02 0.  0.
        -12    1    3    3    0    0  0.28781211806E+02 -0.12522121648E+02  0.19251461377E+02  0.36820924062E+02  0.00000000000E+00 0.  1.
         11    1    4    4    0    0 -0.12537178219E+01  0.13475313015E+02 -0.61562664914E+01  0.14867934846E+02  0.51100000000E-03 0. -1.
        -11    1    4    4    0    0 -0.14302310251E+02  0.72382602263E+01  0.38608294669E+01  0.16488010615E+02  0.51100000000E-03 0.  1.
         12    1    4    4    0    0 -0.13225183734E+02 -0.81914515930E+01 -0.16956024352E+02  0.23011130477E+02  0.00000000000E+00 0. -1.
</event>
<event>
 8    1  0.1253703E-006  0.9118800E+02  0.7816164E-02  0.1184000E+00
        -11   -1    0    0    0    0  0.00000000000E+00  0.00000000000E+00  0.45593999997E+02  0.45594000000E+02  0.51100000000E-03 0. -1.
         11   -1    0    0    0    0 -0.00000000000E+00 -0.00000000000E+00 -0.45593999997E+02  0.45594000000E+02  0.51100000000E-03 0.  1.
         23    2    1    2    0    0  0.00000000000E+00  0.00000000000E+00  0.00000000000E+00  0.91188000000E+02  0.91188000000E+02 0.  0.
    9900012    2    3    3    0    0  0.16634008148E+02 -0.22732974661E+02 -0.23712967642E+02  0.54367038600E+02  0.39999896096E+02 0.  0.
        -12    1    3    3    0    0 -0.16634008148E+02  0.22732974661E+02  0.23712967642E+02  0.36820961400E+02  0.00000000000E+00 0.  1.
         11    1    4    4    0    0  0.41145292320E+01 -0.10293487435E+02  0.65307526578E+01  0.12866078070E+02  0.51100000000E-03 0. -1.
        -11    1    4    4    0    0  0.56018639276E+01 -0.12880103380E+02 -0.43623153662E+01  0.14707404195E+02  0.51100000000E-03 0.  1.
        -12    1    4    4    0    0  0.69176149888E+01  0.44061615304E+00 -0.25881404934E+02  0.26793556335E+02  0.00000000000E+00 0.  1.
</event>
<event>
 8    1  0.1253703E-006  0.9118800E+02  0.7816164E-02  0.1184000E+00
        -11   -1    0    0    0    0  0.00000000000E+00  0.00000000000E+00  0.45593999997E+02  0.45594000000E+02  0.51100000000E-03 0. -1.
         11   -1    0    0    0    0 -0.00000000000E+00 -0.00000000000E+00 -0.45593999997E+02  0.45594000000E+02  0.51100000000E-03 0.  1.
         23    2    1    2    0    0  0.00000000000E+00 -0.35527136788E-14  0.44408920985E-15  0.91188000000E+02  0.91188000000E+02 0.  0.
    9900012    2    3    3    0    0 -0.18187190096E+02  0.31853657535E+02 -0.32173592653E+01  0.54367071405E+02  0.39999970883E+02 0.  0.
        -12    1    3    3    0    0  0.18187190096E+02 -0.31853657535E+02  0.32173592653E+01  0.36820928595E+02  0.00000000000E+00 0.  1.
         11    1    4    4    0    0  0.68430879024E+01 -0.99568427416E+00 -0.91503926587E+00  0.69754237386E+01  0.51100000000E-03 0. -1.
        -11    1    4    4    0    0 -0.54166428586E+01 -0.24109492492E+01 -0.37536129098E+01  0.70172862473E+01  0.51100000000E-03 0.  1.
         12    1    4    4    0    0 -0.19613635140E+02  0.35260291058E+02  0.14512929104E+01  0.40374361419E+02  0.00000000000E+00 0. -1.
</event>
<event>
 8    1  0.1253703E-006  0.9118800E+02  0.7816164E-02  0.1184000E+00
        -11   -1    0    0    0    0  0.00000000000E+00  0.00000000000E+00  0.45593999997E+02  0.45594000000E+02  0.51100000000E-03 0. -1.
         11   -1    0    0    0    0 -0.00000000000E+00 -0.00000000000E+00 -0.45593999997E+02  0.45594000000E+02  0.51100000000E-03 0.  1.
         23    2    1    2    0    0  0.00000000000E+00  0.88817841970E-15 -0.88817841970E-15  0.91188000000E+02  0.91188000000E+02 0.  0.
    9900012    2    3    3    0    0  0.35411778814E+02 -0.78579091544E+01 -0.63277274898E+01  0.54367069129E+02  0.39999965693E+02 0.  0.
         12    1    3    3    0    0 -0.35411778814E+02  0.78579091544E+01  0.63277274898E+01  0.36820930871E+02  0.00000000000E+00 0. -1.
         11    1    4    4    0    0  0.11041658903E+02 -0.39882753237E+00  0.40180166012E+00  0.11056162968E+02  0.51100000000E-03 0.  1.
        -11    1    4    4    0    0  0.21037212678E+02 -0.13452837353E+02 -0.17535132246E+02  0.30512686103E+02  0.51100000000E-03 0. -1.
         12    1    4    4    0    0  0.33329072327E+01  0.59937557311E+01  0.10805603096E+02  0.12798220058E+02  0.00000000000E+00 0. -1.
</event>
<event>
 8    1  0.1253703E-006  0.9118800E+02  0.7816164E-02  0.1184000E+00
        -11   -1    0    0    0    0  0.00000000000E+00  0.00000000000E+00  0.45593999997E+02  0.45594000000E+02  0.51100000000E-03 0.  1.
         11   -1    0    0    0    0 -0.00000000000E+00 -0.00000000000E+00 -0.45593999997E+02  0.45594000000E+02  0.51100000000E-03 0. -1.
         23    2    1    2    0    0  0.00000000000E+00 -0.17763568394E-14 -0.17763568394E-14  0.91188000000E+02  0.91188000000E+02 0.  0.
    9900012    2    3    3    0    0 -0.32022835638E+02  0.11309317231E+02 -0.14227323862E+02  0.54367090142E+02  0.40000013597E+02 0.  0.
         12    1    3    3    0    0  0.32022835638E+02 -0.11309317231E+02  0.14227323862E+02  0.36820909858E+02  0.00000000000E+00 0. -1.
         11    1    4    4    0    0 -0.12606116226E+02 -0.63634200242E+01  0.31374625565E+01  0.14465509056E+02  0.51100000000E-03 0. -1.
        -11    1    4    4    0    0 -0.17710246427E+02  0.11868857516E+01 -0.14840343920E+02  0.23136493559E+02  0.51100000000E-03 0.  1.
        -12    1    4    4    0    0 -0.17064729849E+01  0.16485851504E+02 -0.25244424984E+01  0.16765087527E+02  0.00000000000E+00 0.  1.
</event>
<event>
 8    1  0.1253703E-006  0.9118800E+02  0.7816164E-02  0.1184000E+00
        -11   -1    0    0    0    0  0.00000000000E+00  0.00000000000E+00  0.45593999997E+02  0.45594000000E+02  0.51100000000E-03 0. -1.
         11   -1    0    0    0    0 -0.00000000000E+00 -0.00000000000E+00 -0.45593999997E+02  0.45594000000E+02  0.51100000000E-03 0.  1.
         23    2    1    2    0    0 -0.44408920985E-15  0.00000000000E+00  0.88817841970E-15  0.91188000000E+02  0.91188000000E+02 0.  0.
    9900012    2    3    3    0    0 -0.38006257716E+01 -0.35853928061E+02  0.74716454010E+01  0.54367158094E+02  0.40000168506E+02 0.  0.
         12    1    3    3    0    0  0.38006257716E+01  0.35853928061E+02 -0.74716454010E+01  0.36820841906E+02  0.00000000000E+00 0. -1.
         11    1    4    4    0    0 -0.15163669460E+01  0.22992815279E+01  0.50747212259E+01  0.57739812989E+01  0.51100000000E-03 0. -1.
        -11    1    4    4    0    0 -0.18691107997E+01 -0.94546082850E+01 -0.12874107774E+02  0.16081848285E+02  0.51100000000E-03 0.  1.
         12    1    4    4    0    0 -0.41514802584E+00 -0.28698601304E+02  0.15271031949E+02  0.32511328510E+02  0.00000000000E+00 0. -1.
</event>
<event>
 8    1  0.1253703E-006  0.9118800E+02  0.7816164E-02  0.1184000E+00
        -11   -1    0    0    0    0  0.00000000000E+00  0.00000000000E+00  0.45593999997E+02  0.45594000000E+02  0.51100000000E-03 0.  1.
         11   -1    0    0    0    0 -0.00000000000E+00 -0.00000000000E+00 -0.45593999997E+02  0.45594000000E+02  0.51100000000E-03 0. -1.
         23    2    1    2    0    0 -0.88817841970E-15  0.88817841970E-15  0.00000000000E+00  0.91188000000E+02  0.91188000000E+02 0.  0.
    9900012    2    3    3    0    0  0.74963054275E+01  0.44765206676E+01  0.35770743523E+02  0.54367083057E+02  0.39999997445E+02 0.  0.
         12    1    3    3    0    0 -0.74963054275E+01 -0.44765206676E+01 -0.35770743523E+02  0.36820916943E+02  0.00000000000E+00 0. -1.
         11    1    4    4    0    0  0.10132884917E+02 -0.13608886031E+02  0.59303389383E+01  0.17973482020E+02  0.51100000000E-03 0. -1.
        -11    1    4    4    0    0 -0.50371827602E+01  0.43882481099E+01  0.12428682049E+02  0.14110353269E+02  0.51100000000E-03 0.  1.
         12    1    4    4    0    0  0.24006032707E+01  0.13697158588E+02  0.17411722535E+02  0.22283247768E+02  0.00000000000E+00 0. -1.
</event>
<event>
 8    1  0.1253703E-006  0.9118800E+02  0.7816164E-02  0.1184000E+00
        -11   -1    0    0    0    0  0.00000000000E+00  0.00000000000E+00  0.45593999997E+02  0.45594000000E+02  0.51100000000E-03 0. -1.
         11   -1    0    0    0    0 -0.00000000000E+00 -0.00000000000E+00 -0.45593999997E+02  0.45594000000E+02  0.51100000000E-03 0.  1.
         23    2    1    2    0    0  0.00000000000E+00  0.00000000000E+00  0.35527136788E-14  0.91188000000E+02  0.91188000000E+02 0.  0.
    9900012    2    3    3    0    0  0.73595394786E+01  0.20883504543E+02  0.29419324351E+02  0.54367078928E+02  0.39999988033E+02 0.  0.
        -12    1    3    3    0    0 -0.73595394786E+01 -0.20883504543E+02 -0.29419324351E+02  0.36820921072E+02  0.00000000000E+00 0.  1.
         11    1    4    4    0    0  0.13712292198E+02 -0.15612224514E+01  0.23281226632E+02  0.27064365624E+02  0.51100000000E-03 0. -1.
        -11    1    4    4    0    0 -0.59379541422E+01  0.47423093616E+01  0.58549262778E+01  0.95931725438E+01  0.51100000000E-03 0.  1.
         12    1    4    4    0    0 -0.41479857685E+00  0.17702417632E+02  0.28317144065E+00  0.17709540761E+02  0.00000000000E+00 0. -1.
</event>
<event>
 8    1  0.1253703E-006  0.9118800E+02  0.7816164E-02  0.1184000E+00
        -11   -1    0    0    0    0  0.00000000000E+00  0.00000000000E+00  0.45593999997E+02  0.45594000000E+02  0.51100000000E-03 0.  1.
         11   -1    0    0    0    0 -0.00000000000E+00 -0.00000000000E+00 -0.45593999997E+02  0.45594000000E+02  0.51100000000E-03 0. -1.
         23    2    1    2    0    0  0.35527136788E-14  0.22204460493E-15  0.35527136788E-14  0.91188000000E+02  0.91188000000E+02 0.  0.
    9900012    2    3    3    0    0 -0.28171577015E+02  0.18386436207E+01 -0.23638083718E+02  0.54367117831E+02  0.40000076718E+02 0.  0.
        -12    1    3    3    0    0  0.28171577015E+02 -0.18386436207E+01  0.23638083718E+02  0.36820882169E+02  0.00000000000E+00 0.  1.
         11    1    4    4    0    0 -0.99908342534E+01  0.67692282129E+01 -0.14358310995E+02  0.18756340650E+02  0.51100000000E-03 0. -1.
        -11    1    4    4    0    0 -0.49639204074E+01 -0.11382201910E+02 -0.15312094481E+02  0.19714341576E+02  0.51100000000E-03 0.  1.
        -12    1    4    4    0    0 -0.13216822354E+02  0.64516173180E+01  0.60323217572E+01  0.15896435605E+02  0.00000000000E+00 0.  1.
</event>
<event>
 8    1  0.1253703E-006  0.9118800E+02  0.7816164E-02  0.1184000E+00
        -11   -1    0    0    0    0  0.00000000000E+00  0.00000000000E+00  0.45593999997E+02  0.45594000000E+02  0.51100000000E-03 0.  1.
         11   -1    0    0    0    0 -0.00000000000E+00 -0.00000000000E+00 -0.45593999997E+02  0.45594000000E+02  0.51100000000E-03 0. -1.
         23    2    1    2    0    0  0.35527136788E-14  0.00000000000E+00 -0.35527136788E-14  0.91188000000E+02  0.91188000000E+02 0.  0.
    9900012    2    3    3    0    0  0.26123833294E+02 -0.11347271927E+02 -0.23336006978E+02  0.54367021362E+02  0.39999856799E+02 0.  0.
        -12    1    3    3    0    0 -0.26123833294E+02  0.11347271927E+02  0.23336006978E+02  0.36820978638E+02  0.00000000000E+00 0.  1.
         11    1    4    4    0    0  0.16271949162E+02  0.70264031404E+01 -0.33100914843E+01  0.18030623298E+02  0.51100000000E-03 0. -1.
        -11    1    4    4    0    0  0.14025805365E+02 -0.16188060410E+02 -0.70785597668E+01  0.22558424693E+02  0.51100000000E-03 0.  1.
         12    1    4    4    0    0 -0.41739212335E+01 -0.21856146570E+01 -0.12947355727E+02  0.13777973371E+02  0.00000000000E+00 0. -1.
</event>
<event>
 8    1  0.1253703E-006  0.9118800E+02  0.7816164E-02  0.1184000E+00
        -11   -1    0    0    0    0  0.00000000000E+00  0.00000000000E+00  0.45593999997E+02  0.45594000000E+02  0.51100000000E-03 0.  1.
         11   -1    0    0    0    0 -0.00000000000E+00 -0.00000000000E+00 -0.45593999997E+02  0.45594000000E+02  0.51100000000E-03 0. -1.
         23    2    1    2    0    0  0.00000000000E+00 -0.72164496601E-15 -0.88817841970E-15  0.91188000000E+02  0.91188000000E+02 0.  0.
    9900012    2    3    3    0    0 -0.35983659735E+02  0.18695493251E+00 -0.78049396461E+01  0.54367139025E+02  0.40000125034E+02 0.  0.
        -12    1    3    3    0    0  0.35983659735E+02 -0.18695493251E+00  0.78049396461E+01  0.36820860975E+02  0.00000000000E+00 0.  1.
         11    1    4    4    0    0 -0.26653717712E+02  0.36898616447E+01  0.80673488739E+01  0.28091241783E+02  0.51100000000E-03 0. -1.
        -11    1    4    4    0    0 -0.22777898132E+01 -0.98313482395E+01 -0.34773092962E+01  0.10674053346E+02  0.51100000000E-03 0.  1.
         12    1    4    4    0    0 -0.70521522103E+01  0.63284415274E+01 -0.12394979224E+02  0.15601843895E+02  0.00000000000E+00 0. -1.
</event>
<event>
 8    1  0.1253703E-006  0.9118800E+02  0.7816164E-02  0.1184000E+00
        -11   -1    0    0    0    0  0.00000000000E+00  0.00000000000E+00  0.45593999997E+02  0.45594000000E+02  0.51100000000E-03 0.  1.
         11   -1    0    0    0    0 -0.00000000000E+00 -0.00000000000E+00 -0.45593999997E+02  0.45594000000E+02  0.51100000000E-03 0. -1.
         23    2    1    2    0    0  0.00000000000E+00  0.00000000000E+00  0.00000000000E+00  0.91188000000E+02  0.91188000000E+02 0.  0.
    9900012    2    3    3    0    0 -0.19122817640E+02  0.53615213280E+01  0.31005672374E+02  0.54367084954E+02  0.40000001770E+02 0.  0.
         12    1    3    3    0    0  0.19122817640E+02 -0.53615213280E+01 -0.31005672374E+02  0.36820915046E+02  0.00000000000E+00 0. -1.
         11    1    4    4    0    0 -0.64483268314E+01 -0.58771168239E+01  0.97531548699E+01  0.13086078529E+02  0.51100000000E-03 0. -1.
        -11    1    4    4    0    0 -0.22158871415E+02  0.22794013138E+01  0.14620428963E+02  0.26645228392E+02  0.51100000000E-03 0.  1.
         12    1    4    4    0    0  0.94843806064E+01  0.89592368381E+01  0.66320885413E+01  0.14635778033E+02  0.00000000000E+00 0. -1.
</event>
<event>
 8    1  0.1253703E-006  0.9118800E+02  0.7816164E-02  0.1184000E+00
        -11   -1    0    0    0    0  0.00000000000E+00  0.00000000000E+00  0.45593999997E+02  0.45594000000E+02  0.51100000000E-03 0. -1.
         11   -1    0    0    0    0 -0.00000000000E+00 -0.00000000000E+00 -0.45593999997E+02  0.45594000000E+02  0.51100000000E-03 0.  1.
         23    2    1    2    0    0 -0.17763568394E-14  0.00000000000E+00  0.00000000000E+00  0.91188000000E+02  0.91188000000E+02 0.  0.
    9900012    2    3    3    0    0  0.10443519142E+02  0.16980511304E+02 -0.30957626654E+02  0.54367088764E+02  0.40000010454E+02 0.  0.
         12    1    3    3    0    0 -0.10443519142E+02 -0.16980511304E+02  0.30957626654E+02  0.36820911236E+02  0.00000000000E+00 0. -1.
         11    1    4    4    0    0  0.70715327293E+01  0.58577212900E+00 -0.12985629448E+02  0.14797847024E+02  0.51100000000E-03 0. -1.
        -11    1    4    4    0    0  0.73888225214E+01  0.97473555929E+01 -0.25793480500E+02  0.28546615840E+02  0.51100000000E-03 0.  1.
        -12    1    4    4    0    0 -0.40168361090E+01  0.66473835825E+01  0.78214832937E+01  0.11022625900E+02  0.00000000000E+00 0.  1.
</event>
<event>
 8    1  0.1253703E-006  0.9118800E+02  0.7816164E-02  0.1184000E+00
        -11   -1    0    0    0    0  0.00000000000E+00  0.00000000000E+00  0.45593999997E+02  0.45594000000E+02  0.51100000000E-03 0. -1.
         11   -1    0    0    0    0 -0.00000000000E+00 -0.00000000000E+00 -0.45593999997E+02  0.45594000000E+02  0.51100000000E-03 0.  1.
         23    2    1    2    0    0 -0.13322676296E-14  0.26645352591E-14  0.00000000000E+00  0.91188000000E+02  0.91188000000E+02 0.  0.
    9900012    2    3    3    0    0  0.33125803892E+01  0.51918937036E+01  0.36302207179E+02  0.54367092962E+02  0.40000020025E+02 0.  0.
        -12    1    3    3    0    0 -0.33125803892E+01 -0.51918937036E+01 -0.36302207179E+02  0.36820907038E+02  0.00000000000E+00 0.  1.
         11    1    4    4    0    0 -0.83404239825E+01  0.13611698835E+02  0.16778424199E+02  0.23159372536E+02  0.51100000000E-03 0. -1.
        -11    1    4    4    0    0  0.12097632378E+02 -0.13354851804E+02  0.19062358730E+02  0.26231246567E+02  0.51100000000E-03 0.  1.
        -12    1    4    4    0    0 -0.44462800650E+00  0.49350466732E+01  0.46142424986E+00  0.49764738590E+01  0.00000000000E+00 0.  1.
</event>
<event>
 8    1  0.1253703E-006  0.9118800E+02  0.7816164E-02  0.1184000E+00
        -11   -1    0    0    0    0  0.00000000000E+00  0.00000000000E+00  0.45593999997E+02  0.45594000000E+02  0.51100000000E-03 0.  1.
         11   -1    0    0    0    0 -0.00000000000E+00 -0.00000000000E+00 -0.45593999997E+02  0.45594000000E+02  0.51100000000E-03 0. -1.
         23    2    1    2    0    0  0.17763568394E-14  0.35527136788E-14  0.00000000000E+00  0.91188000000E+02  0.91188000000E+02 0.  0.
    9900012    2    3    3    0    0  0.43932460043E+01 -0.28527415246E+02  0.22861925114E+02  0.54367059613E+02  0.39999943999E+02 0.  0.
         12    1    3    3    0    0 -0.43932460043E+01  0.28527415246E+02 -0.22861925114E+02  0.36820940387E+02  0.00000000000E+00 0. -1.
         11    1    4    4    0    0  0.11043880523E+02 -0.55058825805E+01  0.16728647522E+01  0.12453132808E+02  0.51100000000E-03 0. -1.
        -11    1    4    4    0    0 -0.14211815826E+02 -0.12652870719E+02  0.21961153263E+02  0.29057926619E+02  0.51100000000E-03 0.  1.
        -12    1    4    4    0    0  0.75611813072E+01 -0.10368661947E+02 -0.77209290164E+00  0.12856000186E+02  0.00000000000E+00 0.  1.
</event>
<event>
 8    1  0.1253703E-006  0.9118800E+02  0.7816164E-02  0.1184000E+00
        -11   -1    0    0    0    0  0.00000000000E+00  0.00000000000E+00  0.45593999997E+02  0.45594000000E+02  0.51100000000E-03 0. -1.
         11   -1    0    0    0    0 -0.00000000000E+00 -0.00000000000E+00 -0.45593999997E+02  0.45594000000E+02  0.51100000000E-03 0.  1.
         23    2    1    2    0    0 -0.17763568394E-14  0.00000000000E+00  0.35527136788E-14  0.91188000000E+02  0.91188000000E+02 0.  0.
    9900012    2    3    3    0    0  0.50431874200E+01 -0.24701817885E+02 -0.26835911123E+02  0.54367086487E+02  0.40000005264E+02 0.  0.
         12    1    3    3    0    0 -0.50431874200E+01  0.24701817885E+02  0.26835911123E+02  0.36820913513E+02  0.00000000000E+00 0. -1.
         11    1    4    4    0    0  0.20941372794E+02 -0.16403923104E+02 -0.17660588864E+02  0.31930020153E+02  0.51100000000E-03 0.  1.
        -11    1    4    4    0    0 -0.76833825918E+01 -0.93599397749E+01 -0.64295993425E+01  0.13710674258E+02  0.51100000000E-03 0. -1.
         12    1    4    4    0    0 -0.82148027823E+01  0.10620449939E+01 -0.27457229161E+01  0.87263920753E+01  0.00000000000E+00 0. -1.
</event>
<event>
 8    1  0.1253703E-006  0.9118800E+02  0.7816164E-02  0.1184000E+00
        -11   -1    0    0    0    0  0.00000000000E+00  0.00000000000E+00  0.45593999997E+02  0.45594000000E+02  0.51100000000E-03 0.  1.
         11   -1    0    0    0    0 -0.00000000000E+00 -0.00000000000E+00 -0.45593999997E+02  0.45594000000E+02  0.51100000000E-03 0. -1.
         23    2    1    2    0    0  0.00000000000E+00  0.00000000000E+00  0.17763568394E-14  0.91188000000E+02  0.91188000000E+02 0.  0.
    9900012    2    3    3    0    0 -0.34595097601E+02 -0.55654889807E+01 -0.11313024095E+02  0.54367082578E+02  0.39999996353E+02 0.  0.
        -12    1    3    3    0    0  0.34595097601E+02  0.55654889807E+01  0.11313024095E+02  0.36820917422E+02  0.00000000000E+00 0.  1.
         11    1    4    4    0    0 -0.18694829796E+02 -0.78325792580E+01  0.10777165892E+02  0.22956333851E+02  0.51100000000E-03 0. -1.
        -11    1    4    4    0    0 -0.65567900262E+01  0.72196102549E+01 -0.41779600039E+01  0.10609883022E+02  0.51100000000E-03 0.  1.
        -12    1    4    4    0    0 -0.93434777790E+01 -0.49525199776E+01 -0.17912229983E+02  0.20800865706E+02  0.00000000000E+00 0.  1.
</event>
<event>
 8    1  0.1253703E-006  0.9118800E+02  0.7816164E-02  0.1184000E+00
        -11   -1    0    0    0    0  0.00000000000E+00  0.00000000000E+00  0.45593999997E+02  0.45594000000E+02  0.51100000000E-03 0. -1.
         11   -1    0    0    0    0 -0.00000000000E+00 -0.00000000000E+00 -0.45593999997E+02  0.45594000000E+02  0.51100000000E-03 0.  1.
         23    2    1    2    0    0 -0.35527136788E-14  0.00000000000E+00  0.00000000000E+00  0.91188000000E+02  0.91188000000E+02 0.  0.
    9900012    2    3    3    0    0 -0.31284615085E+02  0.18857409227E+02 -0.46315189344E+01  0.54367082149E+02  0.39999995374E+02 0.  0.
         12    1    3    3    0    0  0.31284615085E+02 -0.18857409227E+02  0.46315189344E+01  0.36820917851E+02  0.00000000000E+00 0. -1.
         11    1    4    4    0    0 -0.89127815740E+01  0.86856601335E+01  0.45411347705E+01  0.13247651588E+02  0.51100000000E-03 0. -1.
        -11    1    4    4    0    0 -0.29584057593E+02  0.29227077879E+01 -0.82533671607E+01  0.30852499967E+02  0.51100000000E-03 0.  1.
         12    1    4    4    0    0  0.72122240817E+01  0.72490413059E+01 -0.91928654416E+00  0.10266930593E+02  0.00000000000E+00 0. -1.
</event>
<event>
 8    1  0.1253703E-006  0.9118800E+02  0.7816164E-02  0.1184000E+00
        -11   -1    0    0    0    0  0.00000000000E+00  0.00000000000E+00  0.45593999997E+02  0.45594000000E+02  0.51100000000E-03 0. -1.
         11   -1    0    0    0    0 -0.00000000000E+00 -0.00000000000E+00 -0.45593999997E+02  0.45594000000E+02  0.51100000000E-03 0.  1.
         23    2    1    2    0    0 -0.35527136788E-14  0.17763568394E-14  0.00000000000E+00  0.91188000000E+02  0.91188000000E+02 0.  0.
    9900012    2    3    3    0    0 -0.11749614967E+02  0.84566312285E+01 -0.33855790609E+02  0.54367046436E+02  0.39999913961E+02 0.  0.
         12    1    3    3    0    0  0.11749614967E+02 -0.84566312285E+01  0.33855790609E+02  0.36820953564E+02  0.00000000000E+00 0. -1.
         11    1    4    4    0    0  0.41350449384E+01  0.47319909797E+01 -0.34743962413E+02  0.35307694058E+02  0.51100000000E-03 0.  1.
        -11    1    4    4    0    0 -0.13640948211E+02 -0.11260053520E+01  0.40857310129E+00  0.13693439611E+02  0.51100000000E-03 0. -1.
         12    1    4    4    0    0 -0.22437116941E+01  0.48506456008E+01  0.47959870262E+00  0.53659127673E+01  0.00000000000E+00 0. -1.
</event>
<event>
 8    1  0.1253703E-006  0.9118800E+02  0.7816164E-02  0.1184000E+00
        -11   -1    0    0    0    0  0.00000000000E+00  0.00000000000E+00  0.45593999997E+02  0.45594000000E+02  0.51100000000E-03 0.  1.
         11   -1    0    0    0    0 -0.00000000000E+00 -0.00000000000E+00 -0.45593999997E+02  0.45594000000E+02  0.51100000000E-03 0. -1.
         23    2    1    2    0    0 -0.88817841970E-15  0.71054273576E-14 -0.22204460493E-15  0.91188000000E+02  0.91188000000E+02 0.  0.
    9900012    2    3    3    0    0  0.50254977281E+01 -0.36424568550E+02 -0.19434538136E+01  0.54367057125E+02  0.39999938327E+02 0.  0.
        -12    1    3    3    0    0 -0.50254977281E+01  0.36424568550E+02  0.19434538136E+01  0.36820942875E+02  0.00000000000E+00 0.  1.
         11    1    4    4    0    0  0.26561385411E+01  0.52562481121E+01 -0.37408597392E+01  0.69769081988E+01  0.51100000000E-03 0.  1.
        -11    1    4    4    0    0 -0.34405592395E+01 -0.40034355794E+02 -0.20427884568E+01  0.40233817575E+02  0.51100000000E-03 0. -1.
         12    1    4    4    0    0  0.58099184265E+01 -0.16464608690E+01  0.38401943824E+01  0.71563313513E+01  0.00000000000E+00 0. -1.
</event>
<event>
 8    1  0.1253703E-006  0.9118800E+02  0.7816164E-02  0.1184000E+00
        -11   -1    0    0    0    0  0.00000000000E+00  0.00000000000E+00  0.45593999997E+02  0.45594000000E+02  0.51100000000E-03 0.  1.
         11   -1    0    0    0    0 -0.00000000000E+00 -0.00000000000E+00 -0.45593999997E+02  0.45594000000E+02  0.51100000000E-03 0. -1.
         23    2    1    2    0    0  0.00000000000E+00  0.88817841970E-15 -0.26645352591E-14  0.91188000000E+02  0.91188000000E+02 0.  0.
    9900012    2    3    3    0    0  0.35144937002E+02  0.77074273939E+01  0.78235666171E+01  0.54367092508E+02  0.40000018991E+02 0.  0.
         12    1    3    3    0    0 -0.35144937002E+02 -0.77074273939E+01 -0.78235666171E+01  0.36820907492E+02  0.00000000000E+00 0. -1.
         11    1    4    4    0    0  0.10393990511E+02  0.16755125999E+01 -0.99649749472E+01  0.14496313572E+02  0.51100000000E-03 0. -1.
        -11    1    4    4    0    0  0.24248728450E+02 -0.47274821853E+01  0.14317641102E+02  0.28554242526E+02  0.51100000000E-03 0.  1.
         12    1    4    4    0    0  0.50221804149E+00  0.10759396979E+02  0.34709004619E+01  0.11316536411E+02  0.00000000000E+00 0. -1.
</event>
<event>
 8    1  0.1253703E-006  0.9118800E+02  0.7816164E-02  0.1184000E+00
        -11   -1    0    0    0    0  0.00000000000E+00  0.00000000000E+00  0.45593999997E+02  0.45594000000E+02  0.51100000000E-03 0.  1.
         11   -1    0    0    0    0 -0.00000000000E+00 -0.00000000000E+00 -0.45593999997E+02  0.45594000000E+02  0.51100000000E-03 0. -1.
         23    2    1    2    0    0  0.00000000000E+00  0.00000000000E+00  0.17763568394E-14  0.91188000000E+02  0.91188000000E+02 0.  0.
    9900012    2    3    3    0    0 -0.24271237548E+02  0.24085897498E+02 -0.13658535333E+02  0.54367095369E+02  0.40000025512E+02 0.  0.
        -12    1    3    3    0    0  0.24271237548E+02 -0.24085897498E+02  0.13658535333E+02  0.36820904631E+02  0.00000000000E+00 0.  1.
         11    1    4    4    0    0 -0.56771674370E+01  0.16852287042E+02 -0.82936451972E+01  0.19621782782E+02  0.51100000000E-03 0. -1.
        -11    1    4    4    0    0 -0.21684062241E+02  0.10447357017E+02 -0.11887149230E+02  0.26844927659E+02  0.51100000000E-03 0.  1.
        -12    1    4    4    0    0  0.30899921301E+01 -0.32137465600E+01  0.65222590944E+01  0.79003849280E+01  0.00000000000E+00 0.  1.
</event>
<event>
 8    1  0.1253703E-006  0.9118800E+02  0.7816164E-02  0.1184000E+00
        -11   -1    0    0    0    0  0.00000000000E+00  0.00000000000E+00  0.45593999997E+02  0.45594000000E+02  0.51100000000E-03 0.  1.
         11   -1    0    0    0    0 -0.00000000000E+00 -0.00000000000E+00 -0.45593999997E+02  0.45594000000E+02  0.51100000000E-03 0. -1.
         23    2    1    2    0    0  0.88817841970E-15  0.35527136788E-14 -0.35527136788E-14  0.91188000000E+02  0.91188000000E+02 0.  0.
    9900012    2    3    3    0    0  0.49548101059E+01 -0.30319365195E+02  0.20296948604E+02  0.54367079701E+02  0.39999989795E+02 0.  0.
         12    1    3    3    0    0 -0.49548101059E+01  0.30319365195E+02 -0.20296948604E+02  0.36820920299E+02  0.00000000000E+00 0. -1.
         11    1    4    4    0    0 -0.27111365590E+01  0.69544552546E+01  0.15182321375E+01  0.76170688860E+01  0.51100000000E-03 0. -1.
        -11    1    4    4    0    0 -0.38520421915E+01 -0.19582457714E+02  0.25445875641E+01  0.20119289383E+02  0.51100000000E-03 0.  1.
        -12    1    4    4    0    0  0.11517988856E+02 -0.17691362736E+02  0.16234128903E+02  0.26630721432E+02  0.00000000000E+00 0.  1.
</event>
<event>
 8    1  0.1253703E-006  0.9118800E+02  0.7816164E-02  0.1184000E+00
        -11   -1    0    0    0    0  0.00000000000E+00  0.00000000000E+00  0.45593999997E+02  0.45594000000E+02  0.51100000000E-03 0. -1.
         11   -1    0    0    0    0 -0.00000000000E+00 -0.00000000000E+00 -0.45593999997E+02  0.45594000000E+02  0.51100000000E-03 0.  1.
         23    2    1    2    0    0 -0.35527136788E-14  0.00000000000E+00  0.00000000000E+00  0.91188000000E+02  0.91188000000E+02 0.  0.
    9900012    2    3    3    0    0  0.18415176887E+02 -0.26230038463E+02  0.18128589981E+02  0.54367089742E+02  0.40000012685E+02 0.  0.
         12    1    3    3    0    0 -0.18415176887E+02  0.26230038463E+02 -0.18128589981E+02  0.36820910258E+02  0.00000000000E+00 0. -1.
         11    1    4    4    0    0 -0.25454176487E+01 -0.16215541172E+02 -0.13128271489E+01  0.16466524888E+02  0.51100000000E-03 0. -1.
        -11    1    4    4    0    0  0.37820308259E+01  0.54577686004E+01 -0.13862604238E+01  0.67832671691E+01  0.51100000000E-03 0.  1.
        -12    1    4    4    0    0  0.17178563710E+02 -0.15472265891E+02  0.20827677553E+02  0.31117297685E+02  0.00000000000E+00 0.  1.
</event>
<event>
 8    1  0.1253703E-006  0.9118800E+02  0.7816164E-02  0.1184000E+00
        -11   -1    0    0    0    0  0.00000000000E+00  0.00000000000E+00  0.45593999997E+02  0.45594000000E+02  0.51100000000E-03 0. -1.
         11   -1    0    0    0    0 -0.00000000000E+00 -0.00000000000E+00 -0.45593999997E+02  0.45594000000E+02  0.51100000000E-03 0.  1.
         23    2    1    2    0    0  0.00000000000E+00  0.00000000000E+00 -0.66613381478E-15  0.91188000000E+02  0.91188000000E+02 0.  0.
    9900012    2    3    3    0    0  0.17880684455E+02  0.32136043563E+02  0.18266170511E+01  0.54367072495E+02  0.39999973367E+02 0.  0.
        -12    1    3    3    0    0 -0.17880684455E+02 -0.32136043563E+02 -0.18266170511E+01  0.36820927505E+02  0.00000000000E+00 0.  1.
         11    1    4    4    0    0  0.16221528709E+02  0.20060599412E+02  0.58407912241E+01  0.26451474152E+02  0.51100000000E-03 0. -1.
        -11    1    4    4    0    0  0.13588124628E+01 -0.43136756337E+01  0.68802410291E+01  0.82335827962E+01  0.51100000000E-03 0.  1.
        -12    1    4    4    0    0  0.30034328333E+00  0.16389119785E+02 -0.10894415202E+02  0.19682015547E+02  0.00000000000E+00 0.  1.
</event>
<event>
 8    1  0.1253703E-006  0.9118800E+02  0.7816164E-02  0.1184000E+00
        -11   -1    0    0    0    0  0.00000000000E+00  0.00000000000E+00  0.45593999997E+02  0.45594000000E+02  0.51100000000E-03 0.  1.
         11   -1    0    0    0    0 -0.00000000000E+00 -0.00000000000E+00 -0.45593999997E+02  0.45594000000E+02  0.51100000000E-03 0. -1.
         23    2    1    2    0    0  0.00000000000E+00  0.00000000000E+00  0.00000000000E+00  0.91188000000E+02  0.91188000000E+02 0.  0.
    9900012    2    3    3    0    0  0.80183660635E+01  0.11134435648E+02  0.34168874615E+02  0.54367056992E+02  0.39999938025E+02 0.  0.
         12    1    3    3    0    0 -0.80183660635E+01 -0.11134435648E+02 -0.34168874615E+02  0.36820943008E+02  0.00000000000E+00 0. -1.
         11    1    4    4    0    0  0.11834480509E+02  0.23356425386E+01  0.19102133702E+01  0.12213069654E+02  0.51100000000E-03 0. -1.
        -11    1    4    4    0    0 -0.14446564412E+01 -0.76084135030E+01  0.20259958699E+02  0.21689649952E+02  0.51100000000E-03 0.  1.
         12    1    4    4    0    0 -0.23714580043E+01  0.16407206613E+02  0.11998702545E+02  0.20464337387E+02  0.00000000000E+00 0. -1.
</event>
<event>
 8    1  0.1253703E-006  0.9118800E+02  0.7816164E-02  0.1184000E+00
        -11   -1    0    0    0    0  0.00000000000E+00  0.00000000000E+00  0.45593999997E+02  0.45594000000E+02  0.51100000000E-03 0.  1.
         11   -1    0    0    0    0 -0.00000000000E+00 -0.00000000000E+00 -0.45593999997E+02  0.45594000000E+02  0.51100000000E-03 0. -1.
         23    2    1    2    0    0 -0.71054273576E-14 -0.10658141036E-13  0.00000000000E+00  0.91188000000E+02  0.91188000000E+02 0.  0.
    9900012    2    3    3    0    0  0.25649266719E+02  0.26226882970E+02 -0.31683226048E+01  0.54367183311E+02  0.40000225993E+02 0.  0.
         12    1    3    3    0    0 -0.25649266719E+02 -0.26226882970E+02  0.31683226048E+01  0.36820816689E+02  0.00000000000E+00 0. -1.
         11    1    4    4    0    0  0.55060895397E+01  0.18586525892E+02 -0.73536734685E+01  0.20732884037E+02  0.51100000000E-03 0. -1.
        -11    1    4    4    0    0  0.13604856644E+02 -0.78947354559E+01 -0.16079526403E+01  0.15811530102E+02  0.51100000000E-03 0.  1.
        -12    1    4    4    0    0  0.65383205359E+01  0.15535092534E+02  0.57933035040E+01  0.17822769172E+02  0.00000000000E+00 0.  1.
</event>
<event>
 8    1  0.1253703E-006  0.9118800E+02  0.7816164E-02  0.1184000E+00
        -11   -1    0    0    0    0  0.00000000000E+00  0.00000000000E+00  0.45593999997E+02  0.45594000000E+02  0.51100000000E-03 0.  1.
         11   -1    0    0    0    0 -0.00000000000E+00 -0.00000000000E+00 -0.45593999997E+02  0.45594000000E+02  0.51100000000E-03 0. -1.
         23    2    1    2    0    0 -0.35527136788E-14 -0.17763568394E-14 -0.35527136788E-14  0.91188000000E+02  0.91188000000E+02 0.  0.
    9900012    2    3    3    0    0  0.22150388635E+02  0.48741022205E+01  0.29006595104E+02  0.54367093592E+02  0.40000021462E+02 0.  0.
         12    1    3    3    0    0 -0.22150388635E+02 -0.48741022205E+01 -0.29006595104E+02  0.36820906408E+02  0.00000000000E+00 0. -1.
         11    1    4    4    0    0 -0.49805622100E+01 -0.39692739075E+01  0.33538589512E+01  0.71978820083E+01  0.51100000000E-03 0. -1.
        -11    1    4    4    0    0  0.18149616956E+02  0.16897409349E+02  0.24807082327E+02  0.35075951479E+02  0.51100000000E-03 0.  1.
         12    1    4    4    0    0  0.89813338895E+01 -0.80540332208E+01  0.84565382607E+00  0.12093260104E+02  0.00000000000E+00 0. -1.
</event>
<event>
 8    1  0.1253703E-006  0.9118800E+02  0.7816164E-02  0.1184000E+00
        -11   -1    0    0    0    0  0.00000000000E+00  0.00000000000E+00  0.45593999997E+02  0.45594000000E+02  0.51100000000E-03 0. -1.
         11   -1    0    0    0    0 -0.00000000000E+00 -0.00000000000E+00 -0.45593999997E+02  0.45594000000E+02  0.51100000000E-03 0.  1.
         23    2    1    2    0    0  0.00000000000E+00 -0.17763568394E-14  0.35527136788E-14  0.91188000000E+02  0.91188000000E+02 0.  0.
    9900012    2    3    3    0    0 -0.27022514227E+02  0.84281597531E+01 -0.23548445293E+02  0.54367089804E+02  0.40000012826E+02 0.  0.
         12    1    3    3    0    0  0.27022514227E+02 -0.84281597531E+01  0.23548445293E+02  0.36820910196E+02  0.00000000000E+00 0. -1.
         11    1    4    4    0    0 -0.93423230335E+01  0.13031166102E+02 -0.22984692383E+01  0.16197939706E+02  0.51100000000E-03 0. -1.
        -11    1    4    4    0    0 -0.15805166580E+02 -0.65643307187E+01 -0.26910712569E+02  0.31891694525E+02  0.51100000000E-03 0.  1.
        -12    1    4    4    0    0 -0.18750246131E+01  0.19613243702E+01  0.56607365147E+01  0.62774555732E+01  0.00000000000E+00 0.  1.
</event>
<event>
 8    1  0.1253703E-006  0.9118800E+02  0.7816164E-02  0.1184000E+00
        -11   -1    0    0    0    0  0.00000000000E+00  0.00000000000E+00  0.45593999997E+02  0.45594000000E+02  0.51100000000E-03 0.  1.
         11   -1    0    0    0    0 -0.00000000000E+00 -0.00000000000E+00 -0.45593999997E+02  0.45594000000E+02  0.51100000000E-03 0. -1.
         23    2    1    2    0    0 -0.17763568394E-14  0.35527136788E-14 -0.35527136788E-14  0.91188000000E+02  0.91188000000E+02 0.  0.
    9900012    2    3    3    0    0 -0.11800697958E+02  0.20532646404E+02 -0.28194525201E+02  0.54367118805E+02  0.40000078939E+02 0.  0.
        -12    1    3    3    0    0  0.11800697958E+02 -0.20532646404E+02  0.28194525201E+02  0.36820881195E+02  0.00000000000E+00 0.  1.
         11    1    4    4    0    0  0.21735398466E+01  0.66189874056E+00 -0.12255679831E+02  0.12464512578E+02  0.51100000000E-03 0.  1.
        -11    1    4    4    0    0  0.83361402894E+01  0.74758427518E+01  0.10448152942E+01  0.11245937001E+02  0.51100000000E-03 0. -1.
         12    1    4    4    0    0 -0.22310378094E+02  0.12394904912E+02 -0.16983660664E+02  0.30656669226E+02  0.00000000000E+00 0. -1.
</event>
<event>
 8    1  0.1253703E-006  0.9118800E+02  0.7816164E-02  0.1184000E+00
        -11   -1    0    0    0    0  0.00000000000E+00  0.00000000000E+00  0.45593999997E+02  0.45594000000E+02  0.51100000000E-03 0.  1.
         11   -1    0    0    0    0 -0.00000000000E+00 -0.00000000000E+00 -0.45593999997E+02  0.45594000000E+02  0.51100000000E-03 0. -1.
         23    2    1    2    0    0  0.88817841970E-15  0.00000000000E+00  0.00000000000E+00  0.91188000000E+02  0.91188000000E+02 0.  0.
    9900012    2    3    3    0    0  0.65927132143E+01  0.33826882205E+02 -0.12963670799E+02  0.54367101208E+02  0.40000038824E+02 0.  0.
        -12    1    3    3    0    0 -0.65927132143E+01 -0.33826882205E+02  0.12963670799E+02  0.36820898792E+02  0.00000000000E+00 0.  1.
         11    1    4    4    0    0 -0.12807742796E+02  0.20908530966E+01 -0.73641376319E+00  0.12998163243E+02  0.51100000000E-03 0.  1.
        -11    1    4    4    0    0  0.13813754554E+02  0.29989460308E+02 -0.12958982479E+02  0.35470026383E+02  0.51100000000E-03 0. -1.
        -12    1    4    4    0    0  0.55867014559E+01  0.17465688002E+01  0.73172544371E+00  0.58989115823E+01  0.00000000000E+00 0.  1.
</event>
<event>
 8    1  0.1253703E-006  0.9118800E+02  0.7816164E-02  0.1184000E+00
        -11   -1    0    0    0    0  0.00000000000E+00  0.00000000000E+00  0.45593999997E+02  0.45594000000E+02  0.51100000000E-03 0. -1.
         11   -1    0    0    0    0 -0.00000000000E+00 -0.00000000000E+00 -0.45593999997E+02  0.45594000000E+02  0.51100000000E-03 0.  1.
         23    2    1    2    0    0  0.00000000000E+00  0.17763568394E-14  0.00000000000E+00  0.91188000000E+02  0.91188000000E+02 0.  0.
    9900012    2    3    3    0    0 -0.34742265486E+02 -0.81775421082E+01  0.90496948054E+01  0.54366889450E+02  0.39999556077E+02 0.  0.
        -12    1    3    3    0    0  0.34742265486E+02  0.81775421082E+01 -0.90496948054E+01  0.36821110550E+02  0.00000000000E+00 0.  1.
         11    1    4    4    0    0 -0.23222804258E+01 -0.42608621447E+01  0.56551627348E+01  0.74517647850E+01  0.51100000000E-03 0. -1.
        -11    1    4    4    0    0  0.16110280770E+01  0.64057532969E+01 -0.72367331786E+01  0.97979280526E+01  0.51100000000E-03 0.  1.
         12    1    4    4    0    0 -0.34031013138E+02 -0.10322433260E+02  0.10631265249E+02  0.37117196613E+02  0.00000000000E+00 0. -1.
</event>
<event>
 8    1  0.1253703E-006  0.9118800E+02  0.7816164E-02  0.1184000E+00
        -11   -1    0    0    0    0  0.00000000000E+00  0.00000000000E+00  0.45593999997E+02  0.45594000000E+02  0.51100000000E-03 0. -1.
         11   -1    0    0    0    0 -0.00000000000E+00 -0.00000000000E+00 -0.45593999997E+02  0.45594000000E+02  0.51100000000E-03 0.  1.
         23    2    1    2    0    0  0.00000000000E+00  0.00000000000E+00 -0.35527136788E-14  0.91188000000E+02  0.91188000000E+02 0.  0.
    9900012    2    3    3    0    0 -0.24241294909E+02 -0.72916951105E+01 -0.26738936059E+02  0.54367083417E+02  0.39999998266E+02 0.  0.
         12    1    3    3    0    0  0.24241294909E+02  0.72916951105E+01  0.26738936059E+02  0.36820916583E+02  0.00000000000E+00 0. -1.
         11    1    4    4    0    0 -0.17236790199E+02 -0.94524645059E+01  0.14709416649E+01  0.19713439356E+02  0.51100000000E-03 0. -1.
        -11    1    4    4    0    0 -0.28925103070E+01  0.90268825646E+01 -0.23565363856E+02  0.25400346428E+02  0.51100000000E-03 0.  1.
        -12    1    4    4    0    0 -0.41119944035E+01 -0.68661131692E+01 -0.46445138673E+01  0.92532976333E+01  0.00000000000E+00 0.  1.
</event>
<event>
 8    1  0.1253703E-006  0.9118800E+02  0.7816164E-02  0.1184000E+00
        -11   -1    0    0    0    0  0.00000000000E+00  0.00000000000E+00  0.45593999997E+02  0.45594000000E+02  0.51100000000E-03 0. -1.
         11   -1    0    0    0    0 -0.00000000000E+00 -0.00000000000E+00 -0.45593999997E+02  0.45594000000E+02  0.51100000000E-03 0.  1.
         23    2    1    2    0    0  0.71054273576E-14  0.17763568394E-14 -0.17763568394E-14  0.91188000000E+02  0.91188000000E+02 0.  0.
    9900012    2    3    3    0    0  0.33589620312E+02 -0.14006208154E+02  0.55983475146E+01  0.54367109809E+02  0.40000058432E+02 0.  0.
         12    1    3    3    0    0 -0.33589620312E+02  0.14006208154E+02 -0.55983475146E+01  0.36820890191E+02  0.00000000000E+00 0. -1.
         11    1    4    4    0    0  0.78734000082E+01  0.77875196458E+01 -0.36801964735E+01  0.11669607374E+02  0.51100000000E-03 0. -1.
        -11    1    4    4    0    0 -0.26293046848E+01 -0.84378133157E+01 -0.25599200272E+01  0.92012568425E+01  0.51100000000E-03 0.  1.
        -12    1    4    4    0    0  0.28345524988E+02 -0.13355914484E+02  0.11838464015E+02  0.33496245593E+02  0.00000000000E+00 0.  1.
</event>
<event>
 8    1  0.1253703E-006  0.9118800E+02  0.7816164E-02  0.1184000E+00
        -11   -1    0    0    0    0  0.00000000000E+00  0.00000000000E+00  0.45593999997E+02  0.45594000000E+02  0.51100000000E-03 0.  1.
         11   -1    0    0    0    0 -0.00000000000E+00 -0.00000000000E+00 -0.45593999997E+02  0.45594000000E+02  0.51100000000E-03 0. -1.
         23    2    1    2    0    0 -0.71054273576E-14  0.00000000000E+00 -0.17763568394E-14  0.91188000000E+02  0.91188000000E+02 0.  0.
    9900012    2    3    3    0    0 -0.33683476272E+02 -0.11286222422E+02 -0.96862983041E+01  0.54367085221E+02  0.40000002378E+02 0.  0.
        -12    1    3    3    0    0  0.33683476272E+02  0.11286222422E+02  0.96862983041E+01  0.36820914779E+02  0.00000000000E+00 0.  1.
         11    1    4    4    0    0 -0.57948330062E+01  0.42769171531E+01 -0.92681342341E+01  0.11737564583E+02  0.51100000000E-03 0. -1.
        -11    1    4    4    0    0 -0.20305711164E+02 -0.20709532646E+02  0.81045434702E+01  0.30114618932E+02  0.51100000000E-03 0.  1.
        -12    1    4    4    0    0 -0.75829321019E+01  0.51463930702E+01 -0.85227075402E+01  0.12514901706E+02  0.00000000000E+00 0.  1.
</event>
<event>
 8    1  0.1253703E-006  0.9118800E+02  0.7816164E-02  0.1184000E+00
        -11   -1    0    0    0    0  0.00000000000E+00  0.00000000000E+00  0.45593999997E+02  0.45594000000E+02  0.51100000000E-03 0.  1.
         11   -1    0    0    0    0 -0.00000000000E+00 -0.00000000000E+00 -0.45593999997E+02  0.45594000000E+02  0.51100000000E-03 0. -1.
         23    2    1    2    0    0  0.17763568394E-14  0.00000000000E+00 -0.35527136788E-14  0.91188000000E+02  0.91188000000E+02 0.  0.
    9900012    2    3    3    0    0  0.12836757290E+02 -0.23561519573E+02 -0.25216108201E+02  0.54367086715E+02  0.40000005785E+02 0.  0.
        -12    1    3    3    0    0 -0.12836757290E+02  0.23561519573E+02  0.25216108201E+02  0.36820913285E+02  0.00000000000E+00 0.  1.
         11    1    4    4    0    0  0.91956637754E+01 -0.19083168447E+02 -0.17350272644E+02  0.27381736821E+02  0.51100000000E-03 0. -1.
        -11    1    4    4    0    0 -0.10465084605E+02 -0.97347620665E+00 -0.11078534109E+00  0.10510847985E+02  0.51100000000E-03 0.  1.
        -12    1    4    4    0    0  0.14106178119E+02 -0.35048749196E+01 -0.77550502158E+01  0.16474501910E+02  0.00000000000E+00 0.  1.
</event>
<event>
 8    1  0.1253703E-006  0.9118800E+02  0.7816164E-02  0.1184000E+00
        -11   -1    0    0    0    0  0.00000000000E+00  0.00000000000E+00  0.45593999997E+02  0.45594000000E+02  0.51100000000E-03 0.  1.
         11   -1    0    0    0    0 -0.00000000000E+00 -0.00000000000E+00 -0.45593999997E+02  0.45594000000E+02  0.51100000000E-03 0. -1.
         23    2    1    2    0    0 -0.35527136788E-14 -0.35527136788E-14 -0.35527136788E-14  0.91188000000E+02  0.91188000000E+02 0.  0.
    9900012    2    3    3    0    0  0.21159815055E+02 -0.20975849319E+02  0.21634569760E+02  0.54367100547E+02  0.40000037318E+02 0.  0.
         12    1    3    3    0    0 -0.21159815055E+02  0.20975849319E+02 -0.21634569760E+02  0.36820899453E+02  0.00000000000E+00 0. -1.
         11    1    4    4    0    0  0.34613338679E+01 -0.10065942207E+02 -0.35550223024E+00  0.10650371203E+02  0.51100000000E-03 0. -1.
        -11    1    4    4    0    0  0.98207100054E+01 -0.12643374656E+01 -0.70258219490E+01  0.12141131272E+02  0.51100000000E-03 0.  1.
        -12    1    4    4    0    0  0.78777711815E+01 -0.96455696461E+01  0.29015893939E+02  0.31575598073E+02  0.00000000000E+00 0.  1.
</event>
<event>
 8    1  0.1253703E-006  0.9118800E+02  0.7816164E-02  0.1184000E+00
        -11   -1    0    0    0    0  0.00000000000E+00  0.00000000000E+00  0.45593999997E+02  0.45594000000E+02  0.51100000000E-03 0.  1.
         11   -1    0    0    0    0 -0.00000000000E+00 -0.00000000000E+00 -0.45593999997E+02  0.45594000000E+02  0.51100000000E-03 0. -1.
         23    2    1    2    0    0 -0.35527136788E-14 -0.35527136788E-14 -0.88817841970E-15  0.91188000000E+02  0.91188000000E+02 0.  0.
    9900012    2    3    3    0    0 -0.31401374500E+02 -0.17528219261E+02 -0.79052141021E+01  0.54367120041E+02  0.40000081758E+02 0.  0.
         12    1    3    3    0    0  0.31401374500E+02  0.17528219261E+02  0.79052141021E+01  0.36820879959E+02  0.00000000000E+00 0. -1.
         11    1    4    4    0    0 -0.12698167261E+02 -0.32071354027E+01 -0.20528354817E+02  0.24350411106E+02  0.51100000000E-03 0. -1.
        -11    1    4    4    0    0 -0.13951309152E+01 -0.89325176511E+01  0.32329214274E+01  0.96014604657E+01  0.51100000000E-03 0.  1.
         12    1    4    4    0    0 -0.17308076323E+02 -0.53885662069E+01  0.93902192879E+01  0.20415248469E+02  0.00000000000E+00 0. -1.
</event>
<event>
 8    1  0.1253703E-006  0.9118800E+02  0.7816164E-02  0.1184000E+00
        -11   -1    0    0    0    0  0.00000000000E+00  0.00000000000E+00  0.45593999997E+02  0.45594000000E+02  0.51100000000E-03 0.  1.
         11   -1    0    0    0    0 -0.00000000000E+00 -0.00000000000E+00 -0.45593999997E+02  0.45594000000E+02  0.51100000000E-03 0. -1.
         23    2    1    2    0    0  0.00000000000E+00  0.35527136788E-14  0.88817841970E-15  0.91188000000E+02  0.91188000000E+02 0.  0.
    9900012    2    3    3    0    0  0.24975421916E+02  0.26087758403E+02  0.71720008348E+01  0.54367076134E+02  0.39999981662E+02 0.  0.
         12    1    3    3    0    0 -0.24975421916E+02 -0.26087758403E+02 -0.71720008348E+01  0.36820923866E+02  0.00000000000E+00 0. -1.
         11    1    4    4    0    0 -0.35334806760E+01  0.17200747226E+02  0.47495794684E+00  0.17566353524E+02  0.51100000000E-03 0. -1.
        -11    1    4    4    0    0  0.55473115067E+01  0.28316224992E+01  0.11025305242E+02  0.12662863297E+02  0.51100000000E-03 0.  1.
        -12    1    4    4    0    0  0.22961591085E+02  0.60553886785E+01 -0.43282623545E+01  0.24137859313E+02  0.00000000000E+00 0.  1.
</event>
<event>
 8    1  0.1253703E-006  0.9118800E+02  0.7816164E-02  0.1184000E+00
        -11   -1    0    0    0    0  0.00000000000E+00  0.00000000000E+00  0.45593999997E+02  0.45594000000E+02  0.51100000000E-03 0.  1.
         11   -1    0    0    0    0 -0.00000000000E+00 -0.00000000000E+00 -0.45593999997E+02  0.45594000000E+02  0.51100000000E-03 0. -1.
         23    2    1    2    0    0  0.00000000000E+00  0.00000000000E+00 -0.88817841970E-15  0.91188000000E+02  0.91188000000E+02 0.  0.
    9900012    2    3    3    0    0  0.91010121193E+01  0.34895902544E+02 -0.74313730827E+01  0.54367112696E+02  0.40000065012E+02 0.  0.
         12    1    3    3    0    0 -0.91010121193E+01 -0.34895902544E+02  0.74313730827E+01  0.36820887304E+02  0.00000000000E+00 0. -1.
         11    1    4    4    0    0 -0.12355382760E+02  0.80833603186E+01 -0.46230902732E+01  0.15471559751E+02  0.51100000000E-03 0. -1.
        -11    1    4    4    0    0  0.13556874384E+02  0.83787530267E+01 -0.84814853838E+01  0.18053474456E+02  0.51100000000E-03 0.  1.
        -12    1    4    4    0    0  0.78995204952E+01  0.18433789199E+02  0.56732025743E+01  0.20842078489E+02  0.00000000000E+00 0.  1.
</event>
<event>
 8    1  0.1253703E-006  0.9118800E+02  0.7816164E-02  0.1184000E+00
        -11   -1    0    0    0    0  0.00000000000E+00  0.00000000000E+00  0.45593999997E+02  0.45594000000E+02  0.51100000000E-03 0. -1.
         11   -1    0    0    0    0 -0.00000000000E+00 -0.00000000000E+00 -0.45593999997E+02  0.45594000000E+02  0.51100000000E-03 0.  1.
         23    2    1    2    0    0  0.00000000000E+00  0.00000000000E+00  0.00000000000E+00  0.91188000000E+02  0.91188000000E+02 0.  0.
    9900012    2    3    3    0    0  0.27239022712E+01  0.17510636255E+02 -0.32275988175E+02  0.54367062501E+02  0.39999950584E+02 0.  0.
         12    1    3    3    0    0 -0.27239022712E+01 -0.17510636255E+02  0.32275988175E+02  0.36820937499E+02  0.00000000000E+00 0. -1.
         11    1    4    4    0    0 -0.10372744996E+01  0.22099943839E+02 -0.20251546563E+02  0.29993475866E+02  0.51100000000E-03 0. -1.
        -11    1    4    4    0    0  0.88443239960E+01 -0.16667843223E+00  0.17702954522E+01  0.90212967413E+01  0.51100000000E-03 0.  1.
        -12    1    4    4    0    0 -0.50831472253E+01 -0.44226291513E+01 -0.13794737064E+02  0.15352289894E+02  0.00000000000E+00 0.  1.
</event>
<event>
 8    1  0.1253703E-006  0.9118800E+02  0.7816164E-02  0.1184000E+00
        -11   -1    0    0    0    0  0.00000000000E+00  0.00000000000E+00  0.45593999997E+02  0.45594000000E+02  0.51100000000E-03 0. -1.
         11   -1    0    0    0    0 -0.00000000000E+00 -0.00000000000E+00 -0.45593999997E+02  0.45594000000E+02  0.51100000000E-03 0.  1.
         23    2    1    2    0    0  0.00000000000E+00  0.88817841970E-15  0.88817841970E-15  0.91188000000E+02  0.91188000000E+02 0.  0.
    9900012    2    3    3    0    0 -0.36301422108E+02  0.29201472027E+01  0.54277264082E+01  0.54367072245E+02  0.39999972797E+02 0.  0.
         12    1    3    3    0    0  0.36301422108E+02 -0.29201472027E+01 -0.54277264082E+01  0.36820927755E+02  0.00000000000E+00 0. -1.
         11    1    4    4    0    0  0.52174150399E+01  0.12623897282E+01 -0.33789151056E+01  0.63428790842E+01  0.51100000000E-03 0. -1.
        -11    1    4    4    0    0 -0.90660978313E+01 -0.72887276732E+01 -0.35536577570E+01  0.12163394456E+02  0.51100000000E-03 0.  1.
         12    1    4    4    0    0 -0.32452739317E+02  0.89464851478E+01  0.12360299271E+02  0.35860798705E+02  0.00000000000E+00 0. -1.
</event>
<event>
 8    1  0.1253703E-006  0.9118800E+02  0.7816164E-02  0.1184000E+00
        -11   -1    0    0    0    0  0.00000000000E+00  0.00000000000E+00  0.45593999997E+02  0.45594000000E+02  0.51100000000E-03 0. -1.
         11   -1    0    0    0    0 -0.00000000000E+00 -0.00000000000E+00 -0.45593999997E+02  0.45594000000E+02  0.51100000000E-03 0.  1.
         23    2    1    2    0    0  0.00000000000E+00  0.00000000000E+00  0.00000000000E+00  0.91188000000E+02  0.91188000000E+02 0.  0.
    9900012    2    3    3    0    0 -0.12505582626E+02  0.17271981145E+02  0.30017816018E+02  0.54367079208E+02  0.39999988670E+02 0.  0.
        -12    1    3    3    0    0  0.12505582626E+02 -0.17271981145E+02 -0.30017816018E+02  0.36820920792E+02  0.00000000000E+00 0.  1.
         11    1    4    4    0    0  0.22694984161E+01  0.18721924373E+01  0.68439187112E+01  0.74494933498E+01  0.51100000000E-03 0. -1.
        -11    1    4    4    0    0  0.71161752761E+01 -0.19205350320E+01 -0.36314877037E+01  0.82168186406E+01  0.51100000000E-03 0.  1.
         12    1    4    4    0    0 -0.21891256318E+02  0.17320323739E+02  0.26805385011E+02  0.38700767217E+02  0.00000000000E+00 0. -1.
</event>
<event>
 8    1  0.1253703E-006  0.9118800E+02  0.7816164E-02  0.1184000E+00
        -11   -1    0    0    0    0  0.00000000000E+00  0.00000000000E+00  0.45593999997E+02  0.45594000000E+02  0.51100000000E-03 0. -1.
         11   -1    0    0    0    0 -0.00000000000E+00 -0.00000000000E+00 -0.45593999997E+02  0.45594000000E+02  0.51100000000E-03 0.  1.
         23    2    1    2    0    0  0.00000000000E+00  0.00000000000E+00  0.00000000000E+00  0.91188000000E+02  0.91188000000E+02 0.  0.
    9900012    2    3    3    0    0  0.29581445693E+02  0.13987266976E+02 -0.16884156466E+02  0.54367077873E+02  0.39999985626E+02 0.  0.
         12    1    3    3    0    0 -0.29581445693E+02 -0.13987266976E+02  0.16884156466E+02  0.36820922127E+02  0.00000000000E+00 0. -1.
         11    1    4    4    0    0  0.28761917570E+02  0.14758591652E+02 -0.12641748622E+02  0.34711348841E+02  0.51100000000E-03 0.  1.
        -11    1    4    4    0    0  0.87748618203E+01  0.37766390862E+01  0.11087311742E-01  0.95530793958E+01  0.51100000000E-03 0. -1.
        -12    1    4    4    0    0 -0.79553336977E+01 -0.45479637621E+01 -0.42534951555E+01  0.10102649636E+02  0.00000000000E+00 0.  1.
</event>
<event>
 8    1  0.1253703E-006  0.9118800E+02  0.7816164E-02  0.1184000E+00
        -11   -1    0    0    0    0  0.00000000000E+00  0.00000000000E+00  0.45593999997E+02  0.45594000000E+02  0.51100000000E-03 0.  1.
         11   -1    0    0    0    0 -0.00000000000E+00 -0.00000000000E+00 -0.45593999997E+02  0.45594000000E+02  0.51100000000E-03 0. -1.
         23    2    1    2    0    0  0.00000000000E+00 -0.35527136788E-14  0.00000000000E+00  0.91188000000E+02  0.91188000000E+02 0.  0.
    9900012    2    3    3    0    0  0.27867878761E+02 -0.22780233144E+02  0.77603396767E+01  0.54367074420E+02  0.39999977754E+02 0.  0.
        -12    1    3    3    0    0 -0.27867878761E+02  0.22780233144E+02 -0.77603396767E+01  0.36820925580E+02  0.00000000000E+00 0.  1.
         11    1    4    4    0    0  0.16795250817E+02 -0.26424089349E+02  0.37813020080E+01  0.31537456985E+02  0.51100000000E-03 0. -1.
        -11    1    4    4    0    0  0.16368753462E+02  0.21879301091E+01  0.91379067327E+00  0.16539593154E+02  0.51100000000E-03 0.  1.
         12    1    4    4    0    0 -0.52961255187E+01  0.14559260958E+01  0.30652469955E+01  0.62900242805E+01  0.00000000000E+00 0. -1.
</event>
<event>
 8    1  0.1253703E-006  0.9118800E+02  0.7816164E-02  0.1184000E+00
        -11   -1    0    0    0    0  0.00000000000E+00  0.00000000000E+00  0.45593999997E+02  0.45594000000E+02  0.51100000000E-03 0.  1.
         11   -1    0    0    0    0 -0.00000000000E+00 -0.00000000000E+00 -0.45593999997E+02  0.45594000000E+02  0.51100000000E-03 0. -1.
         23    2    1    2    0    0 -0.35527136788E-14 -0.88817841970E-15 -0.71054273576E-14  0.91188000000E+02  0.91188000000E+02 0.  0.
    9900012    2    3    3    0    0  0.24636948242E+02  0.78065689115E+01  0.26227047447E+02  0.54367085364E+02  0.40000002704E+02 0.  0.
         12    1    3    3    0    0 -0.24636948242E+02 -0.78065689115E+01 -0.26227047447E+02  0.36820914636E+02  0.00000000000E+00 0. -1.
         11    1    4    4    0    0  0.10293492830E+02  0.15238758852E+02 -0.13214419314E+01  0.18436973044E+02  0.51100000000E-03 0. -1.
        -11    1    4    4    0    0  0.37370729420E+01  0.51623516606E+01  0.10070508606E+02  0.11917664733E+02  0.51100000000E-03 0.  1.
         12    1    4    4    0    0  0.10606382470E+02 -0.12594541601E+02  0.17477980772E+02  0.24012447587E+02  0.00000000000E+00 0. -1.
</event>
<event>
 8    1  0.1253703E-006  0.9118800E+02  0.7816164E-02  0.1184000E+00
        -11   -1    0    0    0    0  0.00000000000E+00  0.00000000000E+00  0.45593999997E+02  0.45594000000E+02  0.51100000000E-03 0.  1.
         11   -1    0    0    0    0 -0.00000000000E+00 -0.00000000000E+00 -0.45593999997E+02  0.45594000000E+02  0.51100000000E-03 0. -1.
         23    2    1    2    0    0  0.35527136788E-14  0.53290705182E-14 -0.71054273576E-14  0.91188000000E+02  0.91188000000E+02 0.  0.
    9900012    2    3    3    0    0  0.20445403818E+02  0.14100392790E+02 -0.27183520324E+02  0.54367090297E+02  0.40000013950E+02 0.  0.
        -12    1    3    3    0    0 -0.20445403818E+02 -0.14100392790E+02  0.27183520324E+02  0.36820909703E+02  0.00000000000E+00 0.  1.
         11    1    4    4    0    0 -0.57116448788E+01 -0.18647272075E+01 -0.10608876440E+02  0.12192143140E+02  0.51100000000E-03 0. -1.
        -11    1    4    4    0    0  0.74456196390E+01 -0.49788053663E+01  0.10494189281E+01  0.90181503110E+01  0.51100000000E-03 0.  1.
        -12    1    4    4    0    0  0.18711429058E+02  0.20943925364E+02 -0.17624062813E+02  0.33156796846E+02  0.00000000000E+00 0.  1.
</event>
<event>
 8    1  0.1253703E-006  0.9118800E+02  0.7816164E-02  0.1184000E+00
        -11   -1    0    0    0    0  0.00000000000E+00  0.00000000000E+00  0.45593999997E+02  0.45594000000E+02  0.51100000000E-03 0. -1.
         11   -1    0    0    0    0 -0.00000000000E+00 -0.00000000000E+00 -0.45593999997E+02  0.45594000000E+02  0.51100000000E-03 0.  1.
         23    2    1    2    0    0  0.00000000000E+00  0.17763568394E-14  0.00000000000E+00  0.91188000000E+02  0.91188000000E+02 0.  0.
    9900012    2    3    3    0    0  0.69005018699E+01 -0.13154380361E+02  0.33691629511E+02  0.54367074593E+02  0.39999978149E+02 0.  0.
        -12    1    3    3    0    0 -0.69005018699E+01  0.13154380361E+02 -0.33691629511E+02  0.36820925407E+02  0.00000000000E+00 0.  1.
         11    1    4    4    0    0  0.16076042750E+02  0.38876690020E+01  0.16469154320E+02  0.23340654769E+02  0.51100000000E-03 0. -1.
        -11    1    4    4    0    0 -0.17061890225E+01 -0.58381614948E+01 -0.29599357763E+01  0.67643499821E+01  0.51100000000E-03 0.  1.
         12    1    4    4    0    0 -0.74693518574E+01 -0.11203887868E+02  0.20182410967E+02  0.24262069841E+02  0.00000000000E+00 0. -1.
</event>
<event>
 8    1  0.1253703E-006  0.9118800E+02  0.7816164E-02  0.1184000E+00
        -11   -1    0    0    0    0  0.00000000000E+00  0.00000000000E+00  0.45593999997E+02  0.45594000000E+02  0.51100000000E-03 0.  1.
         11   -1    0    0    0    0 -0.00000000000E+00 -0.00000000000E+00 -0.45593999997E+02  0.45594000000E+02  0.51100000000E-03 0. -1.
         23    2    1    2    0    0  0.00000000000E+00  0.00000000000E+00  0.17763568394E-14  0.91188000000E+02  0.91188000000E+02 0.  0.
    9900012    2    3    3    0    0  0.34437988838E+02 -0.58161061984E+01  0.11660957492E+02  0.54367080726E+02  0.39999992131E+02 0.  0.
        -12    1    3    3    0    0 -0.34437988838E+02  0.58161061984E+01 -0.11660957492E+02  0.36820919274E+02  0.00000000000E+00 0.  1.
         11    1    4    4    0    0  0.11049198799E+02 -0.10697925383E+02  0.37477466562E+01  0.15829592758E+02  0.51100000000E-03 0. -1.
        -11    1    4    4    0    0 -0.30511634650E+01 -0.17642694937E+01 -0.67257852225E+01  0.75933149847E+01  0.51100000000E-03 0.  1.
        -12    1    4    4    0    0  0.26439953504E+02  0.66460886788E+01  0.14638996059E+02  0.30944172984E+02  0.00000000000E+00 0.  1.
</event>
<event>
 8    1  0.1253703E-006  0.9118800E+02  0.7816164E-02  0.1184000E+00
        -11   -1    0    0    0    0  0.00000000000E+00  0.00000000000E+00  0.45593999997E+02  0.45594000000E+02  0.51100000000E-03 0.  1.
         11   -1    0    0    0    0 -0.00000000000E+00 -0.00000000000E+00 -0.45593999997E+02  0.45594000000E+02  0.51100000000E-03 0. -1.
         23    2    1    2    0    0 -0.35527136788E-14 -0.88817841970E-15  0.00000000000E+00  0.91188000000E+02  0.91188000000E+02 0.  0.
    9900012    2    3    3    0    0  0.30261463989E+02 -0.37750119335E+01  0.20634262661E+02  0.54367085924E+02  0.40000003980E+02 0.  0.
         12    1    3    3    0    0 -0.30261463989E+02  0.37750119335E+01 -0.20634262661E+02  0.36820914076E+02  0.00000000000E+00 0. -1.
         11    1    4    4    0    0  0.69789305434E+01 -0.59695245048E+01  0.13275345483E+02  0.16142350892E+02  0.51100000000E-03 0. -1.
        -11    1    4    4    0    0  0.23784755178E+02 -0.95647974666E+01  0.63557460339E+01  0.26412032057E+02  0.51100000000E-03 0.  1.
        -12    1    4    4    0    0 -0.50222173250E+00  0.11759310038E+02  0.10031711436E+01  0.11812702975E+02  0.00000000000E+00 0.  1.
</event>
<event>
 8    1  0.1253703E-006  0.9118800E+02  0.7816164E-02  0.1184000E+00
        -11   -1    0    0    0    0  0.00000000000E+00  0.00000000000E+00  0.45593999997E+02  0.45594000000E+02  0.51100000000E-03 0. -1.
         11   -1    0    0    0    0 -0.00000000000E+00 -0.00000000000E+00 -0.45593999997E+02  0.45594000000E+02  0.51100000000E-03 0.  1.
         23    2    1    2    0    0  0.88817841970E-15  0.35527136788E-14  0.35527136788E-14  0.91188000000E+02  0.91188000000E+02 0.  0.
    9900012    2    3    3    0    0  0.74863686588E+01  0.22646055071E+02 -0.28051526073E+02  0.54367114066E+02  0.40000068135E+02 0.  0.
         12    1    3    3    0    0 -0.74863686588E+01 -0.22646055071E+02  0.28051526073E+02  0.36820885934E+02  0.00000000000E+00 0. -1.
         11    1    4    4    0    0  0.34473299941E+01  0.21974015514E+02 -0.47827307116E+01  0.22751174810E+02  0.51100000000E-03 0. -1.
        -11    1    4    4    0    0 -0.48063509554E+01  0.25123361881E+01  0.11808185939E+01  0.55504211949E+01  0.51100000000E-03 0.  1.
        -12    1    4    4    0    0  0.88453896201E+01 -0.18402966312E+01 -0.24449613955E+02  0.26065518061E+02  0.00000000000E+00 0.  1.
</event>
<event>
 8    1  0.1253703E-006  0.9118800E+02  0.7816164E-02  0.1184000E+00
        -11   -1    0    0    0    0  0.00000000000E+00  0.00000000000E+00  0.45593999997E+02  0.45594000000E+02  0.51100000000E-03 0.  1.
         11   -1    0    0    0    0 -0.00000000000E+00 -0.00000000000E+00 -0.45593999997E+02  0.45594000000E+02  0.51100000000E-03 0. -1.
         23    2    1    2    0    0 -0.17763568394E-14 -0.35527136788E-14  0.00000000000E+00  0.91188000000E+02  0.91188000000E+02 0.  0.
    9900012    2    3    3    0    0 -0.15815965805E+02 -0.23347742318E+02 -0.23675256488E+02  0.54367087253E+02  0.40000007012E+02 0.  0.
        -12    1    3    3    0    0  0.15815965805E+02  0.23347742318E+02  0.23675256488E+02  0.36820912747E+02  0.00000000000E+00 0.  1.
         11    1    4    4    0    0 -0.20019775890E+02 -0.49558395121E+01 -0.10077394330E+02  0.22954425471E+02  0.51100000000E-03 0. -1.
        -11    1    4    4    0    0 -0.48922629639E+01 -0.26463576838E+01  0.34017678871E+01  0.65199287510E+01  0.51100000000E-03 0.  1.
         12    1    4    4    0    0  0.90960730487E+01 -0.15745545123E+02 -0.16999630045E+02  0.24892733032E+02  0.00000000000E+00 0. -1.
</event>
<event>
 8    1  0.1253703E-006  0.9118800E+02  0.7816164E-02  0.1184000E+00
        -11   -1    0    0    0    0  0.00000000000E+00  0.00000000000E+00  0.45593999997E+02  0.45594000000E+02  0.51100000000E-03 0.  1.
         11   -1    0    0    0    0 -0.00000000000E+00 -0.00000000000E+00 -0.45593999997E+02  0.45594000000E+02  0.51100000000E-03 0. -1.
         23    2    1    2    0    0  0.00000000000E+00  0.00000000000E+00 -0.44408920985E-15  0.91188000000E+02  0.91188000000E+02 0.  0.
    9900012    2    3    3    0    0 -0.31790680771E+02 -0.18325625721E+02 -0.30500694832E+01  0.54367097434E+02  0.40000030219E+02 0.  0.
        -12    1    3    3    0    0  0.31790680771E+02  0.18325625721E+02  0.30500694832E+01  0.36820902566E+02  0.00000000000E+00 0.  1.
         11    1    4    4    0    0 -0.12104826735E+02 -0.18863993096E+02  0.10052149887E+01  0.22436299232E+02  0.51100000000E-03 0. -1.
        -11    1    4    4    0    0 -0.12813045766E+02 -0.12127279010E+01 -0.14447685157E+02  0.19348913598E+02  0.51100000000E-03 0.  1.
         12    1    4    4    0    0 -0.68728082701E+01  0.17510952761E+01  0.10392400685E+02  0.12581884604E+02  0.00000000000E+00 0. -1.
</event>
<event>
 8    1  0.1253703E-006  0.9118800E+02  0.7816164E-02  0.1184000E+00
        -11   -1    0    0    0    0  0.00000000000E+00  0.00000000000E+00  0.45593999997E+02  0.45594000000E+02  0.51100000000E-03 0.  1.
         11   -1    0    0    0    0 -0.00000000000E+00 -0.00000000000E+00 -0.45593999997E+02  0.45594000000E+02  0.51100000000E-03 0. -1.
         23    2    1    2    0    0 -0.17763568394E-14 -0.22204460493E-15  0.71054273576E-14  0.91188000000E+02  0.91188000000E+02 0.  0.
    9900012    2    3    3    0    0 -0.14803638049E+02  0.18146809050E+01  0.33665091445E+02  0.54367093598E+02  0.40000021475E+02 0.  0.
         12    1    3    3    0    0  0.14803638049E+02 -0.18146809050E+01 -0.33665091445E+02  0.36820906402E+02  0.00000000000E+00 0. -1.
         11    1    4    4    0    0 -0.83888854277E+01 -0.38271481694E+01  0.51972472193E+01  0.10584509471E+02  0.51100000000E-03 0. -1.
        -11    1    4    4    0    0 -0.11656239154E+02 -0.10153684822E+02  0.19479559334E+02  0.24868020805E+02  0.51100000000E-03 0.  1.
         12    1    4    4    0    0  0.52414865327E+01  0.15795513897E+02  0.89882848924E+01  0.18914563321E+02  0.00000000000E+00 0. -1.
</event>
<event>
 8    1  0.1253703E-006  0.9118800E+02  0.7816164E-02  0.1184000E+00
        -11   -1    0    0    0    0  0.00000000000E+00  0.00000000000E+00  0.45593999997E+02  0.45594000000E+02  0.51100000000E-03 0.  1.
         11   -1    0    0    0    0 -0.00000000000E+00 -0.00000000000E+00 -0.45593999997E+02  0.45594000000E+02  0.51100000000E-03 0. -1.
         23    2    1    2    0    0  0.00000000000E+00  0.00000000000E+00 -0.17763568394E-14  0.91188000000E+02  0.91188000000E+02 0.  0.
    9900012    2    3    3    0    0 -0.58890717480E+01 -0.34576309926E+02 -0.11206169388E+02  0.54367073796E+02  0.39999976332E+02 0.  0.
        -12    1    3    3    0    0  0.58890717480E+01  0.34576309926E+02  0.11206169388E+02  0.36820926204E+02  0.00000000000E+00 0.  1.
         11    1    4    4    0    0  0.32521585813E+01  0.86996006571E+00 -0.24354913972E+01  0.41551154690E+01  0.51100000000E-03 0. -1.
        -11    1    4    4    0    0  0.67951149245E+01 -0.15617883922E+02  0.89201024918E+01  0.19226547110E+02  0.51100000000E-03 0.  1.
        -12    1    4    4    0    0 -0.15936345254E+02 -0.19828386070E+02 -0.17690780483E+02  0.30985411217E+02  0.00000000000E+00 0.  1.
</event>
<event>
 8    1  0.1253703E-006  0.9118800E+02  0.7816164E-02  0.1184000E+00
        -11   -1    0    0    0    0  0.00000000000E+00  0.00000000000E+00  0.45593999997E+02  0.45594000000E+02  0.51100000000E-03 0.  1.
         11   -1    0    0    0    0 -0.00000000000E+00 -0.00000000000E+00 -0.45593999997E+02  0.45594000000E+02  0.51100000000E-03 0. -1.
         23    2    1    2    0    0  0.00000000000E+00  0.00000000000E+00 -0.35527136788E-14  0.91188000000E+02  0.91188000000E+02 0.  0.
    9900012    2    3    3    0    0  0.26978871111E+02 -0.92190140640E+01 -0.23300833077E+02  0.54367102010E+02  0.40000040652E+02 0.  0.
        -12    1    3    3    0    0 -0.26978871111E+02  0.92190140640E+01  0.23300833077E+02  0.36820897990E+02  0.00000000000E+00 0.  1.
         11    1    4    4    0    0  0.64649241723E+01 -0.14577338065E+02 -0.16229676708E+02  0.22752943456E+02  0.51100000000E-03 0. -1.
        -11    1    4    4    0    0  0.77462436834E+01  0.95429072832E+01 -0.12119262518E+02  0.17261167251E+02  0.51100000000E-03 0.  1.
        -12    1    4    4    0    0  0.12767703255E+02 -0.41845832826E+01  0.50481061490E+01  0.14352991303E+02  0.00000000000E+00 0.  1.
</event>
<event>
 8    1  0.1253703E-006  0.9118800E+02  0.7816164E-02  0.1184000E+00
        -11   -1    0    0    0    0  0.00000000000E+00  0.00000000000E+00  0.45593999997E+02  0.45594000000E+02  0.51100000000E-03 0. -1.
         11   -1    0    0    0    0 -0.00000000000E+00 -0.00000000000E+00 -0.45593999997E+02  0.45594000000E+02  0.51100000000E-03 0.  1.
         23    2    1    2    0    0  0.35527136788E-14 -0.17763568394E-14  0.71054273576E-14  0.91188000000E+02  0.91188000000E+02 0.  0.
    9900012    2    3    3    0    0  0.21401319305E+02 -0.92637678149E+01  0.28494706811E+02  0.54367052452E+02  0.39999927674E+02 0.  0.
        -12    1    3    3    0    0 -0.21401319305E+02  0.92637678149E+01 -0.28494706811E+02  0.36820947548E+02  0.00000000000E+00 0.  1.
         11    1    4    4    0    0  0.18053349866E+02 -0.90736984041E+01  0.29903027838E+02  0.36089423912E+02  0.51100000000E-03 0. -1.
        -11    1    4    4    0    0 -0.13250837318E+01  0.79432958585E+01  0.19994237098E+01  0.82975593655E+01  0.51100000000E-03 0.  1.
        -12    1    4    4    0    0  0.46730531706E+01 -0.81333652693E+01 -0.34077447374E+01  0.99800691748E+01  0.00000000000E+00 0.  1.
</event>
<event>
 8    1  0.1253703E-006  0.9118800E+02  0.7816164E-02  0.1184000E+00
        -11   -1    0    0    0    0  0.00000000000E+00  0.00000000000E+00  0.45593999997E+02  0.45594000000E+02  0.51100000000E-03 0. -1.
         11   -1    0    0    0    0 -0.00000000000E+00 -0.00000000000E+00 -0.45593999997E+02  0.45594000000E+02  0.51100000000E-03 0.  1.
         23    2    1    2    0    0  0.17763568394E-14 -0.88817841970E-15  0.00000000000E+00  0.91188000000E+02  0.91188000000E+02 0.  0.
    9900012    2    3    3    0    0  0.14295344735E+02 -0.48343789016E+01 -0.33586445789E+02  0.54367116779E+02  0.40000074321E+02 0.  0.
         12    1    3    3    0    0 -0.14295344735E+02  0.48343789016E+01  0.33586445789E+02  0.36820883221E+02  0.00000000000E+00 0. -1.
         11    1    4    4    0    0  0.10610853023E+02  0.88044651417E+01 -0.90301117761E+00  0.13817533708E+02  0.51100000000E-03 0. -1.
        -11    1    4    4    0    0  0.59704217966E+01 -0.17911243007E+02 -0.23302025625E+02  0.29990714579E+02  0.51100000000E-03 0.  1.
        -12    1    4    4    0    0 -0.22859300853E+01  0.42723989636E+01 -0.93814089864E+01  0.10558868492E+02  0.00000000000E+00 0.  1.
</event>
<event>
 8    1  0.1253703E-006  0.9118800E+02  0.7816164E-02  0.1184000E+00
        -11   -1    0    0    0    0  0.00000000000E+00  0.00000000000E+00  0.45593999997E+02  0.45594000000E+02  0.51100000000E-03 0.  1.
         11   -1    0    0    0    0 -0.00000000000E+00 -0.00000000000E+00 -0.45593999997E+02  0.45594000000E+02  0.51100000000E-03 0. -1.
         23    2    1    2    0    0  0.00000000000E+00 -0.71054273576E-14 -0.88817841970E-15  0.91188000000E+02  0.91188000000E+02 0.  0.
    9900012    2    3    3    0    0  0.92552157745E+01  0.35008240008E+02  0.66741643355E+01  0.54367077183E+02  0.39999984054E+02 0.  0.
        -12    1    3    3    0    0 -0.92552157745E+01 -0.35008240008E+02 -0.66741643355E+01  0.36820922817E+02  0.00000000000E+00 0.  1.
         11    1    4    4    0    0  0.54994964262E+01  0.37680627895E+01 -0.91866098160E+01  0.11350619292E+02  0.51100000000E-03 0. -1.
        -11    1    4    4    0    0 -0.56312257674E+01  0.13413113682E+01 -0.29182982143E+01  0.64827682790E+01  0.51100000000E-03 0.  1.
         12    1    4    4    0    0  0.93869451157E+01  0.29898865851E+02  0.18779072366E+02  0.36533689612E+02  0.00000000000E+00 0. -1.
</event>
<event>
 8    1  0.1253703E-006  0.9118800E+02  0.7816164E-02  0.1184000E+00
        -11   -1    0    0    0    0  0.00000000000E+00  0.00000000000E+00  0.45593999997E+02  0.45594000000E+02  0.51100000000E-03 0.  1.
         11   -1    0    0    0    0 -0.00000000000E+00 -0.00000000000E+00 -0.45593999997E+02  0.45594000000E+02  0.51100000000E-03 0. -1.
         23    2    1    2    0    0  0.00000000000E+00  0.35527136788E-14 -0.35527136788E-14  0.91188000000E+02  0.91188000000E+02 0.  0.
    9900012    2    3    3    0    0  0.11074159051E+02 -0.23673366801E+02  0.25936689463E+02  0.54367120669E+02  0.40000083190E+02 0.  0.
         12    1    3    3    0    0 -0.11074159051E+02  0.23673366801E+02 -0.25936689463E+02  0.36820879331E+02  0.00000000000E+00 0. -1.
         11    1    4    4    0    0 -0.88453749906E+01 -0.18725461697E+02  0.19169702409E+01  0.20798037159E+02  0.51100000000E-03 0. -1.
        -11    1    4    4    0    0  0.11066917008E+02 -0.72571162261E+01  0.90763464885E+01  0.16047506156E+02  0.51100000000E-03 0.  1.
        -12    1    4    4    0    0  0.88526170340E+01  0.23092111218E+01  0.14943372733E+02  0.17521577355E+02  0.00000000000E+00 0.  1.
</event>
<event>
 8    1  0.1253703E-006  0.9118800E+02  0.7816164E-02  0.1184000E+00
        -11   -1    0    0    0    0  0.00000000000E+00  0.00000000000E+00  0.45593999997E+02  0.45594000000E+02  0.51100000000E-03 0.  1.
         11   -1    0    0    0    0 -0.00000000000E+00 -0.00000000000E+00 -0.45593999997E+02  0.45594000000E+02  0.51100000000E-03 0. -1.
         23    2    1    2    0    0  0.00000000000E+00  0.00000000000E+00  0.35527136788E-14  0.91188000000E+02  0.91188000000E+02 0.  0.
    9900012    2    3    3    0    0 -0.23556565566E+02 -0.20431621979E+02  0.19581024216E+02  0.54367089266E+02  0.40000011600E+02 0.  0.
        -12    1    3    3    0    0  0.23556565566E+02  0.20431621979E+02 -0.19581024216E+02  0.36820910734E+02  0.00000000000E+00 0.  1.
         11    1    4    4    0    0  0.45287528807E+01  0.31830751245E+01  0.22495110230E+01  0.59751041837E+01  0.51100000000E-03 0. -1.
        -11    1    4    4    0    0 -0.18424729119E+02 -0.61939466743E+01  0.20467200437E+02  0.28226617093E+02  0.51100000000E-03 0.  1.
         12    1    4    4    0    0 -0.96605893273E+01 -0.17420750429E+02 -0.31356872439E+01  0.20165367990E+02  0.00000000000E+00 0. -1.
</event>
<event>
 8    1  0.1253703E-006  0.9118800E+02  0.7816164E-02  0.1184000E+00
        -11   -1    0    0    0    0  0.00000000000E+00  0.00000000000E+00  0.45593999997E+02  0.45594000000E+02  0.51100000000E-03 0.  1.
         11   -1    0    0    0    0 -0.00000000000E+00 -0.00000000000E+00 -0.45593999997E+02  0.45594000000E+02  0.51100000000E-03 0. -1.
         23    2    1    2    0    0  0.00000000000E+00  0.35527136788E-14  0.00000000000E+00  0.91188000000E+02  0.91188000000E+02 0.  0.
    9900012    2    3    3    0    0 -0.10494392184E+02 -0.21909243738E+02 -0.27670104461E+02  0.54367056104E+02  0.39999936000E+02 0.  0.
        -12    1    3    3    0    0  0.10494392184E+02  0.21909243738E+02  0.27670104461E+02  0.36820943896E+02  0.00000000000E+00 0.  1.
         11    1    4    4    0    0 -0.83948697137E+01 -0.50817061589E+01 -0.20355673155E+02  0.22597588474E+02  0.51100000000E-03 0. -1.
        -11    1    4    4    0    0 -0.34560879947E+01 -0.12611984621E+02 -0.16806775687E+02  0.21294938590E+02  0.51100000000E-03 0.  1.
        -12    1    4    4    0    0  0.13565655247E+01 -0.42155529577E+01  0.94923443804E+01  0.10474529039E+02  0.00000000000E+00 0.  1.
</event>
<event>
 8    1  0.1253703E-006  0.9118800E+02  0.7816164E-02  0.1184000E+00
        -11   -1    0    0    0    0  0.00000000000E+00  0.00000000000E+00  0.45593999997E+02  0.45594000000E+02  0.51100000000E-03 0. -1.
         11   -1    0    0    0    0 -0.00000000000E+00 -0.00000000000E+00 -0.45593999997E+02  0.45594000000E+02  0.51100000000E-03 0.  1.
         23    2    1    2    0    0  0.17763568394E-14 -0.71054273576E-14  0.88817841970E-15  0.91188000000E+02  0.91188000000E+02 0.  0.
    9900012    2    3    3    0    0 -0.98054095766E+01  0.34734433533E+02  0.72905752386E+01  0.54367089947E+02  0.40000013152E+02 0.  0.
        -12    1    3    3    0    0  0.98054095766E+01 -0.34734433533E+02 -0.72905752386E+01  0.36820910053E+02  0.00000000000E+00 0.  1.
         11    1    4    4    0    0 -0.54823466492E+01  0.25808999718E+02  0.22141647155E+02  0.34444348306E+02  0.51100000000E-03 0. -1.
        -11    1    4    4    0    0 -0.46806666309E+01  0.21455697343E+01 -0.10931025152E+02  0.12083022003E+02  0.51100000000E-03 0.  1.
         12    1    4    4    0    0  0.35760370351E+00  0.67798640809E+01 -0.39200467651E+01  0.78397196381E+01  0.00000000000E+00 0. -1.
</event>
<event>
 8    1  0.1253703E-006  0.9118800E+02  0.7816164E-02  0.1184000E+00
        -11   -1    0    0    0    0  0.00000000000E+00  0.00000000000E+00  0.45593999997E+02  0.45594000000E+02  0.51100000000E-03 0. -1.
         11   -1    0    0    0    0 -0.00000000000E+00 -0.00000000000E+00 -0.45593999997E+02  0.45594000000E+02  0.51100000000E-03 0.  1.
         23    2    1    2    0    0  0.22204460493E-15  0.35527136788E-14  0.35527136788E-14  0.91188000000E+02  0.91188000000E+02 0.  0.
    9900012    2    3    3    0    0 -0.36583036833E+00 -0.28684368126E+02 -0.23083624195E+02  0.54367075071E+02  0.39999979240E+02 0.  0.
         12    1    3    3    0    0  0.36583036833E+00  0.28684368126E+02  0.23083624195E+02  0.36820924929E+02  0.00000000000E+00 0. -1.
         11    1    4    4    0    0 -0.90126515038E+01 -0.18855258955E+02 -0.23152934813E+02  0.31189855211E+02  0.51100000000E-03 0. -1.
        -11    1    4    4    0    0  0.55314405705E+01 -0.12240503826E+02 -0.69530992295E+01  0.15125222572E+02  0.51100000000E-03 0.  1.
         12    1    4    4    0    0  0.31153805650E+01  0.24113946560E+01  0.70224098472E+01  0.80519972873E+01  0.00000000000E+00 0. -1.
</event>
<event>
 8    1  0.1253703E-006  0.9118800E+02  0.7816164E-02  0.1184000E+00
        -11   -1    0    0    0    0  0.00000000000E+00  0.00000000000E+00  0.45593999997E+02  0.45594000000E+02  0.51100000000E-03 0.  1.
         11   -1    0    0    0    0 -0.00000000000E+00 -0.00000000000E+00 -0.45593999997E+02  0.45594000000E+02  0.51100000000E-03 0. -1.
         23    2    1    2    0    0  0.00000000000E+00 -0.35527136788E-14  0.00000000000E+00  0.91188000000E+02  0.91188000000E+02 0.  0.
    9900012    2    3    3    0    0  0.27696264687E+01  0.15797402216E+02 -0.33144393742E+02  0.54367087680E+02  0.40000007983E+02 0.  0.
        -12    1    3    3    0    0 -0.27696264687E+01 -0.15797402216E+02  0.33144393742E+02  0.36820912320E+02  0.00000000000E+00 0.  1.
         11    1    4    4    0    0  0.14736087660E+02  0.11132130117E+02 -0.18862657492E+02  0.26398417535E+02  0.51100000000E-03 0. -1.
        -11    1    4    4    0    0  0.19067566205E+01 -0.61361738829E+01 -0.31234243238E+01  0.71445175133E+01  0.51100000000E-03 0.  1.
         12    1    4    4    0    0 -0.13873217811E+02  0.10801445982E+02 -0.11158311927E+02  0.20824152631E+02  0.00000000000E+00 0. -1.
</event>
<event>
 8    1  0.1253703E-006  0.9118800E+02  0.7816164E-02  0.1184000E+00
        -11   -1    0    0    0    0  0.00000000000E+00  0.00000000000E+00  0.45593999997E+02  0.45594000000E+02  0.51100000000E-03 0. -1.
         11   -1    0    0    0    0 -0.00000000000E+00 -0.00000000000E+00 -0.45593999997E+02  0.45594000000E+02  0.51100000000E-03 0.  1.
         23    2    1    2    0    0  0.17763568394E-14  0.00000000000E+00 -0.88817841970E-15  0.91188000000E+02  0.91188000000E+02 0.  0.
    9900012    2    3    3    0    0 -0.26166497183E+01 -0.36312044530E+02  0.55107871347E+01  0.54367079200E+02  0.39999988653E+02 0.  0.
        -12    1    3    3    0    0  0.26166497183E+01  0.36312044530E+02 -0.55107871347E+01  0.36820920800E+02  0.00000000000E+00 0.  1.
         11    1    4    4    0    0  0.12272197405E+02 -0.12687733162E+02  0.50914148984E+01  0.18371388295E+02  0.51100000000E-03 0. -1.
        -11    1    4    4    0    0 -0.12756384800E+02 -0.83551134050E+00  0.24538405092E+01  0.13017095139E+02  0.51100000000E-03 0.  1.
        -12    1    4    4    0    0 -0.21324623233E+01 -0.22788800027E+02 -0.20344682729E+01  0.22978595766E+02  0.00000000000E+00 0.  1.
</event>
<event>
 8    1  0.1253703E-006  0.9118800E+02  0.7816164E-02  0.1184000E+00
        -11   -1    0    0    0    0  0.00000000000E+00  0.00000000000E+00  0.45593999997E+02  0.45594000000E+02  0.51100000000E-03 0. -1.
         11   -1    0    0    0    0 -0.00000000000E+00 -0.00000000000E+00 -0.45593999997E+02  0.45594000000E+02  0.51100000000E-03 0.  1.
         23    2    1    2    0    0  0.00000000000E+00 -0.35527136788E-14 -0.17763568394E-14  0.91188000000E+02  0.91188000000E+02 0.  0.
    9900012    2    3    3    0    0 -0.23681594409E+02 -0.25435897733E+02 -0.12164522010E+02  0.54367103718E+02  0.40000044547E+02 0.  0.
         12    1    3    3    0    0  0.23681594409E+02  0.25435897733E+02  0.12164522010E+02  0.36820896282E+02  0.00000000000E+00 0. -1.
         11    1    4    4    0    0 -0.20287665062E+02 -0.20826745089E+02 -0.21581873975E+02  0.36209390346E+02  0.51100000000E-03 0.  1.
        -11    1    4    4    0    0 -0.38764457114E+01 -0.44990571260E+01  0.13130855777E+02  0.14411374677E+02  0.51100000000E-03 0. -1.
        -12    1    4    4    0    0  0.48251636430E+00 -0.11009551789E+00 -0.37135038117E+01  0.37463386959E+01  0.00000000000E+00 0.  1.
</event>
<event>
 8    1  0.1253703E-006  0.9118800E+02  0.7816164E-02  0.1184000E+00
        -11   -1    0    0    0    0  0.00000000000E+00  0.00000000000E+00  0.45593999997E+02  0.45594000000E+02  0.51100000000E-03 0. -1.
         11   -1    0    0    0    0 -0.00000000000E+00 -0.00000000000E+00 -0.45593999997E+02  0.45594000000E+02  0.51100000000E-03 0.  1.
         23    2    1    2    0    0  0.00000000000E+00  0.00000000000E+00  0.00000000000E+00  0.91188000000E+02  0.91188000000E+02 0.  0.
    9900012    2    3    3    0    0  0.32141520186E+02  0.17192151583E+02 -0.52088718462E+01  0.54367085538E+02  0.40000003102E+02 0.  0.
         12    1    3    3    0    0 -0.32141520186E+02 -0.17192151583E+02  0.52088718462E+01  0.36820914462E+02  0.00000000000E+00 0. -1.
         11    1    4    4    0    0  0.18265042151E+02  0.13069137624E+02 -0.18517111735E+02  0.29108375947E+02  0.51100000000E-03 0. -1.
        -11    1    4    4    0    0  0.65986783242E+01 -0.32812003765E+01 -0.11503768960E+01  0.74586995382E+01  0.51100000000E-03 0.  1.
         12    1    4    4    0    0  0.72777997105E+01  0.74042143352E+01  0.14458616785E+02  0.17800010053E+02  0.00000000000E+00 0. -1.
</event>
<event>
 8    1  0.1253703E-006  0.9118800E+02  0.7816164E-02  0.1184000E+00
        -11   -1    0    0    0    0  0.00000000000E+00  0.00000000000E+00  0.45593999997E+02  0.45594000000E+02  0.51100000000E-03 0.  1.
         11   -1    0    0    0    0 -0.00000000000E+00 -0.00000000000E+00 -0.45593999997E+02  0.45594000000E+02  0.51100000000E-03 0. -1.
         23    2    1    2    0    0  0.00000000000E+00  0.00000000000E+00  0.35527136788E-14  0.91188000000E+02  0.91188000000E+02 0.  0.
    9900012    2    3    3    0    0 -0.11264527384E+02  0.26130213228E+02 -0.23368850901E+02  0.54367070993E+02  0.39999969942E+02 0.  0.
        -12    1    3    3    0    0  0.11264527384E+02 -0.26130213228E+02  0.23368850901E+02  0.36820929007E+02  0.00000000000E+00 0.  1.
         11    1    4    4    0    0 -0.87365123882E+01  0.17142929503E+01 -0.24276173982E+02  0.25857263438E+02  0.51100000000E-03 0. -1.
        -11    1    4    4    0    0 -0.54714646469E+00  0.31880349643E+00  0.40757879477E+01  0.41246881796E+01  0.51100000000E-03 0.  1.
         12    1    4    4    0    0 -0.19808685311E+01  0.24097116781E+02 -0.31684648666E+01  0.24385119375E+02  0.00000000000E+00 0. -1.
</event>
<event>
 8    1  0.1253703E-006  0.9118800E+02  0.7816164E-02  0.1184000E+00
        -11   -1    0    0    0    0  0.00000000000E+00  0.00000000000E+00  0.45593999997E+02  0.45594000000E+02  0.51100000000E-03 0. -1.
         11   -1    0    0    0    0 -0.00000000000E+00 -0.00000000000E+00 -0.45593999997E+02  0.45594000000E+02  0.51100000000E-03 0.  1.
         23    2    1    2    0    0  0.88817841970E-15  0.35527136788E-14  0.00000000000E+00  0.91188000000E+02  0.91188000000E+02 0.  0.
    9900012    2    3    3    0    0 -0.77339151063E+01  0.30489728486E+02 -0.19140085973E+02  0.54367083701E+02  0.39999998914E+02 0.  0.
         12    1    3    3    0    0  0.77339151063E+01 -0.30489728486E+02  0.19140085973E+02  0.36820916299E+02  0.00000000000E+00 0. -1.
         11    1    4    4    0    0  0.37473703375E+01  0.27235389641E+02  0.98832833340E+00  0.27509744210E+02  0.51100000000E-03 0. -1.
        -11    1    4    4    0    0 -0.57822068827E+01 -0.44243653464E+01 -0.13108573812E+02  0.14994786854E+02  0.51100000000E-03 0.  1.
         12    1    4    4    0    0 -0.56990785611E+01  0.76787041909E+01 -0.70198404951E+01  0.11862552637E+02  0.00000000000E+00 0. -1.
</event>
<event>
 8    1  0.1253703E-006  0.9118800E+02  0.7816164E-02  0.1184000E+00
        -11   -1    0    0    0    0  0.00000000000E+00  0.00000000000E+00  0.45593999997E+02  0.45594000000E+02  0.51100000000E-03 0.  1.
         11   -1    0    0    0    0 -0.00000000000E+00 -0.00000000000E+00 -0.45593999997E+02  0.45594000000E+02  0.51100000000E-03 0. -1.
         23    2    1    2    0    0  0.00000000000E+00  0.00000000000E+00 -0.88817841970E-15  0.91188000000E+02  0.91188000000E+02 0.  0.
    9900012    2    3    3    0    0 -0.87487014431E+01 -0.35374937707E+02 -0.52776481718E+01  0.54367087940E+02  0.40000008576E+02 0.  0.
         12    1    3    3    0    0  0.87487014431E+01  0.35374937707E+02  0.52776481718E+01  0.36820912060E+02  0.00000000000E+00 0. -1.
         11    1    4    4    0    0  0.36712155822E+01 -0.12289500611E+02 -0.12964128770E+02  0.18236728987E+02  0.51100000000E-03 0. -1.
        -11    1    4    4    0    0  0.58784305473E+01 -0.10481138655E+02  0.69856787068E+01  0.13899997139E+02  0.51100000000E-03 0.  1.
         12    1    4    4    0    0 -0.18298347573E+02 -0.12604298442E+02  0.70080189141E+00  0.22230361814E+02  0.00000000000E+00 0. -1.
</event>
<event>
 8    1  0.1253703E-006  0.9118800E+02  0.7816164E-02  0.1184000E+00
        -11   -1    0    0    0    0  0.00000000000E+00  0.00000000000E+00  0.45593999997E+02  0.45594000000E+02  0.51100000000E-03 0. -1.
         11   -1    0    0    0    0 -0.00000000000E+00 -0.00000000000E+00 -0.45593999997E+02  0.45594000000E+02  0.51100000000E-03 0.  1.
         23    2    1    2    0    0  0.00000000000E+00  0.17763568394E-14  0.35527136788E-14  0.91188000000E+02  0.91188000000E+02 0.  0.
    9900012    2    3    3    0    0  0.23387441033E+02 -0.11909585626E+02  0.25825730906E+02  0.54367095547E+02  0.40000025919E+02 0.  0.
        -12    1    3    3    0    0 -0.23387441033E+02  0.11909585626E+02 -0.25825730906E+02  0.36820904453E+02  0.00000000000E+00 0.  1.
         11    1    4    4    0    0  0.51300322748E+01 -0.19084602482E+02  0.14141826334E+02  0.24300834046E+02  0.51100000000E-03 0. -1.
        -11    1    4    4    0    0  0.17150728218E+02 -0.28012587063E+01  0.52900474274E+01  0.18165327710E+02  0.51100000000E-03 0.  1.
        -12    1    4    4    0    0  0.11066805400E+01  0.99762755623E+01  0.63938571451E+01  0.11900933791E+02  0.00000000000E+00 0.  1.
</event>
<event>
 8    1  0.1253703E-006  0.9118800E+02  0.7816164E-02  0.1184000E+00
        -11   -1    0    0    0    0  0.00000000000E+00  0.00000000000E+00  0.45593999997E+02  0.45594000000E+02  0.51100000000E-03 0.  1.
         11   -1    0    0    0    0 -0.00000000000E+00 -0.00000000000E+00 -0.45593999997E+02  0.45594000000E+02  0.51100000000E-03 0. -1.
         23    2    1    2    0    0  0.35527136788E-14  0.17763568394E-14 -0.35527136788E-14  0.91188000000E+02  0.91188000000E+02 0.  0.
    9900012    2    3    3    0    0  0.20504188321E+02  0.14756666607E+02  0.26787943064E+02  0.54367152078E+02  0.40000154792E+02 0.  0.
         12    1    3    3    0    0 -0.20504188321E+02 -0.14756666607E+02 -0.26787943064E+02  0.36820847922E+02  0.00000000000E+00 0. -1.
         11    1    4    4    0    0  0.13067310127E+01  0.14073013283E+02  0.65923422947E+01  0.15595391178E+02  0.51100000000E-03 0. -1.
        -11    1    4    4    0    0 -0.31685522622E+01 -0.61739796179E+01 -0.12316980169E+01  0.70480371755E+01  0.51100000000E-03 0.  1.
        -12    1    4    4    0    0  0.22366009571E+02  0.68576329422E+01  0.21427298787E+02  0.31723723725E+02  0.00000000000E+00 0.  1.
</event>
<event>
 8    1  0.1253703E-006  0.9118800E+02  0.7816164E-02  0.1184000E+00
        -11   -1    0    0    0    0  0.00000000000E+00  0.00000000000E+00  0.45593999997E+02  0.45594000000E+02  0.51100000000E-03 0.  1.
         11   -1    0    0    0    0 -0.00000000000E+00 -0.00000000000E+00 -0.45593999997E+02  0.45594000000E+02  0.51100000000E-03 0. -1.
         23    2    1    2    0    0  0.17763568394E-14  0.17763568394E-14  0.00000000000E+00  0.91188000000E+02  0.91188000000E+02 0.  0.
    9900012    2    3    3    0    0  0.15492869555E+02  0.94719966509E+01 -0.32031734689E+02  0.54367085362E+02  0.40000002700E+02 0.  0.
        -12    1    3    3    0    0 -0.15492869555E+02 -0.94719966509E+01  0.32031734689E+02  0.36820914638E+02  0.00000000000E+00 0.  1.
         11    1    4    4    0    0  0.79267145865E+01  0.15121651764E+02 -0.73913037088E+01  0.18604529744E+02  0.51100000000E-03 0. -1.
        -11    1    4    4    0    0  0.75079800846E+01 -0.11184629649E+02 -0.35121655409E+01  0.13921243206E+02  0.51100000000E-03 0.  1.
        -12    1    4    4    0    0  0.58174883872E-01  0.55349745359E+01 -0.21128265439E+02  0.21841312412E+02  0.00000000000E+00 0.  1.
</event>
<event>
 8    1  0.1253703E-006  0.9118800E+02  0.7816164E-02  0.1184000E+00
        -11   -1    0    0    0    0  0.00000000000E+00  0.00000000000E+00  0.45593999997E+02  0.45594000000E+02  0.51100000000E-03 0. -1.
         11   -1    0    0    0    0 -0.00000000000E+00 -0.00000000000E+00 -0.45593999997E+02  0.45594000000E+02  0.51100000000E-03 0.  1.
         23    2    1    2    0    0  0.00000000000E+00  0.17763568394E-14  0.00000000000E+00  0.91188000000E+02  0.91188000000E+02 0.  0.
    9900012    2    3    3    0    0 -0.19860894526E+02 -0.11898038329E+02  0.28631366640E+02  0.54367168896E+02  0.40000193133E+02 0.  0.
        -12    1    3    3    0    0  0.19860894526E+02  0.11898038329E+02 -0.28631366640E+02  0.36820831104E+02  0.00000000000E+00 0.  1.
         11    1    4    4    0    0 -0.23558881249E+02  0.11184090369E+01  0.28113954548E+01  0.23752382389E+02  0.51100000000E-03 0. -1.
        -11    1    4    4    0    0  0.55190907294E+01 -0.34789250417E+01  0.12867488175E+02  0.14426903137E+02  0.51100000000E-03 0.  1.
         12    1    4    4    0    0 -0.18211040068E+01 -0.95375223245E+01  0.12952483010E+02  0.16187883371E+02  0.00000000000E+00 0. -1.
</event>
<event>
 8    1  0.1253703E-006  0.9118800E+02  0.7816164E-02  0.1184000E+00
        -11   -1    0    0    0    0  0.00000000000E+00  0.00000000000E+00  0.45593999997E+02  0.45594000000E+02  0.51100000000E-03 0.  1.
         11   -1    0    0    0    0 -0.00000000000E+00 -0.00000000000E+00 -0.45593999997E+02  0.45594000000E+02  0.51100000000E-03 0. -1.
         23    2    1    2    0    0  0.00000000000E+00  0.00000000000E+00 -0.35527136788E-14  0.91188000000E+02  0.91188000000E+02 0.  0.
    9900012    2    3    3    0    0  0.41582375938E+01 -0.19598331001E+02  0.30893295815E+02  0.54367065136E+02  0.39999956592E+02 0.  0.
         12    1    3    3    0    0 -0.41582375938E+01  0.19598331001E+02 -0.30893295815E+02  0.36820934864E+02  0.00000000000E+00 0. -1.
         11    1    4    4    0    0 -0.15567257184E+02 -0.90639013994E+00  0.12541618241E+02  0.20011327485E+02  0.51100000000E-03 0.  1.
        -11    1    4    4    0    0  0.89383913129E+01 -0.22592370634E+01  0.41796734839E+01  0.10122680577E+02  0.51100000000E-03 0. -1.
        -12    1    4    4    0    0  0.10787103465E+02 -0.16432703798E+02  0.14172004090E+02  0.24233057075E+02  0.00000000000E+00 0.  1.
</event>
<event>
 8    1  0.1253703E-006  0.9118800E+02  0.7816164E-02  0.1184000E+00
        -11   -1    0    0    0    0  0.00000000000E+00  0.00000000000E+00  0.45593999997E+02  0.45594000000E+02  0.51100000000E-03 0. -1.
         11   -1    0    0    0    0 -0.00000000000E+00 -0.00000000000E+00 -0.45593999997E+02  0.45594000000E+02  0.51100000000E-03 0.  1.
         23    2    1    2    0    0  0.00000000000E+00  0.00000000000E+00 -0.35527136788E-14  0.91188000000E+02  0.91188000000E+02 0.  0.
    9900012    2    3    3    0    0  0.28158988010E+02  0.78785787093E+01  0.22378096517E+02  0.54367084586E+02  0.40000000931E+02 0.  0.
        -12    1    3    3    0    0 -0.28158988010E+02 -0.78785787093E+01 -0.22378096517E+02  0.36820915414E+02  0.00000000000E+00 0.  1.
         11    1    4    4    0    0  0.23106199174E+01  0.46960014357E+01  0.69125711747E+01  0.86703537640E+01  0.51100000000E-03 0. -1.
        -11    1    4    4    0    0  0.28708047884E+02 -0.66518893570E+00  0.22983069964E+02  0.36780647015E+02  0.51100000000E-03 0.  1.
         12    1    4    4    0    0 -0.28596797916E+01  0.38477662093E+01 -0.75175446217E+01  0.89160838069E+01  0.00000000000E+00 0. -1.
</event>
<event>
 8    1  0.1253703E-006  0.9118800E+02  0.7816164E-02  0.1184000E+00
        -11   -1    0    0    0    0  0.00000000000E+00  0.00000000000E+00  0.45593999997E+02  0.45594000000E+02  0.51100000000E-03 0.  1.
         11   -1    0    0    0    0 -0.00000000000E+00 -0.00000000000E+00 -0.45593999997E+02  0.45594000000E+02  0.51100000000E-03 0. -1.
         23    2    1    2    0    0  0.00000000000E+00  0.00000000000E+00 -0.35527136788E-14  0.91188000000E+02  0.91188000000E+02 0.  0.
    9900012    2    3    3    0    0 -0.13309652416E+02 -0.21544656797E+02 -0.26729355556E+02  0.54367115541E+02  0.40000071499E+02 0.  0.
        -12    1    3    3    0    0  0.13309652416E+02  0.21544656797E+02  0.26729355556E+02  0.36820884459E+02  0.00000000000E+00 0.  1.
         11    1    4    4    0    0 -0.52869484456E+01  0.15892367641E+01 -0.11554350002E+02  0.12805487168E+02  0.51100000000E-03 0. -1.
        -11    1    4    4    0    0  0.10332115207E+02 -0.14890843426E+02 -0.10346373487E+02  0.20869529635E+02  0.51100000000E-03 0.  1.
        -12    1    4    4    0    0 -0.18354819177E+02 -0.82430501352E+01 -0.48286320666E+01  0.20692098738E+02  0.00000000000E+00 0.  1.
</event>
<event>
 8    1  0.1253703E-006  0.9118800E+02  0.7816164E-02  0.1184000E+00
        -11   -1    0    0    0    0  0.00000000000E+00  0.00000000000E+00  0.45593999997E+02  0.45594000000E+02  0.51100000000E-03 0.  1.
         11   -1    0    0    0    0 -0.00000000000E+00 -0.00000000000E+00 -0.45593999997E+02  0.45594000000E+02  0.51100000000E-03 0. -1.
         23    2    1    2    0    0  0.71054273576E-14  0.00000000000E+00  0.43021142204E-15  0.91188000000E+02  0.91188000000E+02 0.  0.
    9900012    2    3    3    0    0  0.36200333858E+02 -0.67313996437E+01  0.66934589199E-01  0.54367076698E+02  0.39999982947E+02 0.  0.
        -12    1    3    3    0    0 -0.36200333858E+02  0.67313996437E+01 -0.66934589199E-01  0.36820923302E+02  0.00000000000E+00 0.  1.
         11    1    4    4    0    0 -0.97218541891E+00 -0.59478165384E+01  0.52405337231E+01  0.79865424325E+01  0.51100000000E-03 0. -1.
        -11    1    4    4    0    0 -0.23947435047E+01 -0.57327533134E+01 -0.86791574913E+00  0.62731598907E+01  0.51100000000E-03 0.  1.
         12    1    4    4    0    0  0.39567262782E+02  0.49491702081E+01 -0.43056833847E+01  0.40107374374E+02  0.00000000000E+00 0. -1.
</event>
<event>
 8    1  0.1253703E-006  0.9118800E+02  0.7816164E-02  0.1184000E+00
        -11   -1    0    0    0    0  0.00000000000E+00  0.00000000000E+00  0.45593999997E+02  0.45594000000E+02  0.51100000000E-03 0.  1.
         11   -1    0    0    0    0 -0.00000000000E+00 -0.00000000000E+00 -0.45593999997E+02  0.45594000000E+02  0.51100000000E-03 0. -1.
         23    2    1    2    0    0  0.00000000000E+00 -0.35527136788E-14  0.00000000000E+00  0.91188000000E+02  0.91188000000E+02 0.  0.
    9900012    2    3    3    0    0 -0.22765397008E+02  0.16445572327E+02 -0.23813364767E+02  0.54366858090E+02  0.39999484584E+02 0.  0.
        -12    1    3    3    0    0  0.22765397008E+02 -0.16445572327E+02  0.23813364767E+02  0.36821141910E+02  0.00000000000E+00 0.  1.
         11    1    4    4    0    0 -0.11560155386E+01  0.12265300489E+02  0.48002113040E+01  0.13221800061E+02  0.51100000000E-03 0. -1.
        -11    1    4    4    0    0 -0.12132410529E+02  0.38712430193E+01 -0.28981295954E+02  0.31655922404E+02  0.51100000000E-03 0.  1.
        -12    1    4    4    0    0 -0.94769709396E+01  0.30902881801E+00  0.36771988391E+00  0.94891356252E+01  0.00000000000E+00 0.  1.
</event>
<event>
 8    1  0.1253703E-006  0.9118800E+02  0.7816164E-02  0.1184000E+00
        -11   -1    0    0    0    0  0.00000000000E+00  0.00000000000E+00  0.45593999997E+02  0.45594000000E+02  0.51100000000E-03 0.  1.
         11   -1    0    0    0    0 -0.00000000000E+00 -0.00000000000E+00 -0.45593999997E+02  0.45594000000E+02  0.51100000000E-03 0. -1.
         23    2    1    2    0    0 -0.71054273576E-14 -0.88817841970E-15  0.35527136788E-14  0.91188000000E+02  0.91188000000E+02 0.  0.
    9900012    2    3    3    0    0  0.33418527922E+02  0.66441191993E+01 -0.13958403009E+02  0.54367090954E+02  0.40000015448E+02 0.  0.
        -12    1    3    3    0    0 -0.33418527922E+02 -0.66441191993E+01  0.13958403009E+02  0.36820909046E+02  0.00000000000E+00 0.  1.
         11    1    4    4    0    0  0.36269156137E+01 -0.16364766844E-01  0.32377894787E+01  0.48618993865E+01  0.51100000000E-03 0. -1.
        -11    1    4    4    0    0  0.12552332240E+02 -0.72622561854E+00  0.10278100669E+02  0.16239698332E+02  0.51100000000E-03 0.  1.
         12    1    4    4    0    0  0.17239280069E+02  0.73867095847E+01 -0.27474293156E+02  0.33265493235E+02  0.00000000000E+00 0. -1.
</event>
<event>
 8    1  0.1253703E-006  0.9118800E+02  0.7816164E-02  0.1184000E+00
        -11   -1    0    0    0    0  0.00000000000E+00  0.00000000000E+00  0.45593999997E+02  0.45594000000E+02  0.51100000000E-03 0. -1.
         11   -1    0    0    0    0 -0.00000000000E+00 -0.00000000000E+00 -0.45593999997E+02  0.45594000000E+02  0.51100000000E-03 0.  1.
         23    2    1    2    0    0 -0.88817841970E-15  0.17763568394E-14  0.00000000000E+00  0.91188000000E+02  0.91188000000E+02 0.  0.
    9900012    2    3    3    0    0 -0.70261471671E+01 -0.14846754704E+02  0.32954373498E+02  0.54367033121E+02  0.39999883606E+02 0.  0.
        -12    1    3    3    0    0  0.70261471671E+01  0.14846754704E+02 -0.32954373498E+02  0.36820966879E+02  0.00000000000E+00 0.  1.
         11    1    4    4    0    0 -0.10743719895E+02 -0.54746619670E+01  0.15650702778E+02  0.19757123742E+02  0.51100000000E-03 0. -1.
        -11    1    4    4    0    0  0.87377038419E+01 -0.17977480705E+01  0.22456628741E+02  0.24163599509E+02  0.51100000000E-03 0.  1.
        -12    1    4    4    0    0 -0.50201311143E+01 -0.75743446664E+01 -0.51529580219E+01  0.10446309870E+02  0.00000000000E+00 0.  1.
</event>
<event>
 8    1  0.1253703E-006  0.9118800E+02  0.7816164E-02  0.1184000E+00
        -11   -1    0    0    0    0  0.00000000000E+00  0.00000000000E+00  0.45593999997E+02  0.45594000000E+02  0.51100000000E-03 0.  1.
         11   -1    0    0    0    0 -0.00000000000E+00 -0.00000000000E+00 -0.45593999997E+02  0.45594000000E+02  0.51100000000E-03 0. -1.
         23    2    1    2    0    0  0.22204460493E-15  0.00000000000E+00  0.35527136788E-14  0.91188000000E+02  0.91188000000E+02 0.  0.
    9900012    2    3    3    0    0 -0.16167382722E+01  0.28092253367E+02 -0.23748492503E+02  0.54367089663E+02  0.40000012505E+02 0.  0.
        -12    1    3    3    0    0  0.16167382722E+01 -0.28092253367E+02  0.23748492503E+02  0.36820910337E+02  0.00000000000E+00 0.  1.
         11    1    4    4    0    0  0.39163142563E+01  0.40969688778E+01 -0.63670377539E+01  0.85241915370E+01  0.51100000000E-03 0. -1.
        -11    1    4    4    0    0 -0.29700022405E+01  0.30951215127E+02 -0.21072942418E+02  0.37561516657E+02  0.51100000000E-03 0.  1.
        -12    1    4    4    0    0 -0.25630502880E+01 -0.69559306379E+01  0.36914876695E+01  0.82813814688E+01  0.00000000000E+00 0.  1.
</event>
<event>
 8    1  0.1253703E-006  0.9118800E+02  0.7816164E-02  0.1184000E+00
        -11   -1    0    0    0    0  0.00000000000E+00  0.00000000000E+00  0.45593999997E+02  0.45594000000E+02  0.51100000000E-03 0.  1.
         11   -1    0    0    0    0 -0.00000000000E+00 -0.00000000000E+00 -0.45593999997E+02  0.45594000000E+02  0.51100000000E-03 0. -1.
         23    2    1    2    0    0  0.00000000000E+00 -0.88817841970E-15  0.00000000000E+00  0.91188000000E+02  0.91188000000E+02 0.  0.
    9900012    2    3    3    0    0  0.29572588751E+02 -0.54683844262E+01 -0.21244714292E+02  0.54367093995E+02  0.40000022381E+02 0.  0.
        -12    1    3    3    0    0 -0.29572588751E+02  0.54683844262E+01  0.21244714292E+02  0.36820906005E+02  0.00000000000E+00 0.  1.
         11    1    4    4    0    0  0.24523638521E+01  0.80373003109E+01 -0.10791473429E+02  0.13677287150E+02  0.51100000000E-03 0. -1.
        -11    1    4    4    0    0  0.28318125821E+02 -0.17606332880E+02 -0.49306257602E+01  0.33707718377E+02  0.51100000000E-03 0.  1.
        -12    1    4    4    0    0 -0.11979009223E+01  0.41006481431E+01 -0.55226151028E+01  0.69820884689E+01  0.00000000000E+00 0.  1.
</event>
<event>
 8    1  0.1253703E-006  0.9118800E+02  0.7816164E-02  0.1184000E+00
        -11   -1    0    0    0    0  0.00000000000E+00  0.00000000000E+00  0.45593999997E+02  0.45594000000E+02  0.51100000000E-03 0. -1.
         11   -1    0    0    0    0 -0.00000000000E+00 -0.00000000000E+00 -0.45593999997E+02  0.45594000000E+02  0.51100000000E-03 0.  1.
         23    2    1    2    0    0 -0.44408920985E-15 -0.71054273576E-14 -0.35527136788E-14  0.91188000000E+02  0.91188000000E+02 0.  0.
    9900012    2    3    3    0    0 -0.27086148495E+01  0.30083204932E+02  0.21058112876E+02  0.54367082965E+02  0.39999997236E+02 0.  0.
        -12    1    3    3    0    0  0.27086148495E+01 -0.30083204932E+02 -0.21058112876E+02  0.36820917035E+02  0.00000000000E+00 0.  1.
         11    1    4    4    0    0 -0.37208210416E+01  0.13294503056E+02  0.97221666869E+01  0.16885166451E+02  0.51100000000E-03 0. -1.
        -11    1    4    4    0    0  0.61803497175E+01  0.17119996561E+02  0.20215726355E+02  0.27202327055E+02  0.51100000000E-03 0.  1.
        -12    1    4    4    0    0 -0.51681435253E+01 -0.33129468534E+00 -0.88797801654E+01  0.10279589459E+02  0.00000000000E+00 0.  1.
</event>
<event>
 8    1  0.1253703E-006  0.9118800E+02  0.7816164E-02  0.1184000E+00
        -11   -1    0    0    0    0  0.00000000000E+00  0.00000000000E+00  0.45593999997E+02  0.45594000000E+02  0.51100000000E-03 0.  1.
         11   -1    0    0    0    0 -0.00000000000E+00 -0.00000000000E+00 -0.45593999997E+02  0.45594000000E+02  0.51100000000E-03 0. -1.
         23    2    1    2    0    0  0.00000000000E+00  0.00000000000E+00  0.00000000000E+00  0.91188000000E+02  0.91188000000E+02 0.  0.
    9900012    2    3    3    0    0 -0.24661232057E+02 -0.14818689364E+02 -0.22978448939E+02  0.54367095113E+02  0.40000024930E+02 0.  0.
        -12    1    3    3    0    0  0.24661232057E+02  0.14818689364E+02  0.22978448939E+02  0.36820904887E+02  0.00000000000E+00 0.  1.
         11    1    4    4    0    0 -0.20583471812E+02 -0.68495079248E+01 -0.95275807862E+01  0.23693245167E+02  0.51100000000E-03 0. -1.
        -11    1    4    4    0    0 -0.70411990788E+01 -0.52219955128E+01 -0.20641335416E+02  0.22425709568E+02  0.51100000000E-03 0.  1.
        -12    1    4    4    0    0  0.29634388330E+01 -0.27471859260E+01  0.71904672639E+01  0.82481403784E+01  0.00000000000E+00 0.  1.
</event>
<event>
 8    1  0.1253703E-006  0.9118800E+02  0.7816164E-02  0.1184000E+00
        -11   -1    0    0    0    0  0.00000000000E+00  0.00000000000E+00  0.45593999997E+02  0.45594000000E+02  0.51100000000E-03 0. -1.
         11   -1    0    0    0    0 -0.00000000000E+00 -0.00000000000E+00 -0.45593999997E+02  0.45594000000E+02  0.51100000000E-03 0.  1.
         23    2    1    2    0    0  0.00000000000E+00 -0.35527136788E-14  0.35527136788E-14  0.91188000000E+02  0.91188000000E+02 0.  0.
    9900012    2    3    3    0    0  0.21806635080E+02  0.28479364942E+02 -0.83173385614E+01  0.54367059195E+02  0.39999943047E+02 0.  0.
         12    1    3    3    0    0 -0.21806635080E+02 -0.28479364942E+02  0.83173385614E+01  0.36820940805E+02  0.00000000000E+00 0. -1.
         11    1    4    4    0    0  0.14616117739E+02 -0.56650646057E+01  0.91162258543E+00  0.15702067085E+02  0.51100000000E-03 0. -1.
        -11    1    4    4    0    0 -0.11680342385E+01  0.13942256348E+02  0.19218958682E+01  0.14122482078E+02  0.51100000000E-03 0.  1.
         12    1    4    4    0    0  0.83585515793E+01  0.20202173199E+02 -0.11150857015E+02  0.24542510032E+02  0.00000000000E+00 0. -1.
</event>
<event>
 8    1  0.1253703E-006  0.9118800E+02  0.7816164E-02  0.1184000E+00
        -11   -1    0    0    0    0  0.00000000000E+00  0.00000000000E+00  0.45593999997E+02  0.45594000000E+02  0.51100000000E-03 0.  1.
         11   -1    0    0    0    0 -0.00000000000E+00 -0.00000000000E+00 -0.45593999997E+02  0.45594000000E+02  0.51100000000E-03 0. -1.
         23    2    1    2    0    0  0.22204460493E-14  0.44408920985E-15 -0.71054273576E-14  0.91188000000E+02  0.91188000000E+02 0.  0.
    9900012    2    3    3    0    0 -0.17100279476E+01 -0.17495332750E+01 -0.36739597980E+02  0.54367039638E+02  0.39999898462E+02 0.  0.
        -12    1    3    3    0    0  0.17100279476E+01  0.17495332750E+01  0.36739597980E+02  0.36820960362E+02  0.00000000000E+00 0.  1.
         11    1    4    4    0    0  0.70875964870E+01 -0.16115254127E+01 -0.32257514039E+02  0.33066270584E+02  0.51100000000E-03 0. -1.
        -11    1    4    4    0    0 -0.11869584616E+02  0.43790136317E+01 -0.78445310851E+01  0.14886217368E+02  0.51100000000E-03 0.  1.
        -12    1    4    4    0    0  0.30719601811E+01 -0.45170214940E+01  0.33624471437E+01  0.64145516855E+01  0.00000000000E+00 0.  1.
</event>
<event>
 8    1  0.1253703E-006  0.9118800E+02  0.7816164E-02  0.1184000E+00
        -11   -1    0    0    0    0  0.00000000000E+00  0.00000000000E+00  0.45593999997E+02  0.45594000000E+02  0.51100000000E-03 0.  1.
         11   -1    0    0    0    0 -0.00000000000E+00 -0.00000000000E+00 -0.45593999997E+02  0.45594000000E+02  0.51100000000E-03 0. -1.
         23    2    1    2    0    0 -0.35527136788E-14 -0.88817841970E-15  0.00000000000E+00  0.91188000000E+02  0.91188000000E+02 0.  0.
    9900012    2    3    3    0    0  0.28433080508E+02 -0.54684780692E+01  0.22747211106E+02  0.54367082947E+02  0.39999997194E+02 0.  0.
         12    1    3    3    0    0 -0.28433080508E+02  0.54684780692E+01 -0.22747211106E+02  0.36820917053E+02  0.00000000000E+00 0. -1.
         11    1    4    4    0    0  0.16104989537E+02  0.54002901620E+01 -0.35234339925E+01  0.17347864687E+02  0.51100000000E-03 0. -1.
        -11    1    4    4    0    0  0.15086634602E+02 -0.37560969403E+00  0.13362855211E+02  0.20157220193E+02  0.51100000000E-03 0.  1.
         12    1    4    4    0    0 -0.27585436316E+01 -0.10493158537E+02  0.12907789887E+02  0.16861998068E+02  0.00000000000E+00 0. -1.
</event>
<event>
 8    1  0.1253703E-006  0.9118800E+02  0.7816164E-02  0.1184000E+00
        -11   -1    0    0    0    0  0.00000000000E+00  0.00000000000E+00  0.45593999997E+02  0.45594000000E+02  0.51100000000E-03 0. -1.
         11   -1    0    0    0    0 -0.00000000000E+00 -0.00000000000E+00 -0.45593999997E+02  0.45594000000E+02  0.51100000000E-03 0.  1.
         23    2    1    2    0    0  0.71054273576E-14  0.44408920985E-15  0.00000000000E+00  0.91188000000E+02  0.91188000000E+02 0.  0.
    9900012    2    3    3    0    0  0.31150406801E+02  0.34391609737E+01 -0.19328918850E+02  0.54367044337E+02  0.39999909174E+02 0.  0.
         12    1    3    3    0    0 -0.31150406801E+02 -0.34391609737E+01  0.19328918850E+02  0.36820955663E+02  0.00000000000E+00 0. -1.
         11    1    4    4    0    0  0.13099492206E+02 -0.28996171395E+01 -0.93530224991E+00  0.13449136261E+02  0.51100000000E-03 0. -1.
        -11    1    4    4    0    0  0.17428549091E+02 -0.15087763818E+01 -0.25087473871E+02  0.30584507109E+02  0.51100000000E-03 0.  1.
         12    1    4    4    0    0  0.62236550316E+00  0.78475544950E+01  0.66938572708E+01  0.10333400966E+02  0.00000000000E+00 0. -1.
</event>
<event>
 8    1  0.1253703E-006  0.9118800E+02  0.7816164E-02  0.1184000E+00
        -11   -1    0    0    0    0  0.00000000000E+00  0.00000000000E+00  0.45593999997E+02  0.45594000000E+02  0.51100000000E-03 0.  1.
         11   -1    0    0    0    0 -0.00000000000E+00 -0.00000000000E+00 -0.45593999997E+02  0.45594000000E+02  0.51100000000E-03 0. -1.
         23    2    1    2    0    0 -0.44408920985E-15  0.00000000000E+00  0.00000000000E+00  0.91188000000E+02  0.91188000000E+02 0.  0.
    9900012    2    3    3    0    0 -0.18080675463E+01  0.11033492749E+02  0.35082363429E+02  0.54367091616E+02  0.40000016956E+02 0.  0.
         12    1    3    3    0    0  0.18080675463E+01 -0.11033492749E+02 -0.35082363429E+02  0.36820908384E+02  0.00000000000E+00 0. -1.
         11    1    4    4    0    0  0.18471742391E+01  0.15676264758E+02  0.13908704893E+02  0.21038284186E+02  0.51100000000E-03 0. -1.
        -11    1    4    4    0    0  0.59385685813E+01  0.35034670482E+01  0.19437041163E+02  0.20623759298E+02  0.51100000000E-03 0.  1.
         12    1    4    4    0    0 -0.95938103668E+01 -0.81462390570E+01  0.17366173729E+01  0.12705048132E+02  0.00000000000E+00 0. -1.
</event>
<event>
 8    1  0.1253703E-006  0.9118800E+02  0.7816164E-02  0.1184000E+00
        -11   -1    0    0    0    0  0.00000000000E+00  0.00000000000E+00  0.45593999997E+02  0.45594000000E+02  0.51100000000E-03 0.  1.
         11   -1    0    0    0    0 -0.00000000000E+00 -0.00000000000E+00 -0.45593999997E+02  0.45594000000E+02  0.51100000000E-03 0. -1.
         23    2    1    2    0    0 -0.22204460493E-15  0.00000000000E+00 -0.71054273576E-14  0.91188000000E+02  0.91188000000E+02 0.  0.
    9900012    2    3    3    0    0 -0.17700674792E+01  0.20487284698E+02 -0.30543725885E+02  0.54367066225E+02  0.39999959072E+02 0.  0.
        -12    1    3    3    0    0  0.17700674792E+01 -0.20487284698E+02  0.30543725885E+02  0.36820933775E+02  0.00000000000E+00 0.  1.
         11    1    4    4    0    0 -0.19195435845E+01  0.14750237250E+02 -0.10011930094E+02  0.17930222836E+02  0.51100000000E-03 0. -1.
        -11    1    4    4    0    0  0.40631329569E+01  0.99162936283E+01  0.38536283252E+01  0.11388256244E+02  0.51100000000E-03 0.  1.
        -12    1    4    4    0    0 -0.39136568516E+01 -0.41792461803E+01 -0.24385424116E+02  0.25048587144E+02  0.00000000000E+00 0.  1.
</event>
<event>
 8    1  0.1253703E-006  0.9118800E+02  0.7816164E-02  0.1184000E+00
        -11   -1    0    0    0    0  0.00000000000E+00  0.00000000000E+00  0.45593999997E+02  0.45594000000E+02  0.51100000000E-03 0.  1.
         11   -1    0    0    0    0 -0.00000000000E+00 -0.00000000000E+00 -0.45593999997E+02  0.45594000000E+02  0.51100000000E-03 0. -1.
         23    2    1    2    0    0  0.00000000000E+00  0.00000000000E+00  0.35527136788E-14  0.91188000000E+02  0.91188000000E+02 0.  0.
    9900012    2    3    3    0    0  0.12100228900E+02 -0.15222362428E+02 -0.31267301525E+02  0.54367082005E+02  0.39999995046E+02 0.  0.
        -12    1    3    3    0    0 -0.12100228900E+02  0.15222362428E+02  0.31267301525E+02  0.36820917995E+02  0.00000000000E+00 0.  1.
         11    1    4    4    0    0  0.10168669627E+02 -0.31786481590E+01 -0.15212934830E+01  0.10761969161E+02  0.51100000000E-03 0. -1.
        -11    1    4    4    0    0  0.13857923526E+02 -0.96955823950E+01 -0.80384346511E+01  0.18725992479E+02  0.51100000000E-03 0.  1.
        -12    1    4    4    0    0 -0.11926364252E+02 -0.23481318739E+01 -0.21707573391E+02  0.24879120365E+02  0.00000000000E+00 0.  1.
</event>
<event>
 8    1  0.1253703E-006  0.9118800E+02  0.7816164E-02  0.1184000E+00
        -11   -1    0    0    0    0  0.00000000000E+00  0.00000000000E+00  0.45593999997E+02  0.45594000000E+02  0.51100000000E-03 0. -1.
         11   -1    0    0    0    0 -0.00000000000E+00 -0.00000000000E+00 -0.45593999997E+02  0.45594000000E+02  0.51100000000E-03 0.  1.
         23    2    1    2    0    0  0.00000000000E+00  0.17763568394E-14 -0.35527136788E-14  0.91188000000E+02  0.91188000000E+02 0.  0.
    9900012    2    3    3    0    0 -0.29554051718E+02 -0.13378544356E+02  0.17417053822E+02  0.54367065929E+02  0.39999958398E+02 0.  0.
        -12    1    3    3    0    0  0.29554051718E+02  0.13378544356E+02 -0.17417053822E+02  0.36820934071E+02  0.00000000000E+00 0.  1.
         11    1    4    4    0    0 -0.17012342058E+02 -0.39259053146E+01  0.24533447123E+02  0.30111833933E+02  0.51100000000E-03 0. -1.
        -11    1    4    4    0    0  0.93100682685E+00 -0.10052139866E+01  0.44082262978E+01  0.46162417857E+01  0.51100000000E-03 0.  1.
         12    1    4    4    0    0 -0.13472716487E+02 -0.84474250548E+01 -0.11524619598E+02  0.19638990210E+02  0.00000000000E+00 0. -1.
</event>
<event>
 8    1  0.1253703E-006  0.9118800E+02  0.7816164E-02  0.1184000E+00
        -11   -1    0    0    0    0  0.00000000000E+00  0.00000000000E+00  0.45593999997E+02  0.45594000000E+02  0.51100000000E-03 0.  1.
         11   -1    0    0    0    0 -0.00000000000E+00 -0.00000000000E+00 -0.45593999997E+02  0.45594000000E+02  0.51100000000E-03 0. -1.
         23    2    1    2    0    0 -0.35527136788E-14 -0.44408920985E-15  0.00000000000E+00  0.91188000000E+02  0.91188000000E+02 0.  0.
    9900012    2    3    3    0    0 -0.23427282713E+02  0.17650891722E+01  0.28351833175E+02  0.54367088014E+02  0.40000008746E+02 0.  0.
         12    1    3    3    0    0  0.23427282713E+02 -0.17650891722E+01 -0.28351833175E+02  0.36820911986E+02  0.00000000000E+00 0. -1.
         11    1    4    4    0    0 -0.14937708952E+02  0.99413305440E+01 -0.26619824575E+01  0.18139772672E+02  0.51100000000E-03 0.  1.
        -11    1    4    4    0    0 -0.43775387689E+01 -0.11422292561E+02  0.14870532799E+02  0.19255242377E+02  0.51100000000E-03 0. -1.
        -12    1    4    4    0    0 -0.41120349923E+01  0.32460511888E+01  0.16143282834E+02  0.16972072966E+02  0.00000000000E+00 0.  1.
</event>
<event>
 8    1  0.1253703E-006  0.9118800E+02  0.7816164E-02  0.1184000E+00
        -11   -1    0    0    0    0  0.00000000000E+00  0.00000000000E+00  0.45593999997E+02  0.45594000000E+02  0.51100000000E-03 0. -1.
         11   -1    0    0    0    0 -0.00000000000E+00 -0.00000000000E+00 -0.45593999997E+02  0.45594000000E+02  0.51100000000E-03 0.  1.
         23    2    1    2    0    0  0.88817841970E-15 -0.35527136788E-14  0.00000000000E+00  0.91188000000E+02  0.91188000000E+02 0.  0.
    9900012    2    3    3    0    0  0.41707009834E+01 -0.29272746733E+02 -0.21942902339E+02  0.54367090029E+02  0.40000013340E+02 0.  0.
         12    1    3    3    0    0 -0.41707009834E+01  0.29272746733E+02  0.21942902339E+02  0.36820909971E+02  0.00000000000E+00 0. -1.
         11    1    4    4    0    0 -0.36910105074E+01  0.25022267611E+01 -0.13649241766E+02  0.14359195603E+02  0.51100000000E-03 0. -1.
        -11    1    4    4    0    0 -0.37684010024E+01 -0.10938060364E+02 -0.11035214542E+02  0.15988057133E+02  0.51100000000E-03 0.  1.
         12    1    4    4    0    0  0.11630112493E+02 -0.20836913131E+02  0.27415539688E+01  0.24019837293E+02  0.00000000000E+00 0. -1.
</event>
<event>
 8    1  0.1253703E-006  0.9118800E+02  0.7816164E-02  0.1184000E+00
        -11   -1    0    0    0    0  0.00000000000E+00  0.00000000000E+00  0.45593999997E+02  0.45594000000E+02  0.51100000000E-03 0.  1.
         11   -1    0    0    0    0 -0.00000000000E+00 -0.00000000000E+00 -0.45593999997E+02  0.45594000000E+02  0.51100000000E-03 0. -1.
         23    2    1    2    0    0  0.00000000000E+00  0.00000000000E+00  0.00000000000E+00  0.91188000000E+02  0.91188000000E+02 0.  0.
    9900012    2    3    3    0    0  0.12484622050E+02  0.74195885180E+01 -0.33835837034E+02  0.54367082721E+02  0.39999996679E+02 0.  0.
        -12    1    3    3    0    0 -0.12484622050E+02 -0.74195885180E+01  0.33835837034E+02  0.36820917279E+02  0.00000000000E+00 0.  1.
         11    1    4    4    0    0  0.63357460488E+01  0.57044486597E+01 -0.16071090090E+02  0.18192370639E+02  0.51100000000E-03 0. -1.
        -11    1    4    4    0    0  0.26010996379E+01  0.88426459329E+01 -0.24226592157E+02  0.25920761452E+02  0.51100000000E-03 0.  1.
        -12    1    4    4    0    0  0.35477763630E+01 -0.71275060746E+01  0.64618452137E+01  0.10253950630E+02  0.00000000000E+00 0.  1.
</event>
<event>
 8    1  0.1253703E-006  0.9118800E+02  0.7816164E-02  0.1184000E+00
        -11   -1    0    0    0    0  0.00000000000E+00  0.00000000000E+00  0.45593999997E+02  0.45594000000E+02  0.51100000000E-03 0.  1.
         11   -1    0    0    0    0 -0.00000000000E+00 -0.00000000000E+00 -0.45593999997E+02  0.45594000000E+02  0.51100000000E-03 0. -1.
         23    2    1    2    0    0  0.00000000000E+00  0.35527136788E-14  0.00000000000E+00  0.91188000000E+02  0.91188000000E+02 0.  0.
    9900012    2    3    3    0    0 -0.23351669949E+02  0.27496698644E+02 -0.73763386332E+01  0.54367091573E+02  0.40000016859E+02 0.  0.
         12    1    3    3    0    0  0.23351669949E+02 -0.27496698644E+02  0.73763386332E+01  0.36820908427E+02  0.00000000000E+00 0. -1.
         11    1    4    4    0    0  0.82430619631E+01  0.35031554463E+01 -0.74921919315E+01  0.11677033391E+02  0.51100000000E-03 0.  1.
        -11    1    4    4    0    0 -0.15123705417E+02  0.47633097596E+01 -0.54482699002E+01  0.16766014152E+02  0.51100000000E-03 0. -1.
         12    1    4    4    0    0 -0.16471026496E+02  0.19230233438E+02  0.55641231984E+01  0.25924044030E+02  0.00000000000E+00 0. -1.
</event>
<event>
 8    1  0.1253703E-006  0.9118800E+02  0.7816164E-02  0.1184000E+00
        -11   -1    0    0    0    0  0.00000000000E+00  0.00000000000E+00  0.45593999997E+02  0.45594000000E+02  0.51100000000E-03 0. -1.
         11   -1    0    0    0    0 -0.00000000000E+00 -0.00000000000E+00 -0.45593999997E+02  0.45594000000E+02  0.51100000000E-03 0.  1.
         23    2    1    2    0    0  0.00000000000E+00  0.00000000000E+00  0.00000000000E+00  0.91188000000E+02  0.91188000000E+02 0.  0.
    9900012    2    3    3    0    0  0.30855664367E+02  0.11566673269E+02  0.16429240064E+02  0.54367083620E+02  0.39999998727E+02 0.  0.
        -12    1    3    3    0    0 -0.30855664367E+02 -0.11566673269E+02 -0.16429240064E+02  0.36820916380E+02  0.00000000000E+00 0.  1.
         11    1    4    4    0    0  0.38871734751E+01 -0.43760754170E+01  0.12155452117E+02  0.13491299794E+02  0.51100000000E-03 0. -1.
        -11    1    4    4    0    0  0.18684049253E+02  0.27007882504E+00 -0.69015756893E+01  0.19919798852E+02  0.51100000000E-03 0.  1.
        -12    1    4    4    0    0  0.82844416391E+01  0.15672669861E+02  0.11175363636E+02  0.20955984974E+02  0.00000000000E+00 0.  1.
</event>
<event>
 8    1  0.1253703E-006  0.9118800E+02  0.7816164E-02  0.1184000E+00
        -11   -1    0    0    0    0  0.00000000000E+00  0.00000000000E+00  0.45593999997E+02  0.45594000000E+02  0.51100000000E-03 0. -1.
         11   -1    0    0    0    0 -0.00000000000E+00 -0.00000000000E+00 -0.45593999997E+02  0.45594000000E+02  0.51100000000E-03 0.  1.
         23    2    1    2    0    0  0.71054273576E-14  0.22204460493E-15  0.00000000000E+00  0.91188000000E+02  0.91188000000E+02 0.  0.
    9900012    2    3    3    0    0  0.35317479545E+02 -0.11400369906E+01  0.10351614925E+02  0.54367082340E+02  0.39999995810E+02 0.  0.
         12    1    3    3    0    0 -0.35317479545E+02  0.11400369906E+01 -0.10351614925E+02  0.36820917660E+02  0.00000000000E+00 0. -1.
         11    1    4    4    0    0  0.21973369265E+02 -0.13323164788E+01  0.42989121478E+01  0.22429549036E+02  0.51100000000E-03 0.  1.
        -11    1    4    4    0    0  0.14663758111E+02  0.11592270478E+02 -0.54440862324E+00  0.18700345393E+02  0.51100000000E-03 0. -1.
         12    1    4    4    0    0 -0.13196478308E+01 -0.11399990990E+02  0.65971114008E+01  0.13237187912E+02  0.00000000000E+00 0. -1.
</event>
<event>
 8    1  0.1253703E-006  0.9118800E+02  0.7816164E-02  0.1184000E+00
        -11   -1    0    0    0    0  0.00000000000E+00  0.00000000000E+00  0.45593999997E+02  0.45594000000E+02  0.51100000000E-03 0.  1.
         11   -1    0    0    0    0 -0.00000000000E+00 -0.00000000000E+00 -0.45593999997E+02  0.45594000000E+02  0.51100000000E-03 0. -1.
         23    2    1    2    0    0  0.00000000000E+00 -0.35527136788E-14 -0.35527136788E-14  0.91188000000E+02  0.91188000000E+02 0.  0.
    9900012    2    3    3    0    0 -0.23145243526E+02 -0.15320435620E+02 -0.24194255278E+02  0.54367081571E+02  0.39999994057E+02 0.  0.
        -12    1    3    3    0    0  0.23145243526E+02  0.15320435620E+02  0.24194255278E+02  0.36820918429E+02  0.00000000000E+00 0.  1.
         11    1    4    4    0    0 -0.13459699198E+02 -0.17631491304E+02 -0.31602949928E+02  0.38610612952E+02  0.51100000000E-03 0. -1.
        -11    1    4    4    0    0 -0.77413795243E+01 -0.29057367615E+01  0.36459914348E+01  0.90368975247E+01  0.51100000000E-03 0.  1.
         12    1    4    4    0    0 -0.19441648043E+01  0.52167924454E+01  0.37627032152E+01  0.67195710942E+01  0.00000000000E+00 0. -1.
</event>
<event>
 8    1  0.1253703E-006  0.9118800E+02  0.7816164E-02  0.1184000E+00
        -11   -1    0    0    0    0  0.00000000000E+00  0.00000000000E+00  0.45593999997E+02  0.45594000000E+02  0.51100000000E-03 0. -1.
         11   -1    0    0    0    0 -0.00000000000E+00 -0.00000000000E+00 -0.45593999997E+02  0.45594000000E+02  0.51100000000E-03 0.  1.
         23    2    1    2    0    0  0.88817841970E-15 -0.88817841970E-15  0.00000000000E+00  0.91188000000E+02  0.91188000000E+02 0.  0.
    9900012    2    3    3    0    0  0.24387861536E+01 -0.43948546553E+01  0.36476260507E+02  0.54367081952E+02  0.39999994926E+02 0.  0.
        -12    1    3    3    0    0 -0.24387861536E+01  0.43948546553E+01 -0.36476260507E+02  0.36820918048E+02  0.00000000000E+00 0.  1.
         11    1    4    4    0    0 -0.95541169161E+01  0.19286139142E+01  0.25694507941E+02  0.27481056025E+02  0.51100000000E-03 0. -1.
        -11    1    4    4    0    0 -0.25539522168E+01 -0.94158783274E+01  0.44154243699E+01  0.10708753860E+02  0.51100000000E-03 0.  1.
         12    1    4    4    0    0  0.14546855286E+02  0.30924097580E+01  0.63663281959E+01  0.16177272067E+02  0.00000000000E+00 0. -1.
</event>
<event>
 8    1  0.1253703E-006  0.9118800E+02  0.7816164E-02  0.1184000E+00
        -11   -1    0    0    0    0  0.00000000000E+00  0.00000000000E+00  0.45593999997E+02  0.45594000000E+02  0.51100000000E-03 0.  1.
         11   -1    0    0    0    0 -0.00000000000E+00 -0.00000000000E+00 -0.45593999997E+02  0.45594000000E+02  0.51100000000E-03 0. -1.
         23    2    1    2    0    0  0.35527136788E-14 -0.88817841970E-15  0.00000000000E+00  0.91188000000E+02  0.91188000000E+02 0.  0.
    9900012    2    3    3    0    0  0.11763110406E+02  0.48153026759E+01 -0.34557503159E+02  0.54367096550E+02  0.40000028205E+02 0.  0.
        -12    1    3    3    0    0 -0.11763110406E+02 -0.48153026759E+01  0.34557503159E+02  0.36820903450E+02  0.00000000000E+00 0.  1.
         11    1    4    4    0    0 -0.13617397366E+01 -0.73158829217E+01 -0.15293519202E+02  0.17007886638E+02  0.51100000000E-03 0. -1.
        -11    1    4    4    0    0  0.20447900647E+02  0.42623112599E+01 -0.15343611978E+02  0.25917375773E+02  0.51100000000E-03 0.  1.
         12    1    4    4    0    0 -0.73230505043E+01  0.78688743377E+01 -0.39203719790E+01  0.11441834140E+02  0.00000000000E+00 0. -1.
</event>
<event>
 8    1  0.1253703E-006  0.9118800E+02  0.7816164E-02  0.1184000E+00
        -11   -1    0    0    0    0  0.00000000000E+00  0.00000000000E+00  0.45593999997E+02  0.45594000000E+02  0.51100000000E-03 0.  1.
         11   -1    0    0    0    0 -0.00000000000E+00 -0.00000000000E+00 -0.45593999997E+02  0.45594000000E+02  0.51100000000E-03 0. -1.
         23    2    1    2    0    0  0.00000000000E+00  0.00000000000E+00 -0.88817841970E-15  0.91188000000E+02  0.91188000000E+02 0.  0.
    9900012    2    3    3    0    0 -0.10542739724E+02  0.35001941192E+02  0.44151364932E+01  0.54367099979E+02  0.40000036022E+02 0.  0.
        -12    1    3    3    0    0  0.10542739724E+02 -0.35001941192E+02 -0.44151364932E+01  0.36820900021E+02  0.00000000000E+00 0.  1.
         11    1    4    4    0    0 -0.12632892091E+02  0.27753483036E+02 -0.27128176174E+01  0.30613806736E+02  0.51100000000E-03 0. -1.
        -11    1    4    4    0    0  0.15124106926E+01 -0.19261853660E+00  0.13714568258E+02  0.13799053256E+02  0.51100000000E-03 0.  1.
         12    1    4    4    0    0  0.57774167394E+00  0.74410766927E+01 -0.65866141474E+01  0.99542399868E+01  0.00000000000E+00 0. -1.
</event>
<event>
 8    1  0.1253703E-006  0.9118800E+02  0.7816164E-02  0.1184000E+00
        -11   -1    0    0    0    0  0.00000000000E+00  0.00000000000E+00  0.45593999997E+02  0.45594000000E+02  0.51100000000E-03 0.  1.
         11   -1    0    0    0    0 -0.00000000000E+00 -0.00000000000E+00 -0.45593999997E+02  0.45594000000E+02  0.51100000000E-03 0. -1.
         23    2    1    2    0    0 -0.35527136788E-14  0.00000000000E+00  0.35527136788E-14  0.91188000000E+02  0.91188000000E+02 0.  0.
    9900012    2    3    3    0    0 -0.20389022081E+02 -0.15521958912E+02  0.26441169391E+02  0.54367097395E+02  0.40000030131E+02 0.  0.
         12    1    3    3    0    0  0.20389022081E+02  0.15521958912E+02 -0.26441169391E+02  0.36820902605E+02  0.00000000000E+00 0. -1.
         11    1    4    4    0    0  0.51268342500E+01 -0.59543344592E+00  0.32715071812E+01  0.61107879945E+01  0.51100000000E-03 0. -1.
        -11    1    4    4    0    0 -0.39032229219E+01  0.76931456889E+01 -0.10520315972E+01  0.86905932198E+01  0.51100000000E-03 0.  1.
        -12    1    4    4    0    0 -0.21612633410E+02 -0.22619671155E+02  0.24221693807E+02  0.39565716181E+02  0.00000000000E+00 0.  1.
</event>
<event>
 8    1  0.1253703E-006  0.9118800E+02  0.7816164E-02  0.1184000E+00
        -11   -1    0    0    0    0  0.00000000000E+00  0.00000000000E+00  0.45593999997E+02  0.45594000000E+02  0.51100000000E-03 0. -1.
         11   -1    0    0    0    0 -0.00000000000E+00 -0.00000000000E+00 -0.45593999997E+02  0.45594000000E+02  0.51100000000E-03 0.  1.
         23    2    1    2    0    0  0.00000000000E+00  0.00000000000E+00  0.00000000000E+00  0.91188000000E+02  0.91188000000E+02 0.  0.
    9900012    2    3    3    0    0  0.89998873940E+01  0.32765077743E+02 -0.14185591748E+02  0.54367091458E+02  0.40000016597E+02 0.  0.
         12    1    3    3    0    0 -0.89998873940E+01 -0.32765077743E+02  0.14185591748E+02  0.36820908542E+02  0.00000000000E+00 0. -1.
         11    1    4    4    0    0 -0.47886578916E+01  0.34668847898E+02 -0.53292205572E+01  0.35401424421E+02  0.51100000000E-03 0. -1.
        -11    1    4    4    0    0  0.10152951175E+02 -0.11424415514E+01 -0.10720794242E+02  0.14809558390E+02  0.51100000000E-03 0.  1.
         12    1    4    4    0    0  0.36355941104E+01 -0.76132860406E+00  0.18644230512E+01  0.41561086478E+01  0.00000000000E+00 0. -1.
</event>
<event>
 8    1  0.1253703E-006  0.9118800E+02  0.7816164E-02  0.1184000E+00
        -11   -1    0    0    0    0  0.00000000000E+00  0.00000000000E+00  0.45593999997E+02  0.45594000000E+02  0.51100000000E-03 0. -1.
         11   -1    0    0    0    0 -0.00000000000E+00 -0.00000000000E+00 -0.45593999997E+02  0.45594000000E+02  0.51100000000E-03 0.  1.
         23    2    1    2    0    0  0.17763568394E-14 -0.17763568394E-14  0.00000000000E+00  0.91188000000E+02  0.91188000000E+02 0.  0.
    9900012    2    3    3    0    0  0.12629057727E+02 -0.11168606419E+02  0.32734532632E+02  0.54367075310E+02  0.39999979784E+02 0.  0.
        -12    1    3    3    0    0 -0.12629057727E+02  0.11168606419E+02 -0.32734532632E+02  0.36820924690E+02  0.00000000000E+00 0.  1.
         11    1    4    4    0    0  0.29435841833E+01 -0.68385705770E+01  0.13601977155E+02  0.15506273510E+02  0.51100000000E-03 0. -1.
        -11    1    4    4    0    0  0.10415073459E+02 -0.17070530306E+02  0.68197398798E+01  0.21127839747E+02  0.51100000000E-03 0.  1.
        -12    1    4    4    0    0 -0.72959991448E+00  0.12740494465E+02  0.12312815597E+02  0.17732962053E+02  0.00000000000E+00 0.  1.
</event>
<event>
 8    1  0.1253703E-006  0.9118800E+02  0.7816164E-02  0.1184000E+00
        -11   -1    0    0    0    0  0.00000000000E+00  0.00000000000E+00  0.45593999997E+02  0.45594000000E+02  0.51100000000E-03 0. -1.
         11   -1    0    0    0    0 -0.00000000000E+00 -0.00000000000E+00 -0.45593999997E+02  0.45594000000E+02  0.51100000000E-03 0.  1.
         23    2    1    2    0    0  0.71054273576E-14  0.55511151231E-15  0.00000000000E+00  0.91188000000E+02  0.91188000000E+02 0.  0.
    9900012    2    3    3    0    0  0.27465782482E+02  0.78207624352E+00  0.24511235726E+02  0.54367061291E+02  0.39999947824E+02 0.  0.
         12    1    3    3    0    0 -0.27465782482E+02 -0.78207624352E+00 -0.24511235726E+02  0.36820938709E+02  0.00000000000E+00 0. -1.
         11    1    4    4    0    0  0.89540171191E+01 -0.42768739112E+01  0.19824728352E+02  0.22169481895E+02  0.51100000000E-03 0. -1.
        -11    1    4    4    0    0  0.22645904006E+02  0.36015305291E+01  0.10247933153E+02  0.25116292014E+02  0.51100000000E-03 0.  1.
        -12    1    4    4    0    0 -0.41341386423E+01  0.14574196256E+01 -0.55614257788E+01  0.70812873809E+01  0.00000000000E+00 0.  1.
</event>
<event>
 8    1  0.1253703E-006  0.9118800E+02  0.7816164E-02  0.1184000E+00
        -11   -1    0    0    0    0  0.00000000000E+00  0.00000000000E+00  0.45593999997E+02  0.45594000000E+02  0.51100000000E-03 0. -1.
         11   -1    0    0    0    0 -0.00000000000E+00 -0.00000000000E+00 -0.45593999997E+02  0.45594000000E+02  0.51100000000E-03 0.  1.
         23    2    1    2    0    0  0.00000000000E+00  0.35527136788E-14  0.35527136788E-14  0.91188000000E+02  0.91188000000E+02 0.  0.
    9900012    2    3    3    0    0  0.82066353910E+01  0.31450927862E+02  0.17299421496E+02  0.54367085944E+02  0.40000004027E+02 0.  0.
        -12    1    3    3    0    0 -0.82066353910E+01 -0.31450927862E+02 -0.17299421496E+02  0.36820914056E+02  0.00000000000E+00 0.  1.
         11    1    4    4    0    0 -0.41313614060E+01  0.14407361860E+02 -0.38781377069E+01  0.15481607642E+02  0.51100000000E-03 0. -1.
        -11    1    4    4    0    0  0.14724801514E+02  0.14031865534E+02  0.33077374553E+01  0.20607138505E+02  0.51100000000E-03 0.  1.
         12    1    4    4    0    0 -0.23868047174E+01  0.30117004671E+01  0.17869821748E+02  0.18278339798E+02  0.00000000000E+00 0. -1.
</event>
<event>
 8    1  0.1253703E-006  0.9118800E+02  0.7816164E-02  0.1184000E+00
        -11   -1    0    0    0    0  0.00000000000E+00  0.00000000000E+00  0.45593999997E+02  0.45594000000E+02  0.51100000000E-03 0.  1.
         11   -1    0    0    0    0 -0.00000000000E+00 -0.00000000000E+00 -0.45593999997E+02  0.45594000000E+02  0.51100000000E-03 0. -1.
         23    2    1    2    0    0 -0.71054273576E-14  0.17763568394E-14  0.00000000000E+00  0.91188000000E+02  0.91188000000E+02 0.  0.
    9900012    2    3    3    0    0  0.34512418163E+02  0.98710108363E+01 -0.82001298164E+01  0.54367000674E+02  0.39999809636E+02 0.  0.
        -12    1    3    3    0    0 -0.34512418163E+02 -0.98710108363E+01  0.82001298164E+01  0.36820999326E+02  0.00000000000E+00 0.  1.
         11    1    4    4    0    0  0.28367464618E+02 -0.10150492355E+02 -0.10386440369E+02  0.31868851371E+02  0.51100000000E-03 0. -1.
        -11    1    4    4    0    0  0.72964248069E+01  0.16736977559E+02  0.38195159278E+01  0.18653496588E+02  0.51100000000E-03 0.  1.
         12    1    4    4    0    0 -0.11514712623E+01  0.32845256320E+01 -0.16332053747E+01  0.38446527140E+01  0.00000000000E+00 0. -1.
</event>
<event>
 8    1  0.1253703E-006  0.9118800E+02  0.7816164E-02  0.1184000E+00
        -11   -1    0    0    0    0  0.00000000000E+00  0.00000000000E+00  0.45593999997E+02  0.45594000000E+02  0.51100000000E-03 0.  1.
         11   -1    0    0    0    0 -0.00000000000E+00 -0.00000000000E+00 -0.45593999997E+02  0.45594000000E+02  0.51100000000E-03 0. -1.
         23    2    1    2    0    0 -0.35527136788E-14  0.35527136788E-14 -0.22204460493E-15  0.91188000000E+02  0.91188000000E+02 0.  0.
    9900012    2    3    3    0    0 -0.25897810593E+02  0.26156042175E+02 -0.97215800134E+00  0.54367078950E+02  0.39999988083E+02 0.  0.
         12    1    3    3    0    0  0.25897810593E+02 -0.26156042175E+02  0.97215800134E+00  0.36820921050E+02  0.00000000000E+00 0. -1.
         11    1    4    4    0    0  0.77955341621E+01  0.68293627394E+01 -0.59924484719E+01  0.11971632606E+02  0.51100000000E-03 0. -1.
        -11    1    4    4    0    0 -0.69954400436E+01  0.10707408488E+02  0.64097739652E+01  0.14306291639E+02  0.51100000000E-03 0.  1.
        -12    1    4    4    0    0 -0.26697904712E+02  0.86192709477E+01 -0.13894834946E+01  0.28089154705E+02  0.00000000000E+00 0.  1.
</event>
<event>
 8    1  0.1253703E-006  0.9118800E+02  0.7816164E-02  0.1184000E+00
        -11   -1    0    0    0    0  0.00000000000E+00  0.00000000000E+00  0.45593999997E+02  0.45594000000E+02  0.51100000000E-03 0. -1.
         11   -1    0    0    0    0 -0.00000000000E+00 -0.00000000000E+00 -0.45593999997E+02  0.45594000000E+02  0.51100000000E-03 0.  1.
         23    2    1    2    0    0  0.00000000000E+00  0.88817841970E-15  0.00000000000E+00  0.91188000000E+02  0.91188000000E+02 0.  0.
    9900012    2    3    3    0    0 -0.30733480981E+02  0.56439154254E+01 -0.19477629362E+02  0.54367099955E+02  0.40000035967E+02 0.  0.
         12    1    3    3    0    0  0.30733480981E+02 -0.56439154254E+01  0.19477629362E+02  0.36820900045E+02  0.00000000000E+00 0. -1.
         11    1    4    4    0    0  0.11519406587E+01 -0.96389022195E+00 -0.16395042816E+02  0.16463701918E+02  0.51100000000E-03 0. -1.
        -11    1    4    4    0    0 -0.19210289460E+02  0.25795276536E+01 -0.11137311654E+02  0.22354616865E+02  0.51100000000E-03 0.  1.
        -12    1    4    4    0    0 -0.12675132180E+02  0.40282779938E+01  0.80547251074E+01  0.15548781172E+02  0.00000000000E+00 0.  1.
</event>
<event>
 8    1  0.1253703E-006  0.9118800E+02  0.7816164E-02  0.1184000E+00
        -11   -1    0    0    0    0  0.00000000000E+00  0.00000000000E+00  0.45593999997E+02  0.45594000000E+02  0.51100000000E-03 0. -1.
         11   -1    0    0    0    0 -0.00000000000E+00 -0.00000000000E+00 -0.45593999997E+02  0.45594000000E+02  0.51100000000E-03 0.  1.
         23    2    1    2    0    0 -0.88817841970E-15  0.00000000000E+00  0.00000000000E+00  0.91188000000E+02  0.91188000000E+02 0.  0.
    9900012    2    3    3    0    0 -0.60038904869E+01 -0.25026205144E+02 -0.26332922797E+02  0.54367075678E+02  0.39999980624E+02 0.  0.
         12    1    3    3    0    0  0.60038904869E+01  0.25026205144E+02  0.26332922797E+02  0.36820924322E+02  0.00000000000E+00 0. -1.
         11    1    4    4    0    0  0.90204583313E+01 -0.16148897503E+02 -0.66537743867E+01  0.19657778941E+02  0.51100000000E-03 0. -1.
        -11    1    4    4    0    0  0.83564110962E+00 -0.96308027998E+01 -0.32085289189E+00  0.96723112787E+01  0.51100000000E-03 0.  1.
         12    1    4    4    0    0 -0.15859989928E+02  0.75349515862E+00 -0.19358295518E+02  0.25036985458E+02  0.00000000000E+00 0. -1.
</event>
<event>
 8    1  0.1253703E-006  0.9118800E+02  0.7816164E-02  0.1184000E+00
        -11   -1    0    0    0    0  0.00000000000E+00  0.00000000000E+00  0.45593999997E+02  0.45594000000E+02  0.51100000000E-03 0. -1.
         11   -1    0    0    0    0 -0.00000000000E+00 -0.00000000000E+00 -0.45593999997E+02  0.45594000000E+02  0.51100000000E-03 0.  1.
         23    2    1    2    0    0  0.44408920985E-15  0.00000000000E+00 -0.35527136788E-14  0.91188000000E+02  0.91188000000E+02 0.  0.
    9900012    2    3    3    0    0 -0.16827849792E+01  0.20452519569E+02  0.30571926165E+02  0.54367082148E+02  0.39999995373E+02 0.  0.
        -12    1    3    3    0    0  0.16827849792E+01 -0.20452519569E+02 -0.30571926165E+02  0.36820917852E+02  0.00000000000E+00 0.  1.
         11    1    4    4    0    0  0.56714900450E+01  0.67828086262E+01 -0.53378963331E+01  0.10327895706E+02  0.51100000000E-03 0. -1.
        -11    1    4    4    0    0 -0.22163166317E-01  0.14876552251E+02  0.32738454451E+02  0.35959959652E+02  0.51100000000E-03 0.  1.
        -12    1    4    4    0    0 -0.73321118579E+01 -0.12068413079E+01  0.31713680471E+01  0.80792267903E+01  0.00000000000E+00 0.  1.
</event>
<event>
 8    1  0.1253703E-006  0.9118800E+02  0.7816164E-02  0.1184000E+00
        -11   -1    0    0    0    0  0.00000000000E+00  0.00000000000E+00  0.45593999997E+02  0.45594000000E+02  0.51100000000E-03 0.  1.
         11   -1    0    0    0    0 -0.00000000000E+00 -0.00000000000E+00 -0.45593999997E+02  0.45594000000E+02  0.51100000000E-03 0. -1.
         23    2    1    2    0    0  0.00000000000E+00  0.00000000000E+00 -0.35527136788E-14  0.91188000000E+02  0.91188000000E+02 0.  0.
    9900012    2    3    3    0    0  0.31345097271E+02 -0.90044666541E+01  0.17093380616E+02  0.54367092848E+02  0.40000019765E+02 0.  0.
         12    1    3    3    0    0 -0.31345097271E+02  0.90044666541E+01 -0.17093380616E+02  0.36820907152E+02  0.00000000000E+00 0. -1.
         11    1    4    4    0    0 -0.17786628214E+01 -0.77040595640E+00 -0.29461046001E+01  0.35265704794E+01  0.51100000000E-03 0. -1.
        -11    1    4    4    0    0  0.17730499886E+02  0.11194747776E+02  0.14347855571E+02  0.25407754007E+02  0.51100000000E-03 0.  1.
        -12    1    4    4    0    0  0.15393260206E+02 -0.19428808473E+02  0.56916296456E+01  0.25432768361E+02  0.00000000000E+00 0.  1.
</event>
<event>
 8    1  0.1253703E-006  0.9118800E+02  0.7816164E-02  0.1184000E+00
        -11   -1    0    0    0    0  0.00000000000E+00  0.00000000000E+00  0.45593999997E+02  0.45594000000E+02  0.51100000000E-03 0.  1.
         11   -1    0    0    0    0 -0.00000000000E+00 -0.00000000000E+00 -0.45593999997E+02  0.45594000000E+02  0.51100000000E-03 0. -1.
         23    2    1    2    0    0  0.00000000000E+00  0.00000000000E+00 -0.11102230246E-14  0.91188000000E+02  0.91188000000E+02 0.  0.
    9900012    2    3    3    0    0 -0.15328107524E+02 -0.33451545286E+02 -0.13500357668E+01  0.54367090739E+02  0.40000014957E+02 0.  0.
        -12    1    3    3    0    0  0.15328107524E+02  0.33451545286E+02  0.13500357668E+01  0.36820909261E+02  0.00000000000E+00 0.  1.
         11    1    4    4    0    0 -0.18750383657E+01 -0.43181960556E+01 -0.33303947016E+01  0.57666381174E+01  0.51100000000E-03 0. -1.
        -11    1    4    4    0    0 -0.19825107619E+02 -0.29501420078E+02  0.11306913148E+02  0.37298994141E+02  0.51100000000E-03 0.  1.
        -12    1    4    4    0    0  0.63720384613E+01  0.36807084836E+00 -0.93265542128E+01  0.11301458480E+02  0.00000000000E+00 0.  1.
</event>
<event>
 8    1  0.1253703E-006  0.9118800E+02  0.7816164E-02  0.1184000E+00
        -11   -1    0    0    0    0  0.00000000000E+00  0.00000000000E+00  0.45593999997E+02  0.45594000000E+02  0.51100000000E-03 0. -1.
         11   -1    0    0    0    0 -0.00000000000E+00 -0.00000000000E+00 -0.45593999997E+02  0.45594000000E+02  0.51100000000E-03 0.  1.
         23    2    1    2    0    0  0.35527136788E-14  0.00000000000E+00 -0.35527136788E-14  0.91188000000E+02  0.91188000000E+02 0.  0.
    9900012    2    3    3    0    0 -0.24316272186E+02 -0.13057707119E+02  0.24372028184E+02  0.54367074346E+02  0.39999977586E+02 0.  0.
        -12    1    3    3    0    0  0.24316272186E+02  0.13057707119E+02 -0.24372028184E+02  0.36820925654E+02  0.00000000000E+00 0.  1.
         11    1    4    4    0    0 -0.60254622985E+01  0.27924901542E+01 -0.26489293474E+01  0.71498967909E+01  0.51100000000E-03 0. -1.
        -11    1    4    4    0    0  0.72875416960E+01  0.39945231145E+00  0.11829137945E+01  0.73937210812E+01  0.51100000000E-03 0.  1.
         12    1    4    4    0    0 -0.25578351584E+02 -0.16249649584E+02  0.25838043737E+02  0.39823456474E+02  0.00000000000E+00 0. -1.
</event>
<event>
 8    1  0.1253703E-006  0.9118800E+02  0.7816164E-02  0.1184000E+00
        -11   -1    0    0    0    0  0.00000000000E+00  0.00000000000E+00  0.45593999997E+02  0.45594000000E+02  0.51100000000E-03 0.  1.
         11   -1    0    0    0    0 -0.00000000000E+00 -0.00000000000E+00 -0.45593999997E+02  0.45594000000E+02  0.51100000000E-03 0. -1.
         23    2    1    2    0    0  0.00000000000E+00 -0.35527136788E-14  0.17763568394E-14  0.91188000000E+02  0.91188000000E+02 0.  0.
    9900012    2    3    3    0    0 -0.21237299938E+02 -0.29430277373E+02 -0.62141564314E+01  0.54367083729E+02  0.39999998976E+02 0.  0.
        -12    1    3    3    0    0  0.21237299938E+02  0.29430277373E+02  0.62141564314E+01  0.36820916271E+02  0.00000000000E+00 0.  1.
         11    1    4    4    0    0 -0.86802046849E+01  0.61825126884E+01  0.23690817227E+01  0.10917049280E+02  0.51100000000E-03 0. -1.
        -11    1    4    4    0    0 -0.52631810917E+01 -0.91396406625E+01  0.62303383634E+01  0.12249539707E+02  0.51100000000E-03 0.  1.
        -12    1    4    4    0    0 -0.72939141618E+01 -0.26473149399E+02 -0.14813576518E+02  0.31200494742E+02  0.00000000000E+00 0.  1.
</event>
<event>
 8    1  0.1253703E-006  0.9118800E+02  0.7816164E-02  0.1184000E+00
        -11   -1    0    0    0    0  0.00000000000E+00  0.00000000000E+00  0.45593999997E+02  0.45594000000E+02  0.51100000000E-03 0. -1.
         11   -1    0    0    0    0 -0.00000000000E+00 -0.00000000000E+00 -0.45593999997E+02  0.45594000000E+02  0.51100000000E-03 0.  1.
         23    2    1    2    0    0  0.35527136788E-14  0.00000000000E+00  0.17763568394E-14  0.91188000000E+02  0.91188000000E+02 0.  0.
    9900012    2    3    3    0    0  0.14685978234E+02 -0.33302006016E+02  0.55743698858E+01  0.54367147742E+02  0.40000144907E+02 0.  0.
         12    1    3    3    0    0 -0.14685978234E+02  0.33302006016E+02 -0.55743698858E+01  0.36820852258E+02  0.00000000000E+00 0. -1.
         11    1    4    4    0    0  0.16385392882E+02 -0.34870227659E+02  0.61354251600E+01  0.39013553017E+02  0.51100000000E-03 0.  1.
        -11    1    4    4    0    0  0.43661424456E+01  0.51629081201E+00 -0.57944579796E+01  0.72736166792E+01  0.51100000000E-03 0. -1.
        -12    1    4    4    0    0 -0.60655570944E+01  0.10519308303E+01  0.52334027055E+01  0.80799780454E+01  0.00000000000E+00 0.  1.
</event>
<event>
 8    1  0.1253703E-006  0.9118800E+02  0.7816164E-02  0.1184000E+00
        -11   -1    0    0    0    0  0.00000000000E+00  0.00000000000E+00  0.45593999997E+02  0.45594000000E+02  0.51100000000E-03 0. -1.
         11   -1    0    0    0    0 -0.00000000000E+00 -0.00000000000E+00 -0.45593999997E+02  0.45594000000E+02  0.51100000000E-03 0.  1.
         23    2    1    2    0    0  0.00000000000E+00  0.00000000000E+00 -0.22204460493E-15  0.91188000000E+02  0.91188000000E+02 0.  0.
    9900012    2    3    3    0    0  0.31289307231E+02 -0.19351672313E+02 -0.15072665319E+01  0.54367084467E+02  0.40000000660E+02 0.  0.
         12    1    3    3    0    0 -0.31289307231E+02  0.19351672313E+02  0.15072665319E+01  0.36820915533E+02  0.00000000000E+00 0. -1.
         11    1    4    4    0    0  0.27899703066E+01 -0.24285266128E+01  0.30881642482E+01  0.48185510795E+01  0.51100000000E-03 0. -1.
        -11    1    4    4    0    0 -0.70477682172E+01 -0.92921829920E+01 -0.60978895963E+01  0.13160545558E+02  0.51100000000E-03 0.  1.
        -12    1    4    4    0    0  0.35547105141E+02 -0.76309627084E+01  0.15024588162E+01  0.36387987829E+02  0.00000000000E+00 0.  1.
</event>
<event>
 8    1  0.1253703E-006  0.9118800E+02  0.7816164E-02  0.1184000E+00
        -11   -1    0    0    0    0  0.00000000000E+00  0.00000000000E+00  0.45593999997E+02  0.45594000000E+02  0.51100000000E-03 0. -1.
         11   -1    0    0    0    0 -0.00000000000E+00 -0.00000000000E+00 -0.45593999997E+02  0.45594000000E+02  0.51100000000E-03 0.  1.
         23    2    1    2    0    0 -0.88817841970E-15  0.00000000000E+00  0.00000000000E+00  0.91188000000E+02  0.91188000000E+02 0.  0.
    9900012    2    3    3    0    0 -0.54677172391E+01  0.91320401326E+01  0.35248946646E+02  0.54367104731E+02  0.40000046854E+02 0.  0.
        -12    1    3    3    0    0  0.54677172391E+01 -0.91320401326E+01 -0.35248946646E+02  0.36820895269E+02  0.00000000000E+00 0.  1.
         11    1    4    4    0    0 -0.11716332123E+02  0.91465167023E+01  0.25793164732E+02  0.29769423128E+02  0.51100000000E-03 0. -1.
        -11    1    4    4    0    0 -0.11442991239E+01  0.75430823049E+01 -0.30547968053E+01  0.82182294277E+01  0.51100000000E-03 0.  1.
         12    1    4    4    0    0  0.73929140079E+01 -0.75575588745E+01  0.12510578719E+02  0.16379452175E+02  0.00000000000E+00 0. -1.
</event>
<event>
 8    1  0.1253703E-006  0.9118800E+02  0.7816164E-02  0.1184000E+00
        -11   -1    0    0    0    0  0.00000000000E+00  0.00000000000E+00  0.45593999997E+02  0.45594000000E+02  0.51100000000E-03 0.  1.
         11   -1    0    0    0    0 -0.00000000000E+00 -0.00000000000E+00 -0.45593999997E+02  0.45594000000E+02  0.51100000000E-03 0. -1.
         23    2    1    2    0    0  0.35527136788E-14  0.00000000000E+00  0.00000000000E+00  0.91188000000E+02  0.91188000000E+02 0.  0.
    9900012    2    3    3    0    0  0.15830470916E+02 -0.12941687406E+02 -0.30621729827E+02  0.54367062750E+02  0.39999951152E+02 0.  0.
        -12    1    3    3    0    0 -0.15830470916E+02  0.12941687406E+02  0.30621729827E+02  0.36820937250E+02  0.00000000000E+00 0.  1.
         11    1    4    4    0    0 -0.31407206511E+01  0.24182010452E+00 -0.85414556672E+01  0.91037941731E+01  0.51100000000E-03 0. -1.
        -11    1    4    4    0    0 -0.71182826577E+01 -0.11292283233E+02 -0.78280997466E+01  0.15474648769E+02  0.51100000000E-03 0.  1.
        -12    1    4    4    0    0  0.26089474225E+02 -0.18912242777E+01 -0.14252174413E+02  0.29788619809E+02  0.00000000000E+00 0.  1.
</event>
<event>
 8    1  0.1253703E-006  0.9118800E+02  0.7816164E-02  0.1184000E+00
        -11   -1    0    0    0    0  0.00000000000E+00  0.00000000000E+00  0.45593999997E+02  0.45594000000E+02  0.51100000000E-03 0. -1.
         11   -1    0    0    0    0 -0.00000000000E+00 -0.00000000000E+00 -0.45593999997E+02  0.45594000000E+02  0.51100000000E-03 0.  1.
         23    2    1    2    0    0  0.00000000000E+00  0.00000000000E+00  0.35527136788E-14  0.91188000000E+02  0.91188000000E+02 0.  0.
    9900012    2    3    3    0    0 -0.25940327563E+02 -0.98440920841E+01 -0.24206938417E+02  0.54367046582E+02  0.39999914294E+02 0.  0.
        -12    1    3    3    0    0  0.25940327563E+02  0.98440920841E+01  0.24206938417E+02  0.36820953418E+02  0.00000000000E+00 0.  1.
         11    1    4    4    0    0  0.16670743824E+01  0.17532424212E+01  0.23907638369E+01  0.34012862227E+01  0.51100000000E-03 0. -1.
        -11    1    4    4    0    0 -0.30373336839E+02 -0.20782679681E+01 -0.27481972539E+02  0.41013627045E+02  0.51100000000E-03 0.  1.
        -12    1    4    4    0    0  0.27659348933E+01 -0.95190665372E+01  0.88427028537E+00  0.99521333146E+01  0.00000000000E+00 0.  1.
</event>
<event>
 8    1  0.1253703E-006  0.9118800E+02  0.7816164E-02  0.1184000E+00
        -11   -1    0    0    0    0  0.00000000000E+00  0.00000000000E+00  0.45593999997E+02  0.45594000000E+02  0.51100000000E-03 0. -1.
         11   -1    0    0    0    0 -0.00000000000E+00 -0.00000000000E+00 -0.45593999997E+02  0.45594000000E+02  0.51100000000E-03 0.  1.
         23    2    1    2    0    0  0.44408920985E-15  0.00000000000E+00  0.00000000000E+00  0.91188000000E+02  0.91188000000E+02 0.  0.
    9900012    2    3    3    0    0  0.17828769598E+01  0.66746884738E+01  0.36166990991E+02  0.54367063648E+02  0.39999953199E+02 0.  0.
        -12    1    3    3    0    0 -0.17828769598E+01 -0.66746884738E+01 -0.36166990991E+02  0.36820936352E+02  0.00000000000E+00 0.  1.
         11    1    4    4    0    0 -0.16924387897E+01 -0.20612640245E+01  0.30210935024E+02  0.30328431442E+02  0.51100000000E-03 0. -1.
        -11    1    4    4    0    0  0.69186866284E+01  0.31970000633E+01  0.12601715965E+02  0.14727263140E+02  0.51100000000E-03 0.  1.
         12    1    4    4    0    0 -0.34433708789E+01  0.55389524350E+01 -0.66456599981E+01  0.93113690667E+01  0.00000000000E+00 0. -1.
</event>
<event>
 8    1  0.1253703E-006  0.9118800E+02  0.7816164E-02  0.1184000E+00
        -11   -1    0    0    0    0  0.00000000000E+00  0.00000000000E+00  0.45593999997E+02  0.45594000000E+02  0.51100000000E-03 0. -1.
         11   -1    0    0    0    0 -0.00000000000E+00 -0.00000000000E+00 -0.45593999997E+02  0.45594000000E+02  0.51100000000E-03 0.  1.
         23    2    1    2    0    0  0.00000000000E+00 -0.35527136788E-14  0.00000000000E+00  0.91188000000E+02  0.91188000000E+02 0.  0.
    9900012    2    3    3    0    0 -0.24481332394E+02 -0.24343708121E+02 -0.12799625501E+02  0.54367052513E+02  0.39999927814E+02 0.  0.
        -12    1    3    3    0    0  0.24481332394E+02  0.24343708121E+02  0.12799625501E+02  0.36820947487E+02  0.00000000000E+00 0.  1.
         11    1    4    4    0    0 -0.14428628631E+02 -0.56198866776E+01  0.19900277484E+01  0.15611811591E+02  0.51100000000E-03 0. -1.
        -11    1    4    4    0    0  0.41058431440E+01 -0.19754624963E+02 -0.31997229288E+01  0.20428934932E+02  0.51100000000E-03 0.  1.
        -12    1    4    4    0    0 -0.14158546907E+02  0.10308035200E+01 -0.11589930320E+02  0.18326305990E+02  0.00000000000E+00 0.  1.
</event>
<event>
 8    1  0.1253703E-006  0.9118800E+02  0.7816164E-02  0.1184000E+00
        -11   -1    0    0    0    0  0.00000000000E+00  0.00000000000E+00  0.45593999997E+02  0.45594000000E+02  0.51100000000E-03 0.  1.
         11   -1    0    0    0    0 -0.00000000000E+00 -0.00000000000E+00 -0.45593999997E+02  0.45594000000E+02  0.51100000000E-03 0. -1.
         23    2    1    2    0    0 -0.17763568394E-14 -0.88817841970E-15  0.00000000000E+00  0.91188000000E+02  0.91188000000E+02 0.  0.
    9900012    2    3    3    0    0  0.12178517576E+02  0.48909816919E+01 -0.34402667155E+02  0.54367061669E+02  0.39999948686E+02 0.  0.
        -12    1    3    3    0    0 -0.12178517576E+02 -0.48909816919E+01  0.34402667155E+02  0.36820938331E+02  0.00000000000E+00 0.  1.
         11    1    4    4    0    0  0.97471635644E+01 -0.13646364861E+01 -0.29809249744E+02  0.31392049962E+02  0.51100000000E-03 0. -1.
        -11    1    4    4    0    0 -0.30084139640E+01  0.11864683954E+02  0.24181057175E+01  0.12476718937E+02  0.51100000000E-03 0.  1.
         12    1    4    4    0    0  0.54397679753E+01 -0.56090657757E+01 -0.70115231285E+01  0.10498292770E+02  0.00000000000E+00 0. -1.
</event>
<event>
 8    1  0.1253703E-006  0.9118800E+02  0.7816164E-02  0.1184000E+00
        -11   -1    0    0    0    0  0.00000000000E+00  0.00000000000E+00  0.45593999997E+02  0.45594000000E+02  0.51100000000E-03 0. -1.
         11   -1    0    0    0    0 -0.00000000000E+00 -0.00000000000E+00 -0.45593999997E+02  0.45594000000E+02  0.51100000000E-03 0.  1.
         23    2    1    2    0    0  0.00000000000E+00 -0.17763568394E-14 -0.71054273576E-14  0.91188000000E+02  0.91188000000E+02 0.  0.
    9900012    2    3    3    0    0  0.24110746494E+01 -0.12347765485E+02  0.34604939166E+02  0.54367049331E+02  0.39999920561E+02 0.  0.
        -12    1    3    3    0    0 -0.24110746494E+01  0.12347765485E+02 -0.34604939166E+02  0.36820950669E+02  0.00000000000E+00 0.  1.
         11    1    4    4    0    0  0.92805145749E+01 -0.12279440452E+02  0.15023589796E+02  0.21508622904E+02  0.51100000000E-03 0. -1.
        -11    1    4    4    0    0  0.77705593029E+00 -0.90071239995E+01 -0.10580176216E+01  0.91022799457E+01  0.51100000000E-03 0.  1.
        -12    1    4    4    0    0 -0.76464958558E+01  0.89387989670E+01  0.20639366992E+02  0.23756146482E+02  0.00000000000E+00 0.  1.
</event>
<event>
 8    1  0.1253703E-006  0.9118800E+02  0.7816164E-02  0.1184000E+00
        -11   -1    0    0    0    0  0.00000000000E+00  0.00000000000E+00  0.45593999997E+02  0.45594000000E+02  0.51100000000E-03 0. -1.
         11   -1    0    0    0    0 -0.00000000000E+00 -0.00000000000E+00 -0.45593999997E+02  0.45594000000E+02  0.51100000000E-03 0.  1.
         23    2    1    2    0    0  0.00000000000E+00  0.00000000000E+00  0.00000000000E+00  0.91188000000E+02  0.91188000000E+02 0.  0.
    9900012    2    3    3    0    0 -0.98712526303E+01 -0.90812931373E+01  0.34290982685E+02  0.54367041199E+02  0.39999902022E+02 0.  0.
        -12    1    3    3    0    0  0.98712526303E+01  0.90812931373E+01 -0.34290982685E+02  0.36820958801E+02  0.00000000000E+00 0.  1.
         11    1    4    4    0    0 -0.24051270471E+02  0.63728290518E+00  0.17044987825E+02  0.29485612609E+02  0.51100000000E-03 0. -1.
        -11    1    4    4    0    0  0.66423347015E+01 -0.69487491944E+01  0.71456838419E+01  0.11977751186E+02  0.51100000000E-03 0.  1.
         12    1    4    4    0    0  0.75376831388E+01 -0.27698268481E+01  0.10100311018E+02  0.12903677403E+02  0.00000000000E+00 0. -1.
</event>
<event>
 8    1  0.1253703E-006  0.9118800E+02  0.7816164E-02  0.1184000E+00
        -11   -1    0    0    0    0  0.00000000000E+00  0.00000000000E+00  0.45593999997E+02  0.45594000000E+02  0.51100000000E-03 0.  1.
         11   -1    0    0    0    0 -0.00000000000E+00 -0.00000000000E+00 -0.45593999997E+02  0.45594000000E+02  0.51100000000E-03 0. -1.
         23    2    1    2    0    0  0.00000000000E+00 -0.17763568394E-14  0.00000000000E+00  0.91188000000E+02  0.91188000000E+02 0.  0.
    9900012    2    3    3    0    0  0.18337666054E+02 -0.62477693490E+01  0.31312568855E+02  0.54367060489E+02  0.39999945998E+02 0.  0.
         12    1    3    3    0    0 -0.18337666054E+02  0.62477693490E+01 -0.31312568855E+02  0.36820939511E+02  0.00000000000E+00 0. -1.
         11    1    4    4    0    0  0.13828590764E+02  0.46045779002E+01 -0.11807698711E+01  0.14622799934E+02  0.51100000000E-03 0. -1.
        -11    1    4    4    0    0 -0.11813609828E+01  0.40344028171E+01  0.17018972810E+02  0.17530472202E+02  0.51100000000E-03 0.  1.
         12    1    4    4    0    0  0.56904362728E+01 -0.14886750066E+02  0.15474365916E+02  0.22213788354E+02  0.00000000000E+00 0. -1.
</event>
<event>
 8    1  0.1253703E-006  0.9118800E+02  0.7816164E-02  0.1184000E+00
        -11   -1    0    0    0    0  0.00000000000E+00  0.00000000000E+00  0.45593999997E+02  0.45594000000E+02  0.51100000000E-03 0. -1.
         11   -1    0    0    0    0 -0.00000000000E+00 -0.00000000000E+00 -0.45593999997E+02  0.45594000000E+02  0.51100000000E-03 0.  1.
         23    2    1    2    0    0  0.00000000000E+00  0.00000000000E+00  0.00000000000E+00  0.91188000000E+02  0.91188000000E+02 0.  0.
    9900012    2    3    3    0    0  0.10090022469E+02 -0.11859862797E+02  0.33366388904E+02  0.54367071067E+02  0.39999970112E+02 0.  0.
        -12    1    3    3    0    0 -0.10090022469E+02  0.11859862797E+02 -0.33366388904E+02  0.36820928933E+02  0.00000000000E+00 0.  1.
         11    1    4    4    0    0  0.79969150762E+01 -0.97870654821E+01  0.18060273080E+02  0.22043383712E+02  0.51100000000E-03 0. -1.
        -11    1    4    4    0    0  0.14823204832E+02  0.11756861222E+01  0.52158139314E+01  0.15757993355E+02  0.51100000000E-03 0.  1.
         12    1    4    4    0    0 -0.12730097439E+02 -0.32484834373E+01  0.10090301892E+02  0.16565694001E+02  0.00000000000E+00 0. -1.
</event>
<event>
 8    1  0.1253703E-006  0.9118800E+02  0.7816164E-02  0.1184000E+00
        -11   -1    0    0    0    0  0.00000000000E+00  0.00000000000E+00  0.45593999997E+02  0.45594000000E+02  0.51100000000E-03 0.  1.
         11   -1    0    0    0    0 -0.00000000000E+00 -0.00000000000E+00 -0.45593999997E+02  0.45594000000E+02  0.51100000000E-03 0. -1.
         23    2    1    2    0    0  0.00000000000E+00 -0.35527136788E-14 -0.35527136788E-14  0.91188000000E+02  0.91188000000E+02 0.  0.
    9900012    2    3    3    0    0 -0.15578044516E+02 -0.26773169379E+02  0.19907342962E+02  0.54367076962E+02  0.39999983551E+02 0.  0.
         12    1    3    3    0    0  0.15578044516E+02  0.26773169379E+02 -0.19907342962E+02  0.36820923038E+02  0.00000000000E+00 0. -1.
         11    1    4    4    0    0 -0.15535867704E+02 -0.19543775053E+02  0.12574277297E+01  0.24998068993E+02  0.51100000000E-03 0. -1.
        -11    1    4    4    0    0 -0.70873928440E+01 -0.42658613839E+00 -0.12316040732E+01  0.72062446471E+01  0.51100000000E-03 0.  1.
        -12    1    4    4    0    0  0.70452160319E+01 -0.68028081875E+01  0.19881519306E+02  0.22162763322E+02  0.00000000000E+00 0.  1.
</event>
<event>
 8    1  0.1253703E-006  0.9118800E+02  0.7816164E-02  0.1184000E+00
        -11   -1    0    0    0    0  0.00000000000E+00  0.00000000000E+00  0.45593999997E+02  0.45594000000E+02  0.51100000000E-03 0. -1.
         11   -1    0    0    0    0 -0.00000000000E+00 -0.00000000000E+00 -0.45593999997E+02  0.45594000000E+02  0.51100000000E-03 0.  1.
         23    2    1    2    0    0  0.00000000000E+00  0.00000000000E+00  0.00000000000E+00  0.91188000000E+02  0.91188000000E+02 0.  0.
    9900012    2    3    3    0    0 -0.11102650378E+02  0.30458875021E+02  0.17457600614E+02  0.54367085669E+02  0.40000003399E+02 0.  0.
        -12    1    3    3    0    0  0.11102650378E+02 -0.30458875021E+02 -0.17457600614E+02  0.36820914331E+02  0.00000000000E+00 0.  1.
         11    1    4    4    0    0 -0.22411530374E+02  0.18134508172E+02  0.10985714932E+02  0.30851629020E+02  0.51100000000E-03 0. -1.
        -11    1    4    4    0    0 -0.80005163521E-01  0.23779980743E+01 -0.43245559448E+01  0.49358950605E+01  0.51100000000E-03 0.  1.
        -12    1    4    4    0    0  0.11388885160E+02  0.99463687750E+01  0.10796441628E+02  0.18579561588E+02  0.00000000000E+00 0.  1.
</event>
<event>
 8    1  0.1253703E-006  0.9118800E+02  0.7816164E-02  0.1184000E+00
        -11   -1    0    0    0    0  0.00000000000E+00  0.00000000000E+00  0.45593999997E+02  0.45594000000E+02  0.51100000000E-03 0. -1.
         11   -1    0    0    0    0 -0.00000000000E+00 -0.00000000000E+00 -0.45593999997E+02  0.45594000000E+02  0.51100000000E-03 0.  1.
         23    2    1    2    0    0  0.71054273576E-14  0.88817841970E-15  0.17763568394E-14  0.91188000000E+02  0.91188000000E+02 0.  0.
    9900012    2    3    3    0    0  0.33366569808E+02  0.76683715967E+01  0.13551705898E+02  0.54367073389E+02  0.39999975406E+02 0.  0.
        -12    1    3    3    0    0 -0.33366569808E+02 -0.76683715967E+01 -0.13551705898E+02  0.36820926611E+02  0.00000000000E+00 0.  1.
         11    1    4    4    0    0  0.85010563642E+01  0.10727781139E+02  0.11468295727E+02  0.17857072958E+02  0.51100000000E-03 0. -1.
        -11    1    4    4    0    0  0.13613932366E+02  0.96519050560E+01 -0.59658859789E+01  0.17722590709E+02  0.51100000000E-03 0.  1.
         12    1    4    4    0    0  0.11251581078E+02 -0.12711314598E+02  0.80492961497E+01  0.18787409722E+02  0.00000000000E+00 0. -1.
</event>
<event>
 8    1  0.1253703E-006  0.9118800E+02  0.7816164E-02  0.1184000E+00
        -11   -1    0    0    0    0  0.00000000000E+00  0.00000000000E+00  0.45593999997E+02  0.45594000000E+02  0.51100000000E-03 0. -1.
         11   -1    0    0    0    0 -0.00000000000E+00 -0.00000000000E+00 -0.45593999997E+02  0.45594000000E+02  0.51100000000E-03 0.  1.
         23    2    1    2    0    0  0.00000000000E+00  0.00000000000E+00  0.00000000000E+00  0.91188000000E+02  0.91188000000E+02 0.  0.
    9900012    2    3    3    0    0  0.94272688999E+01 -0.34411517890E+02  0.90967690214E+01  0.54367120474E+02  0.40000082745E+02 0.  0.
        -12    1    3    3    0    0 -0.94272688999E+01  0.34411517890E+02 -0.90967690214E+01  0.36820879526E+02  0.00000000000E+00 0.  1.
         11    1    4    4    0    0  0.91175479566E+01  0.16114424767E+01 -0.17101023511E+00  0.92604358622E+01  0.51100000000E-03 0. -1.
        -11    1    4    4    0    0  0.76458389283E+01 -0.34046399337E+02  0.25881311125E+01  0.34990206968E+02  0.51100000000E-03 0.  1.
         12    1    4    4    0    0 -0.73361179850E+01 -0.19765610296E+01  0.66796481440E+01  0.10116477644E+02  0.00000000000E+00 0. -1.
</event>
<event>
 8    1  0.1253703E-006  0.9118800E+02  0.7816164E-02  0.1184000E+00
        -11   -1    0    0    0    0  0.00000000000E+00  0.00000000000E+00  0.45593999997E+02  0.45594000000E+02  0.51100000000E-03 0. -1.
         11   -1    0    0    0    0 -0.00000000000E+00 -0.00000000000E+00 -0.45593999997E+02  0.45594000000E+02  0.51100000000E-03 0.  1.
         23    2    1    2    0    0  0.35527136788E-14 -0.35527136788E-14  0.35527136788E-14  0.91188000000E+02  0.91188000000E+02 0.  0.
    9900012    2    3    3    0    0 -0.14319390815E+02  0.30050029030E+02 -0.15739426020E+02  0.54367099285E+02  0.40000034439E+02 0.  0.
         12    1    3    3    0    0  0.14319390815E+02 -0.30050029030E+02  0.15739426020E+02  0.36820900715E+02  0.00000000000E+00 0. -1.
         11    1    4    4    0    0 -0.75465464735E+01  0.44714786089E+01 -0.14881498724E+02  0.17274359298E+02  0.51100000000E-03 0. -1.
        -11    1    4    4    0    0  0.29241310919E+01 -0.45557013684E+01  0.22644330375E+00  0.54181393884E+01  0.51100000000E-03 0.  1.
        -12    1    4    4    0    0 -0.96969754339E+01  0.30134251790E+02 -0.10843706005E+01  0.31674600599E+02  0.00000000000E+00 0.  1.
</event>
<event>
 8    1  0.1253703E-006  0.9118800E+02  0.7816164E-02  0.1184000E+00
        -11   -1    0    0    0    0  0.00000000000E+00  0.00000000000E+00  0.45593999997E+02  0.45594000000E+02  0.51100000000E-03 0. -1.
         11   -1    0    0    0    0 -0.00000000000E+00 -0.00000000000E+00 -0.45593999997E+02  0.45594000000E+02  0.51100000000E-03 0.  1.
         23    2    1    2    0    0  0.15543122345E-14  0.00000000000E+00  0.00000000000E+00  0.91188000000E+02  0.91188000000E+02 0.  0.
    9900012    2    3    3    0    0 -0.41346366530E+00 -0.34926738070E+02  0.11650181821E+02  0.54367153718E+02  0.40000158532E+02 0.  0.
         12    1    3    3    0    0  0.41346366530E+00  0.34926738070E+02 -0.11650181821E+02  0.36820846282E+02  0.00000000000E+00 0. -1.
         11    1    4    4    0    0  0.17149268220E+01 -0.46505427982E+01  0.13433632007E+02  0.14318903292E+02  0.51100000000E-03 0. -1.
        -11    1    4    4    0    0  0.10642580247E+02 -0.14239376946E+02 -0.66460574413E+01  0.18978789474E+02  0.51100000000E-03 0.  1.
        -12    1    4    4    0    0 -0.12770970734E+02 -0.16036818326E+02  0.48626072560E+01  0.21069460953E+02  0.00000000000E+00 0.  1.
</event>
<event>
 8    1  0.1253703E-006  0.9118800E+02  0.7816164E-02  0.1184000E+00
        -11   -1    0    0    0    0  0.00000000000E+00  0.00000000000E+00  0.45593999997E+02  0.45594000000E+02  0.51100000000E-03 0.  1.
         11   -1    0    0    0    0 -0.00000000000E+00 -0.00000000000E+00 -0.45593999997E+02  0.45594000000E+02  0.51100000000E-03 0. -1.
         23    2    1    2    0    0  0.00000000000E+00  0.00000000000E+00  0.00000000000E+00  0.91188000000E+02  0.91188000000E+02 0.  0.
    9900012    2    3    3    0    0  0.14042466146E+02 -0.20261086552E+01 -0.33977693756E+02  0.54367086856E+02  0.40000006106E+02 0.  0.
        -12    1    3    3    0    0 -0.14042466146E+02  0.20261086552E+01  0.33977693756E+02  0.36820913144E+02  0.00000000000E+00 0.  1.
         11    1    4    4    0    0 -0.33521860867E+01 -0.49096958555E+01 -0.40424376321E+01  0.71891284051E+01  0.51100000000E-03 0.  1.
        -11    1    4    4    0    0 -0.80231546109E+01  0.27726600263E+01 -0.16192400109E+02  0.18282572989E+02  0.51100000000E-03 0. -1.
         12    1    4    4    0    0  0.25417806844E+02  0.11092717400E+00 -0.13742856015E+02  0.28895385463E+02  0.00000000000E+00 0. -1.
</event>
<event>
 8    1  0.1253703E-006  0.9118800E+02  0.7816164E-02  0.1184000E+00
        -11   -1    0    0    0    0  0.00000000000E+00  0.00000000000E+00  0.45593999997E+02  0.45594000000E+02  0.51100000000E-03 0. -1.
         11   -1    0    0    0    0 -0.00000000000E+00 -0.00000000000E+00 -0.45593999997E+02  0.45594000000E+02  0.51100000000E-03 0.  1.
         23    2    1    2    0    0 -0.17763568394E-14  0.00000000000E+00  0.00000000000E+00  0.91188000000E+02  0.91188000000E+02 0.  0.
    9900012    2    3    3    0    0 -0.13402094825E+02 -0.22067630878E+02 -0.26252278690E+02  0.54367100844E+02  0.40000037994E+02 0.  0.
         12    1    3    3    0    0  0.13402094825E+02  0.22067630878E+02  0.26252278690E+02  0.36820899156E+02  0.00000000000E+00 0. -1.
         11    1    4    4    0    0 -0.24837735649E+01  0.78073279207E+01 -0.13422492579E+02  0.15725355566E+02  0.51100000000E-03 0. -1.
        -11    1    4    4    0    0 -0.61724750759E+01 -0.28387561074E+02 -0.15573246392E+02  0.32961782047E+02  0.51100000000E-03 0.  1.
        -12    1    4    4    0    0 -0.47458461839E+01 -0.14873977250E+01  0.27434602809E+01  0.56799632311E+01  0.00000000000E+00 0.  1.
</event>
<event>
 8    1  0.1253703E-006  0.9118800E+02  0.7816164E-02  0.1184000E+00
        -11   -1    0    0    0    0  0.00000000000E+00  0.00000000000E+00  0.45593999997E+02  0.45594000000E+02  0.51100000000E-03 0.  1.
         11   -1    0    0    0    0 -0.00000000000E+00 -0.00000000000E+00 -0.45593999997E+02  0.45594000000E+02  0.51100000000E-03 0. -1.
         23    2    1    2    0    0  0.00000000000E+00  0.00000000000E+00  0.00000000000E+00  0.91188000000E+02  0.91188000000E+02 0.  0.
    9900012    2    3    3    0    0  0.32961434079E+02  0.16181716595E+02  0.27341616095E+01  0.54367085723E+02  0.40000003522E+02 0.  0.
         12    1    3    3    0    0 -0.32961434079E+02 -0.16181716595E+02 -0.27341616095E+01  0.36820914277E+02  0.00000000000E+00 0. -1.
         11    1    4    4    0    0 -0.50395882844E+01  0.79106399475E+00  0.62647023254E+01  0.80789682390E+01  0.51100000000E-03 0. -1.
        -11    1    4    4    0    0  0.30663871207E+02  0.17974641244E+02 -0.91370284336E+01  0.36699400732E+02  0.51100000000E-03 0.  1.
        -12    1    4    4    0    0  0.73371511572E+01 -0.25839886438E+01  0.56064877177E+01  0.95887167517E+01  0.00000000000E+00 0.  1.
</event>
<event>
 8    1  0.1253703E-006  0.9118800E+02  0.7816164E-02  0.1184000E+00
        -11   -1    0    0    0    0  0.00000000000E+00  0.00000000000E+00  0.45593999997E+02  0.45594000000E+02  0.51100000000E-03 0.  1.
         11   -1    0    0    0    0 -0.00000000000E+00 -0.00000000000E+00 -0.45593999997E+02  0.45594000000E+02  0.51100000000E-03 0. -1.
         23    2    1    2    0    0  0.00000000000E+00  0.44408920985E-15  0.00000000000E+00  0.91188000000E+02  0.91188000000E+02 0.  0.
    9900012    2    3    3    0    0  0.97076629241E+01  0.27692407638E+01  0.35410061788E+02  0.54367083530E+02  0.39999998524E+02 0.  0.
         12    1    3    3    0    0 -0.97076629241E+01 -0.27692407638E+01 -0.35410061788E+02  0.36820916470E+02  0.00000000000E+00 0. -1.
         11    1    4    4    0    0 -0.24307434320E+01 -0.83661769365E+01  0.30829877864E+01  0.92415498763E+01  0.51100000000E-03 0. -1.
        -11    1    4    4    0    0  0.68412835357E+01  0.13388790090E+02  0.31188528880E+01  0.15355458446E+02  0.51100000000E-03 0.  1.
        -12    1    4    4    0    0  0.52971228204E+01 -0.22533723893E+01  0.29208221113E+02  0.29770075208E+02  0.00000000000E+00 0.  1.
</event>
<event>
 8    1  0.1253703E-006  0.9118800E+02  0.7816164E-02  0.1184000E+00
        -11   -1    0    0    0    0  0.00000000000E+00  0.00000000000E+00  0.45593999997E+02  0.45594000000E+02  0.51100000000E-03 0.  1.
         11   -1    0    0    0    0 -0.00000000000E+00 -0.00000000000E+00 -0.45593999997E+02  0.45594000000E+02  0.51100000000E-03 0. -1.
         23    2    1    2    0    0  0.00000000000E+00  0.35527136788E-14  0.88817841970E-15  0.91188000000E+02  0.91188000000E+02 0.  0.
    9900012    2    3    3    0    0  0.30047644853E+02  0.20881994298E+02 -0.41063147377E+01  0.54367075680E+02  0.39999980627E+02 0.  0.
        -12    1    3    3    0    0 -0.30047644853E+02 -0.20881994298E+02  0.41063147377E+01  0.36820924320E+02  0.00000000000E+00 0.  1.
         11    1    4    4    0    0  0.23540963373E+02  0.30382317518E+02  0.22712602354E+01  0.38502218087E+02  0.51100000000E-03 0. -1.
        -11    1    4    4    0    0  0.71849895553E+01 -0.42295072570E+01 -0.11606185132E+01  0.84178288258E+01  0.51100000000E-03 0.  1.
         12    1    4    4    0    0 -0.67830807537E+00 -0.52708159625E+01 -0.52169564599E+01  0.74470287673E+01  0.00000000000E+00 0. -1.
</event>
<event>
 8    1  0.1253703E-006  0.9118800E+02  0.7816164E-02  0.1184000E+00
        -11   -1    0    0    0    0  0.00000000000E+00  0.00000000000E+00  0.45593999997E+02  0.45594000000E+02  0.51100000000E-03 0. -1.
         11   -1    0    0    0    0 -0.00000000000E+00 -0.00000000000E+00 -0.45593999997E+02  0.45594000000E+02  0.51100000000E-03 0.  1.
         23    2    1    2    0    0 -0.35527136788E-14 -0.35527136788E-14  0.00000000000E+00  0.91188000000E+02  0.91188000000E+02 0.  0.
    9900012    2    3    3    0    0  0.16956993939E+02  0.20483426572E+02  0.25468971145E+02  0.54367096986E+02  0.40000029199E+02 0.  0.
        -12    1    3    3    0    0 -0.16956993939E+02 -0.20483426572E+02 -0.25468971145E+02  0.36820903014E+02  0.00000000000E+00 0.  1.
         11    1    4    4    0    0  0.92454139037E+01  0.21362558178E+01  0.19385108477E+02  0.21582949244E+02  0.51100000000E-03 0. -1.
        -11    1    4    4    0    0  0.79822970875E+01  0.12722759769E+02  0.15645309806E+02  0.21687816906E+02  0.51100000000E-03 0.  1.
        -12    1    4    4    0    0 -0.27071705244E+00  0.56244109850E+01 -0.95614471377E+01  0.11096330836E+02  0.00000000000E+00 0.  1.
</event>
<event>
 8    1  0.1253703E-006  0.9118800E+02  0.7816164E-02  0.1184000E+00
        -11   -1    0    0    0    0  0.00000000000E+00  0.00000000000E+00  0.45593999997E+02  0.45594000000E+02  0.51100000000E-03 0. -1.
         11   -1    0    0    0    0 -0.00000000000E+00 -0.00000000000E+00 -0.45593999997E+02  0.45594000000E+02  0.51100000000E-03 0.  1.
         23    2    1    2    0    0  0.17763568394E-14  0.35527136788E-14  0.00000000000E+00  0.91188000000E+02  0.91188000000E+02 0.  0.
    9900012    2    3    3    0    0  0.11432634201E+02 -0.28664786469E+02  0.20084963726E+02  0.54367070137E+02  0.39999967992E+02 0.  0.
        -12    1    3    3    0    0 -0.11432634201E+02  0.28664786469E+02 -0.20084963726E+02  0.36820929863E+02  0.00000000000E+00 0.  1.
         11    1    4    4    0    0  0.76360338035E+01 -0.84673011340E+01  0.18971918648E+02  0.22134540840E+02  0.51100000000E-03 0. -1.
        -11    1    4    4    0    0  0.17538175832E+01 -0.11572384863E+02  0.12942946310E+02  0.17450381858E+02  0.51100000000E-03 0.  1.
        -12    1    4    4    0    0  0.20427828147E+01 -0.86251004717E+01 -0.11829901232E+02  0.14782147440E+02  0.00000000000E+00 0.  1.
</event>
<event>
 8    1  0.1253703E-006  0.9118800E+02  0.7816164E-02  0.1184000E+00
        -11   -1    0    0    0    0  0.00000000000E+00  0.00000000000E+00  0.45593999997E+02  0.45594000000E+02  0.51100000000E-03 0.  1.
         11   -1    0    0    0    0 -0.00000000000E+00 -0.00000000000E+00 -0.45593999997E+02  0.45594000000E+02  0.51100000000E-03 0. -1.
         23    2    1    2    0    0 -0.35527136788E-14 -0.17763568394E-14  0.00000000000E+00  0.91188000000E+02  0.91188000000E+02 0.  0.
    9900012    2    3    3    0    0  0.19256428563E+02  0.14151473701E+02  0.28012631502E+02  0.54367057962E+02  0.39999940235E+02 0.  0.
         12    1    3    3    0    0 -0.19256428563E+02 -0.14151473701E+02 -0.28012631502E+02  0.36820942038E+02  0.00000000000E+00 0. -1.
         11    1    4    4    0    0  0.11029083372E+01 -0.12499215847E+01 -0.68572368604E+01  0.70569404411E+01  0.51100000000E-03 0. -1.
        -11    1    4    4    0    0 -0.23694152182E+01  0.83673896063E+01  0.39824177148E+01  0.95648830843E+01  0.51100000000E-03 0.  1.
         12    1    4    4    0    0  0.20522935444E+02  0.70340056798E+01  0.30887450648E+02  0.37745234436E+02  0.00000000000E+00 0. -1.
</event>
<event>
 8    1  0.1253703E-006  0.9118800E+02  0.7816164E-02  0.1184000E+00
        -11   -1    0    0    0    0  0.00000000000E+00  0.00000000000E+00  0.45593999997E+02  0.45594000000E+02  0.51100000000E-03 0. -1.
         11   -1    0    0    0    0 -0.00000000000E+00 -0.00000000000E+00 -0.45593999997E+02  0.45594000000E+02  0.51100000000E-03 0.  1.
         23    2    1    2    0    0  0.00000000000E+00  0.94368957093E-15  0.00000000000E+00  0.91188000000E+02  0.91188000000E+02 0.  0.
    9900012    2    3    3    0    0 -0.45831626228E+01  0.12647238324E+00 -0.36534334303E+02  0.54367096183E+02  0.40000027369E+02 0.  0.
         12    1    3    3    0    0  0.45831626228E+01 -0.12647238324E+00  0.36534334303E+02  0.36820903817E+02  0.00000000000E+00 0. -1.
         11    1    4    4    0    0  0.69682742229E+00 -0.90633362103E+01 -0.24843436729E+01  0.94234598457E+01  0.51100000000E-03 0. -1.
        -11    1    4    4    0    0 -0.59915345115E+01  0.17943603712E+02 -0.15638017968E+02  0.24544225517E+02  0.51100000000E-03 0.  1.
        -12    1    4    4    0    0  0.71154446643E+00 -0.87537951187E+01 -0.18411972663E+02  0.20399410821E+02  0.00000000000E+00 0.  1.
</event>
<event>
 8    1  0.1253703E-006  0.9118800E+02  0.7816164E-02  0.1184000E+00
        -11   -1    0    0    0    0  0.00000000000E+00  0.00000000000E+00  0.45593999997E+02  0.45594000000E+02  0.51100000000E-03 0.  1.
         11   -1    0    0    0    0 -0.00000000000E+00 -0.00000000000E+00 -0.45593999997E+02  0.45594000000E+02  0.51100000000E-03 0. -1.
         23    2    1    2    0    0  0.35527136788E-14 -0.35527136788E-14 -0.35527136788E-14  0.91188000000E+02  0.91188000000E+02 0.  0.
    9900012    2    3    3    0    0 -0.17600333662E+02  0.19161913388E+02  0.26054352822E+02  0.54367082430E+02  0.39999996016E+02 0.  0.
         12    1    3    3    0    0  0.17600333662E+02 -0.19161913388E+02 -0.26054352822E+02  0.36820917570E+02  0.00000000000E+00 0. -1.
         11    1    4    4    0    0  0.74062506832E+01  0.11252645161E+02 -0.13956914360E+01  0.13543357307E+02  0.51100000000E-03 0. -1.
        -11    1    4    4    0    0 -0.21532768255E+02  0.97497555959E+01  0.15555838414E+02  0.28296677401E+02  0.51100000000E-03 0.  1.
         12    1    4    4    0    0 -0.34738160897E+01 -0.18404873685E+01  0.11894205844E+02  0.12527047722E+02  0.00000000000E+00 0. -1.
</event>
<event>
 8    1  0.1253703E-006  0.9118800E+02  0.7816164E-02  0.1184000E+00
        -11   -1    0    0    0    0  0.00000000000E+00  0.00000000000E+00  0.45593999997E+02  0.45594000000E+02  0.51100000000E-03 0.  1.
         11   -1    0    0    0    0 -0.00000000000E+00 -0.00000000000E+00 -0.45593999997E+02  0.45594000000E+02  0.51100000000E-03 0. -1.
         23    2    1    2    0    0 -0.35527136788E-14  0.00000000000E+00  0.00000000000E+00  0.91188000000E+02  0.91188000000E+02 0.  0.
    9900012    2    3    3    0    0 -0.24254021853E+02 -0.20101867873E+02  0.19063971694E+02  0.54367113471E+02  0.40000066780E+02 0.  0.
         12    1    3    3    0    0  0.24254021853E+02  0.20101867873E+02 -0.19063971694E+02  0.36820886529E+02  0.00000000000E+00 0. -1.
         11    1    4    4    0    0 -0.20977583685E+02 -0.15422799929E+01  0.27555772967E+01  0.21213930596E+02  0.51100000000E-03 0.  1.
        -11    1    4    4    0    0  0.49100982858E+01  0.85774699578E-01 -0.24308793477E+01  0.54795617653E+01  0.51100000000E-03 0. -1.
         12    1    4    4    0    0 -0.81865364544E+01 -0.18645362579E+02  0.18739273745E+02  0.27673621110E+02  0.00000000000E+00 0. -1.
</event>
<event>
 8    1  0.1253703E-006  0.9118800E+02  0.7816164E-02  0.1184000E+00
        -11   -1    0    0    0    0  0.00000000000E+00  0.00000000000E+00  0.45593999997E+02  0.45594000000E+02  0.51100000000E-03 0. -1.
         11   -1    0    0    0    0 -0.00000000000E+00 -0.00000000000E+00 -0.45593999997E+02  0.45594000000E+02  0.51100000000E-03 0.  1.
         23    2    1    2    0    0  0.71054273576E-14 -0.17763568394E-14  0.35527136788E-14  0.91188000000E+02  0.91188000000E+02 0.  0.
    9900012    2    3    3    0    0 -0.23790653633E+02 -0.10348769790E+02 -0.26128233337E+02  0.54367125299E+02  0.40000093744E+02 0.  0.
         12    1    3    3    0    0  0.23790653633E+02  0.10348769790E+02  0.26128233337E+02  0.36820874701E+02  0.00000000000E+00 0. -1.
         11    1    4    4    0    0 -0.25427939528E+01 -0.19748492296E+02 -0.18417223225E+02  0.27123105660E+02  0.51100000000E-03 0. -1.
        -11    1    4    4    0    0 -0.75656006643E+00  0.62107996743E+00  0.25291979924E+01  0.27120040940E+01  0.51100000000E-03 0.  1.
        -12    1    4    4    0    0 -0.20491299613E+02  0.87786425386E+01 -0.10240208105E+02  0.24532015545E+02  0.00000000000E+00 0.  1.
</event>
<event>
 8    1  0.1253703E-006  0.9118800E+02  0.7816164E-02  0.1184000E+00
        -11   -1    0    0    0    0  0.00000000000E+00  0.00000000000E+00  0.45593999997E+02  0.45594000000E+02  0.51100000000E-03 0. -1.
         11   -1    0    0    0    0 -0.00000000000E+00 -0.00000000000E+00 -0.45593999997E+02  0.45594000000E+02  0.51100000000E-03 0.  1.
         23    2    1    2    0    0 -0.35527136788E-14  0.00000000000E+00  0.88817841970E-15  0.91188000000E+02  0.91188000000E+02 0.  0.
    9900012    2    3    3    0    0 -0.20550909184E+02 -0.29870560381E+02  0.64172133411E+01  0.54367205972E+02  0.40000277653E+02 0.  0.
        -12    1    3    3    0    0  0.20550909184E+02  0.29870560381E+02 -0.64172133411E+01  0.36820794028E+02  0.00000000000E+00 0.  1.
         11    1    4    4    0    0  0.26044428439E+00  0.59422894815E+01 -0.63797691883E+01  0.87223901921E+01  0.51100000000E-03 0.  1.
        -11    1    4    4    0    0 -0.47088348514E+01 -0.22129932179E+02  0.77897111056E+01  0.23928782319E+02  0.51100000000E-03 0. -1.
        -12    1    4    4    0    0 -0.16102518617E+02 -0.13682917684E+02  0.50072714238E+01  0.21716033461E+02  0.00000000000E+00 0.  1.
</event>
<event>
 8    1  0.1253703E-006  0.9118800E+02  0.7816164E-02  0.1184000E+00
        -11   -1    0    0    0    0  0.00000000000E+00  0.00000000000E+00  0.45593999997E+02  0.45594000000E+02  0.51100000000E-03 0.  1.
         11   -1    0    0    0    0 -0.00000000000E+00 -0.00000000000E+00 -0.45593999997E+02  0.45594000000E+02  0.51100000000E-03 0. -1.
         23    2    1    2    0    0 -0.17763568394E-14  0.35527136788E-14 -0.35527136788E-14  0.91188000000E+02  0.91188000000E+02 0.  0.
    9900012    2    3    3    0    0 -0.13477422415E+02  0.28724711082E+02  0.18682300843E+02  0.54367105028E+02  0.40000047533E+02 0.  0.
         12    1    3    3    0    0  0.13477422415E+02 -0.28724711082E+02 -0.18682300843E+02  0.36820894972E+02  0.00000000000E+00 0. -1.
         11    1    4    4    0    0  0.67782544999E+01  0.21031831728E+01 -0.50799274074E+00  0.71152069829E+01  0.51100000000E-03 0. -1.
        -11    1    4    4    0    0  0.52562645831E+01  0.34487635037E+00 -0.11023943952E+01  0.53816847481E+01  0.51100000000E-03 0.  1.
         12    1    4    4    0    0 -0.25511941498E+02  0.26276651559E+02  0.20292687979E+02  0.41870213297E+02  0.00000000000E+00 0. -1.
</event>
<event>
 8    1  0.1253703E-006  0.9118800E+02  0.7816164E-02  0.1184000E+00
        -11   -1    0    0    0    0  0.00000000000E+00  0.00000000000E+00  0.45593999997E+02  0.45594000000E+02  0.51100000000E-03 0.  1.
         11   -1    0    0    0    0 -0.00000000000E+00 -0.00000000000E+00 -0.45593999997E+02  0.45594000000E+02  0.51100000000E-03 0. -1.
         23    2    1    2    0    0  0.00000000000E+00 -0.35527136788E-14 -0.88817841970E-15  0.91188000000E+02  0.91188000000E+02 0.  0.
    9900012    2    3    3    0    0  0.20269759693E+02  0.30691010090E+02  0.17255378373E+01  0.54367099153E+02  0.40000034140E+02 0.  0.
         12    1    3    3    0    0 -0.20269759693E+02 -0.30691010090E+02 -0.17255378373E+01  0.36820900847E+02  0.00000000000E+00 0. -1.
         11    1    4    4    0    0  0.82947633297E+01  0.51838846267E+01 -0.15620959475E+02  0.18430684570E+02  0.51100000000E-03 0. -1.
        -11    1    4    4    0    0  0.48214128000E+01  0.15471223177E+01 -0.68267862062E+00  0.51093697473E+01  0.51100000000E-03 0.  1.
         12    1    4    4    0    0  0.71535835631E+01  0.23960003145E+02  0.18029175933E+02  0.30827044836E+02  0.00000000000E+00 0. -1.
</event>
<event>
 8    1  0.1253703E-006  0.9118800E+02  0.7816164E-02  0.1184000E+00
        -11   -1    0    0    0    0  0.00000000000E+00  0.00000000000E+00  0.45593999997E+02  0.45594000000E+02  0.51100000000E-03 0.  1.
         11   -1    0    0    0    0 -0.00000000000E+00 -0.00000000000E+00 -0.45593999997E+02  0.45594000000E+02  0.51100000000E-03 0. -1.
         23    2    1    2    0    0  0.00000000000E+00 -0.17763568394E-14  0.00000000000E+00  0.91188000000E+02  0.91188000000E+02 0.  0.
    9900012    2    3    3    0    0  0.32025279041E+02  0.61944660425E+01 -0.17081862821E+02  0.54367082784E+02  0.39999996823E+02 0.  0.
        -12    1    3    3    0    0 -0.32025279041E+02 -0.61944660425E+01  0.17081862821E+02  0.36820917216E+02  0.00000000000E+00 0.  1.
         11    1    4    4    0    0  0.21299722960E+02 -0.35533151935E+01 -0.67024629793E+01  0.22610335188E+02  0.51100000000E-03 0. -1.
        -11    1    4    4    0    0  0.76131666581E+01  0.17115900314E+02 -0.13584620202E+02  0.23139927753E+02  0.51100000000E-03 0.  1.
         12    1    4    4    0    0  0.31123894222E+01 -0.73681190777E+01  0.32052203605E+01  0.86168198437E+01  0.00000000000E+00 0. -1.
</event>
<event>
 8    1  0.1253703E-006  0.9118800E+02  0.7816164E-02  0.1184000E+00
        -11   -1    0    0    0    0  0.00000000000E+00  0.00000000000E+00  0.45593999997E+02  0.45594000000E+02  0.51100000000E-03 0. -1.
         11   -1    0    0    0    0 -0.00000000000E+00 -0.00000000000E+00 -0.45593999997E+02  0.45594000000E+02  0.51100000000E-03 0.  1.
         23    2    1    2    0    0  0.35527136788E-14  0.00000000000E+00 -0.88817841970E-15  0.91188000000E+02  0.91188000000E+02 0.  0.
    9900012    2    3    3    0    0 -0.14997756618E+02 -0.32743492006E+02 -0.76623287986E+01  0.54367078570E+02  0.39999987215E+02 0.  0.
        -12    1    3    3    0    0  0.14997756618E+02  0.32743492006E+02  0.76623287986E+01  0.36820921430E+02  0.00000000000E+00 0.  1.
         11    1    4    4    0    0  0.19104594842E+01 -0.18349203663E+01 -0.10994655779E+00  0.26512028776E+01  0.51100000000E-03 0. -1.
        -11    1    4    4    0    0  0.30202157463E+01 -0.27975374182E+01  0.11588690785E+02  0.12298197963E+02  0.51100000000E-03 0.  1.
        -12    1    4    4    0    0 -0.19928431849E+02 -0.28111034222E+02 -0.19141073026E+02  0.39417677729E+02  0.00000000000E+00 0.  1.
</event>
<event>
 8    1  0.1253703E-006  0.9118800E+02  0.7816164E-02  0.1184000E+00
        -11   -1    0    0    0    0  0.00000000000E+00  0.00000000000E+00  0.45593999997E+02  0.45594000000E+02  0.51100000000E-03 0.  1.
         11   -1    0    0    0    0 -0.00000000000E+00 -0.00000000000E+00 -0.45593999997E+02  0.45594000000E+02  0.51100000000E-03 0. -1.
         23    2    1    2    0    0 -0.88817841970E-15  0.00000000000E+00  0.00000000000E+00  0.91188000000E+02  0.91188000000E+02 0.  0.
    9900012    2    3    3    0    0 -0.61980018443E+01  0.20826976366E+02 -0.29725431587E+02  0.54367089440E+02  0.40000011997E+02 0.  0.
        -12    1    3    3    0    0  0.61980018443E+01 -0.20826976366E+02  0.29725431587E+02  0.36820910560E+02  0.00000000000E+00 0.  1.
         11    1    4    4    0    0 -0.85986312945E+01  0.16074662642E+02 -0.13467927018E+02  0.22665310446E+02  0.51100000000E-03 0. -1.
        -11    1    4    4    0    0  0.40853457737E+01  0.14865310322E+02 -0.44113847688E+01  0.16035205546E+02  0.51100000000E-03 0.  1.
        -12    1    4    4    0    0 -0.16847163235E+01 -0.10112996598E+02 -0.11846119800E+02  0.15666573448E+02  0.00000000000E+00 0.  1.
</event>
<event>
 8    1  0.1253703E-006  0.9118800E+02  0.7816164E-02  0.1184000E+00
        -11   -1    0    0    0    0  0.00000000000E+00  0.00000000000E+00  0.45593999997E+02  0.45594000000E+02  0.51100000000E-03 0.  1.
         11   -1    0    0    0    0 -0.00000000000E+00 -0.00000000000E+00 -0.45593999997E+02  0.45594000000E+02  0.51100000000E-03 0. -1.
         23    2    1    2    0    0  0.71054273576E-14 -0.17763568394E-14  0.00000000000E+00  0.91188000000E+02  0.91188000000E+02 0.  0.
    9900012    2    3    3    0    0  0.33208770769E+02  0.12625216059E+02  0.96727065410E+01  0.54367084906E+02  0.40000001659E+02 0.  0.
        -12    1    3    3    0    0 -0.33208770769E+02 -0.12625216059E+02 -0.96727065410E+01  0.36820915094E+02  0.00000000000E+00 0.  1.
         11    1    4    4    0    0  0.27146576815E+02  0.94860650593E+01  0.46403713292E+01  0.29128252770E+02  0.51100000000E-03 0. -1.
        -11    1    4    4    0    0 -0.58272569920E+01 -0.40105560301E+01 -0.45199604594E+01  0.83947320706E+01  0.51100000000E-03 0.  1.
        -12    1    4    4    0    0  0.11889450946E+02  0.71497070298E+01  0.95522956712E+01  0.16844100065E+02  0.00000000000E+00 0.  1.
</event>
<event>
 8    1  0.1253703E-006  0.9118800E+02  0.7816164E-02  0.1184000E+00
        -11   -1    0    0    0    0  0.00000000000E+00  0.00000000000E+00  0.45593999997E+02  0.45594000000E+02  0.51100000000E-03 0.  1.
         11   -1    0    0    0    0 -0.00000000000E+00 -0.00000000000E+00 -0.45593999997E+02  0.45594000000E+02  0.51100000000E-03 0. -1.
         23    2    1    2    0    0  0.22204460493E-14  0.00000000000E+00 -0.17763568394E-14  0.91188000000E+02  0.91188000000E+02 0.  0.
    9900012    2    3    3    0    0 -0.20928085266E+01  0.36140106717E+02 -0.67299959914E+01  0.54367081935E+02  0.39999994888E+02 0.  0.
         12    1    3    3    0    0  0.20928085266E+01 -0.36140106717E+02  0.67299959914E+01  0.36820918065E+02  0.00000000000E+00 0. -1.
         11    1    4    4    0    0  0.23271273963E+01  0.15659897110E+02 -0.10026624580E+02  0.18739826577E+02  0.51100000000E-03 0. -1.
        -11    1    4    4    0    0 -0.15285117990E+02  0.10202792026E+02  0.78642597147E+01  0.19989456677E+02  0.51100000000E-03 0.  1.
        -12    1    4    4    0    0  0.10865182067E+02  0.10277417582E+02 -0.45676311259E+01  0.15637798682E+02  0.00000000000E+00 0.  1.
</event>
<event>
 8    1  0.1253703E-006  0.9118800E+02  0.7816164E-02  0.1184000E+00
        -11   -1    0    0    0    0  0.00000000000E+00  0.00000000000E+00  0.45593999997E+02  0.45594000000E+02  0.51100000000E-03 0.  1.
         11   -1    0    0    0    0 -0.00000000000E+00 -0.00000000000E+00 -0.45593999997E+02  0.45594000000E+02  0.51100000000E-03 0. -1.
         23    2    1    2    0    0  0.17763568394E-14  0.35527136788E-14  0.00000000000E+00  0.91188000000E+02  0.91188000000E+02 0.  0.
    9900012    2    3    3    0    0  0.11389955656E+02  0.30892271659E+02 -0.16483622197E+02  0.54367172486E+02  0.40000201315E+02 0.  0.
         12    1    3    3    0    0 -0.11389955656E+02 -0.30892271659E+02  0.16483622197E+02  0.36820827514E+02  0.00000000000E+00 0. -1.
         11    1    4    4    0    0 -0.42282567442E+01  0.97156326997E+01 -0.11578469150E+02  0.15694987160E+02  0.51100000000E-03 0.  1.
        -11    1    4    4    0    0  0.12133079887E+02  0.22795699738E+02 -0.13585586078E+02  0.29179165572E+02  0.51100000000E-03 0. -1.
         12    1    4    4    0    0  0.34851325132E+01 -0.16190607788E+01  0.86804330310E+01  0.94930197537E+01  0.00000000000E+00 0. -1.
</event>
<event>
 8    1  0.1253703E-006  0.9118800E+02  0.7816164E-02  0.1184000E+00
        -11   -1    0    0    0    0  0.00000000000E+00  0.00000000000E+00  0.45593999997E+02  0.45594000000E+02  0.51100000000E-03 0.  1.
         11   -1    0    0    0    0 -0.00000000000E+00 -0.00000000000E+00 -0.45593999997E+02  0.45594000000E+02  0.51100000000E-03 0. -1.
         23    2    1    2    0    0  0.00000000000E+00  0.71054273576E-14 -0.88817841970E-15  0.91188000000E+02  0.91188000000E+02 0.  0.
    9900012    2    3    3    0    0 -0.86398085321E+01 -0.35125988360E+02 -0.68780988884E+01  0.54366951753E+02  0.39999698110E+02 0.  0.
         12    1    3    3    0    0  0.86398085321E+01  0.35125988360E+02  0.68780988884E+01  0.36821048247E+02  0.00000000000E+00 0. -1.
         11    1    4    4    0    0  0.60046219094E+00 -0.16784277021E+02  0.31717410363E+01  0.17091882618E+02  0.51100000000E-03 0. -1.
        -11    1    4    4    0    0 -0.72876768977E+01  0.56881781765E+00  0.81561564424E+01  0.10952473531E+02  0.51100000000E-03 0.  1.
         12    1    4    4    0    0 -0.19525938253E+01 -0.18910529156E+02 -0.18205996367E+02  0.26322595604E+02  0.00000000000E+00 0. -1.
</event>
<event>
 8    1  0.1253703E-006  0.9118800E+02  0.7816164E-02  0.1184000E+00
        -11   -1    0    0    0    0  0.00000000000E+00  0.00000000000E+00  0.45593999997E+02  0.45594000000E+02  0.51100000000E-03 0.  1.
         11   -1    0    0    0    0 -0.00000000000E+00 -0.00000000000E+00 -0.45593999997E+02  0.45594000000E+02  0.51100000000E-03 0. -1.
         23    2    1    2    0    0  0.00000000000E+00 -0.71054273576E-14  0.00000000000E+00  0.91188000000E+02  0.91188000000E+02 0.  0.
    9900012    2    3    3    0    0  0.15432819279E+02  0.33280089826E+02 -0.31690351203E+01  0.54367094616E+02  0.40000023795E+02 0.  0.
        -12    1    3    3    0    0 -0.15432819279E+02 -0.33280089826E+02  0.31690351203E+01  0.36820905384E+02  0.00000000000E+00 0.  1.
         11    1    4    4    0    0  0.10203473594E+02  0.56777430754E+00 -0.46997012983E+01  0.11248130227E+02  0.51100000000E-03 0. -1.
        -11    1    4    4    0    0  0.14878677879E+00 -0.49039502913E+01 -0.12390096042E+01  0.50602382380E+01  0.51100000000E-03 0.  1.
         12    1    4    4    0    0  0.50805589062E+01  0.37616265810E+02  0.27696757821E+01  0.38058726151E+02  0.00000000000E+00 0. -1.
</event>
<event>
 8    1  0.1253703E-006  0.9118800E+02  0.7816164E-02  0.1184000E+00
        -11   -1    0    0    0    0  0.00000000000E+00  0.00000000000E+00  0.45593999997E+02  0.45594000000E+02  0.51100000000E-03 0.  1.
         11   -1    0    0    0    0 -0.00000000000E+00 -0.00000000000E+00 -0.45593999997E+02  0.45594000000E+02  0.51100000000E-03 0. -1.
         23    2    1    2    0    0  0.35527136788E-14 -0.35527136788E-14 -0.88817841970E-15  0.91188000000E+02  0.91188000000E+02 0.  0.
    9900012    2    3    3    0    0 -0.25325400201E+02  0.26215583619E+02 -0.52106025290E+01  0.54367039956E+02  0.39999899188E+02 0.  0.
        -12    1    3    3    0    0  0.25325400201E+02 -0.26215583619E+02  0.52106025290E+01  0.36820960044E+02  0.00000000000E+00 0.  1.
         11    1    4    4    0    0 -0.56742540726E+01  0.95193231958E+01 -0.94891524799E+01  0.14589677462E+02  0.51100000000E-03 0. -1.
        -11    1    4    4    0    0 -0.25327569665E+02  0.17812777480E+02 -0.22604189810E+01  0.31046583080E+02  0.51100000000E-03 0.  1.
        -12    1    4    4    0    0  0.56764235360E+01 -0.11165170574E+01  0.65389689320E+01  0.87307794150E+01  0.00000000000E+00 0.  1.
</event>
<event>
 8    1  0.1253703E-006  0.9118800E+02  0.7816164E-02  0.1184000E+00
        -11   -1    0    0    0    0  0.00000000000E+00  0.00000000000E+00  0.45593999997E+02  0.45594000000E+02  0.51100000000E-03 0.  1.
         11   -1    0    0    0    0 -0.00000000000E+00 -0.00000000000E+00 -0.45593999997E+02  0.45594000000E+02  0.51100000000E-03 0. -1.
         23    2    1    2    0    0  0.00000000000E+00  0.35527136788E-14  0.35527136788E-14  0.91188000000E+02  0.91188000000E+02 0.  0.
    9900012    2    3    3    0    0 -0.99669402364E+01  0.22419748256E+02  0.27455328237E+02  0.54367081243E+02  0.39999993309E+02 0.  0.
        -12    1    3    3    0    0  0.99669402364E+01 -0.22419748256E+02 -0.27455328237E+02  0.36820918757E+02  0.00000000000E+00 0.  1.
         11    1    4    4    0    0 -0.64312765013E+01 -0.41300594978E+01  0.50231273941E+00  0.76597015113E+01  0.51100000000E-03 0. -1.
        -11    1    4    4    0    0  0.76026651599E+01  0.12749620066E+02  0.49114604235E+00  0.14852425864E+02  0.51100000000E-03 0.  1.
        -12    1    4    4    0    0 -0.11138328895E+02  0.13800187688E+02  0.26461869456E+02  0.31854953867E+02  0.00000000000E+00 0.  1.
</event>
<event>
 8    1  0.1253703E-006  0.9118800E+02  0.7816164E-02  0.1184000E+00
        -11   -1    0    0    0    0  0.00000000000E+00  0.00000000000E+00  0.45593999997E+02  0.45594000000E+02  0.51100000000E-03 0. -1.
         11   -1    0    0    0    0 -0.00000000000E+00 -0.00000000000E+00 -0.45593999997E+02  0.45594000000E+02  0.51100000000E-03 0.  1.
         23    2    1    2    0    0  0.00000000000E+00 -0.17763568394E-14  0.00000000000E+00  0.91188000000E+02  0.91188000000E+02 0.  0.
    9900012    2    3    3    0    0  0.33139925742E+02 -0.81380555087E+01  0.13831106710E+02  0.54367052994E+02  0.39999928910E+02 0.  0.
        -12    1    3    3    0    0 -0.33139925742E+02  0.81380555087E+01 -0.13831106710E+02  0.36820947006E+02  0.00000000000E+00 0.  1.
         11    1    4    4    0    0  0.11773981261E+02 -0.13187585658E+02  0.10356013168E+02  0.20488681246E+02  0.51100000000E-03 0. -1.
        -11    1    4    4    0    0  0.54099388318E+01  0.49246401034E+01  0.13271734464E+02  0.15154486275E+02  0.51100000000E-03 0.  1.
        -12    1    4    4    0    0  0.15956005649E+02  0.12489004562E+00 -0.97966409232E+01  0.18723885472E+02  0.00000000000E+00 0.  1.
</event>
<event>
 8    1  0.1253703E-006  0.9118800E+02  0.7816164E-02  0.1184000E+00
        -11   -1    0    0    0    0  0.00000000000E+00  0.00000000000E+00  0.45593999997E+02  0.45594000000E+02  0.51100000000E-03 0. -1.
         11   -1    0    0    0    0 -0.00000000000E+00 -0.00000000000E+00 -0.45593999997E+02  0.45594000000E+02  0.51100000000E-03 0.  1.
         23    2    1    2    0    0 -0.44408920985E-15 -0.35527136788E-14  0.00000000000E+00  0.91188000000E+02  0.91188000000E+02 0.  0.
    9900012    2    3    3    0    0 -0.24985228850E+01  0.31180926777E+02  0.19423886827E+02  0.54367079442E+02  0.39999989203E+02 0.  0.
        -12    1    3    3    0    0  0.24985228850E+01 -0.31180926777E+02 -0.19423886827E+02  0.36820920558E+02  0.00000000000E+00 0.  1.
         11    1    4    4    0    0  0.86651202625E+01  0.56449420862E+01  0.14996440702E+01  0.10449814014E+02  0.51100000000E-03 0. -1.
        -11    1    4    4    0    0 -0.19317071062E+02  0.83536022326E+01  0.85911569373E+01  0.22731913304E+02  0.51100000000E-03 0.  1.
        -12    1    4    4    0    0  0.81534279145E+01  0.17182382458E+02  0.93330858195E+01  0.21185352124E+02  0.00000000000E+00 0.  1.
</event>
<event>
 8    1  0.1253703E-006  0.9118800E+02  0.7816164E-02  0.1184000E+00
        -11   -1    0    0    0    0  0.00000000000E+00  0.00000000000E+00  0.45593999997E+02  0.45594000000E+02  0.51100000000E-03 0. -1.
         11   -1    0    0    0    0 -0.00000000000E+00 -0.00000000000E+00 -0.45593999997E+02  0.45594000000E+02  0.51100000000E-03 0.  1.
         23    2    1    2    0    0  0.22204460493E-15 -0.22204460493E-14  0.00000000000E+00  0.91188000000E+02  0.91188000000E+02 0.  0.
    9900012    2    3    3    0    0  0.16542877185E+01 -0.28293230961E+01  0.36674768871E+02  0.54367076482E+02  0.39999982455E+02 0.  0.
        -12    1    3    3    0    0 -0.16542877185E+01  0.28293230961E+01 -0.36674768871E+02  0.36820923518E+02  0.00000000000E+00 0.  1.
         11    1    4    4    0    0  0.46308275089E+01  0.14311111618E+02  0.21328908119E+02  0.26099325680E+02  0.51100000000E-03 0. -1.
        -11    1    4    4    0    0  0.40586350560E+01 -0.27608538938E+01 -0.13967787789E+01  0.51035109443E+01  0.51100000000E-03 0.  1.
         12    1    4    4    0    0 -0.70351748464E+01 -0.14379580821E+02  0.16742639531E+02  0.23164239857E+02  0.00000000000E+00 0. -1.
</event>
<event>
 8    1  0.1253703E-006  0.9118800E+02  0.7816164E-02  0.1184000E+00
        -11   -1    0    0    0    0  0.00000000000E+00  0.00000000000E+00  0.45593999997E+02  0.45594000000E+02  0.51100000000E-03 0.  1.
         11   -1    0    0    0    0 -0.00000000000E+00 -0.00000000000E+00 -0.45593999997E+02  0.45594000000E+02  0.51100000000E-03 0. -1.
         23    2    1    2    0    0  0.00000000000E+00  0.00000000000E+00  0.71054273576E-14  0.91188000000E+02  0.91188000000E+02 0.  0.
    9900012    2    3    3    0    0 -0.10359026295E+02 -0.92340206460E+01 -0.34105756033E+02  0.54367093471E+02  0.40000021185E+02 0.  0.
        -12    1    3    3    0    0  0.10359026295E+02  0.92340206460E+01  0.34105756033E+02  0.36820906529E+02  0.00000000000E+00 0.  1.
         11    1    4    4    0    0 -0.88099754744E+01 -0.59018853780E+00  0.13283546246E+01  0.89290826315E+01  0.51100000000E-03 0. -1.
        -11    1    4    4    0    0  0.57427888452E+01 -0.15116162245E+02 -0.30475002951E+02  0.34499330281E+02  0.51100000000E-03 0.  1.
         12    1    4    4    0    0 -0.72918396657E+01  0.64723301367E+01 -0.49591077068E+01  0.10938680558E+02  0.00000000000E+00 0. -1.
</event>
<event>
 8    1  0.1253703E-006  0.9118800E+02  0.7816164E-02  0.1184000E+00
        -11   -1    0    0    0    0  0.00000000000E+00  0.00000000000E+00  0.45593999997E+02  0.45594000000E+02  0.51100000000E-03 0.  1.
         11   -1    0    0    0    0 -0.00000000000E+00 -0.00000000000E+00 -0.45593999997E+02  0.45594000000E+02  0.51100000000E-03 0. -1.
         23    2    1    2    0    0 -0.44408920985E-15  0.17763568394E-14  0.00000000000E+00  0.91188000000E+02  0.91188000000E+02 0.  0.
    9900012    2    3    3    0    0  0.37531206800E+01  0.11467904207E+02 -0.34787670906E+02  0.54367071321E+02  0.39999970690E+02 0.  0.
        -12    1    3    3    0    0 -0.37531206800E+01 -0.11467904207E+02  0.34787670906E+02  0.36820928679E+02  0.00000000000E+00 0.  1.
         11    1    4    4    0    0 -0.17615030498E+01  0.16266302845E+02 -0.39152861383E+02  0.42433972899E+02  0.51100000000E-03 0. -1.
        -11    1    4    4    0    0  0.17446563600E+01 -0.66697374976E+01  0.25751492604E+01  0.73593897896E+01  0.51100000000E-03 0.  1.
         12    1    4    4    0    0  0.37699673698E+01  0.18713388596E+01  0.17900412165E+01  0.45737086324E+01  0.00000000000E+00 0. -1.
</event>
<event>
 8    1  0.1253703E-006  0.9118800E+02  0.7816164E-02  0.1184000E+00
        -11   -1    0    0    0    0  0.00000000000E+00  0.00000000000E+00  0.45593999997E+02  0.45594000000E+02  0.51100000000E-03 0.  1.
         11   -1    0    0    0    0 -0.00000000000E+00 -0.00000000000E+00 -0.45593999997E+02  0.45594000000E+02  0.51100000000E-03 0. -1.
         23    2    1    2    0    0  0.00000000000E+00  0.35527136788E-14  0.00000000000E+00  0.91188000000E+02  0.91188000000E+02 0.  0.
    9900012    2    3    3    0    0 -0.28244714769E+02 -0.10614703373E+02 -0.21103167072E+02  0.54367088814E+02  0.40000010570E+02 0.  0.
        -12    1    3    3    0    0  0.28244714769E+02  0.10614703373E+02  0.21103167072E+02  0.36820911186E+02  0.00000000000E+00 0.  1.
         11    1    4    4    0    0 -0.55891866755E+01  0.12874747180E+02 -0.38931272920E+01  0.14565526527E+02  0.51100000000E-03 0.  1.
        -11    1    4    4    0    0 -0.12087060060E+02 -0.16238167299E+02 -0.17821579912E+02  0.26970053929E+02  0.51100000000E-03 0. -1.
         12    1    4    4    0    0 -0.10568468033E+02 -0.72512832537E+01  0.61154013151E+00  0.12831508357E+02  0.00000000000E+00 0. -1.
</event>
<event>
 8    1  0.1253703E-006  0.9118800E+02  0.7816164E-02  0.1184000E+00
        -11   -1    0    0    0    0  0.00000000000E+00  0.00000000000E+00  0.45593999997E+02  0.45594000000E+02  0.51100000000E-03 0.  1.
         11   -1    0    0    0    0 -0.00000000000E+00 -0.00000000000E+00 -0.45593999997E+02  0.45594000000E+02  0.51100000000E-03 0. -1.
         23    2    1    2    0    0  0.35527136788E-14  0.00000000000E+00  0.00000000000E+00  0.91188000000E+02  0.91188000000E+02 0.  0.
    9900012    2    3    3    0    0 -0.30604625343E+02 -0.11741612361E+02  0.16770944938E+02  0.54367175086E+02  0.40000207243E+02 0.  0.
         12    1    3    3    0    0  0.30604625343E+02  0.11741612361E+02 -0.16770944938E+02  0.36820824914E+02  0.00000000000E+00 0. -1.
         11    1    4    4    0    0 -0.12358211654E+02 -0.98059196404E+01  0.33581261899E+01  0.16129428602E+02  0.51100000000E-03 0. -1.
        -11    1    4    4    0    0 -0.17226374561E+02 -0.10187468330E+01  0.22887682239E+02  0.28664120851E+02  0.51100000000E-03 0.  1.
        -12    1    4    4    0    0 -0.10200391284E+01 -0.91694588774E+00 -0.94748634907E+01  0.95736256326E+01  0.00000000000E+00 0.  1.
</event>
<event>
 8    1  0.1253703E-006  0.9118800E+02  0.7816164E-02  0.1184000E+00
        -11   -1    0    0    0    0  0.00000000000E+00  0.00000000000E+00  0.45593999997E+02  0.45594000000E+02  0.51100000000E-03 0. -1.
         11   -1    0    0    0    0 -0.00000000000E+00 -0.00000000000E+00 -0.45593999997E+02  0.45594000000E+02  0.51100000000E-03 0.  1.
         23    2    1    2    0    0  0.88817841970E-15  0.00000000000E+00  0.00000000000E+00  0.91188000000E+02  0.91188000000E+02 0.  0.
    9900012    2    3    3    0    0 -0.72897390333E+01  0.35603623057E+02 -0.59168187938E+01  0.54367258364E+02  0.40000397091E+02 0.  0.
         12    1    3    3    0    0  0.72897390333E+01 -0.35603623057E+02  0.59168187938E+01  0.36820741636E+02  0.00000000000E+00 0. -1.
         11    1    4    4    0    0 -0.14068515828E+01  0.25533905454E+02  0.56092987015E+01  0.26180599521E+02  0.51100000000E-03 0. -1.
        -11    1    4    4    0    0 -0.93040192945E+01  0.12849336683E+02 -0.18975508879E-01  0.15864128989E+02  0.51100000000E-03 0.  1.
        -12    1    4    4    0    0  0.34211318440E+01 -0.27796190797E+01 -0.11507141986E+02  0.12322529855E+02  0.00000000000E+00 0.  1.
</event>
<event>
 8    1  0.1253703E-006  0.9118800E+02  0.7816164E-02  0.1184000E+00
        -11   -1    0    0    0    0  0.00000000000E+00  0.00000000000E+00  0.45593999997E+02  0.45594000000E+02  0.51100000000E-03 0.  1.
         11   -1    0    0    0    0 -0.00000000000E+00 -0.00000000000E+00 -0.45593999997E+02  0.45594000000E+02  0.51100000000E-03 0. -1.
         23    2    1    2    0    0  0.00000000000E+00  0.35527136788E-14  0.00000000000E+00  0.91188000000E+02  0.91188000000E+02 0.  0.
    9900012    2    3    3    0    0 -0.78922490862E+01  0.21712115398E+02  0.28671887442E+02  0.54367072796E+02  0.39999974053E+02 0.  0.
         12    1    3    3    0    0  0.78922490862E+01 -0.21712115398E+02 -0.28671887442E+02  0.36820927204E+02  0.00000000000E+00 0. -1.
         11    1    4    4    0    0  0.33530540647E+01  0.61195937578E+01 -0.41028873499E+01  0.80948183543E+01  0.51100000000E-03 0. -1.
        -11    1    4    4    0    0  0.25332315301E+01 -0.25121547847E+01 -0.24577725228E+01  0.43323007378E+01  0.51100000000E-03 0.  1.
        -12    1    4    4    0    0 -0.13778534681E+02  0.18104676425E+02  0.35232547315E+02  0.41939953704E+02  0.00000000000E+00 0.  1.
</event>
<event>
 8    1  0.1253703E-006  0.9118800E+02  0.7816164E-02  0.1184000E+00
        -11   -1    0    0    0    0  0.00000000000E+00  0.00000000000E+00  0.45593999997E+02  0.45594000000E+02  0.51100000000E-03 0.  1.
         11   -1    0    0    0    0 -0.00000000000E+00 -0.00000000000E+00 -0.45593999997E+02  0.45594000000E+02  0.51100000000E-03 0. -1.
         23    2    1    2    0    0  0.88817841970E-15 -0.35527136788E-14  0.35527136788E-14  0.91188000000E+02  0.91188000000E+02 0.  0.
    9900012    2    3    3    0    0 -0.53496367424E+01  0.27350558130E+02 -0.24064723681E+02  0.54367047145E+02  0.39999915577E+02 0.  0.
        -12    1    3    3    0    0  0.53496367424E+01 -0.27350558130E+02  0.24064723681E+02  0.36820952855E+02  0.00000000000E+00 0.  1.
         11    1    4    4    0    0  0.58804134562E+01  0.44589849923E+01  0.61802871931E+01  0.96258900694E+01  0.51100000000E-03 0. -1.
        -11    1    4    4    0    0 -0.13631228491E+02  0.20444583225E+02 -0.32420966621E+02  0.40680590585E+02  0.51100000000E-03 0.  1.
        -12    1    4    4    0    0  0.24011782924E+01  0.24469899120E+01  0.21759557462E+01  0.40605664914E+01  0.00000000000E+00 0.  1.
</event>
<event>
 8    1  0.1253703E-006  0.9118800E+02  0.7816164E-02  0.1184000E+00
        -11   -1    0    0    0    0  0.00000000000E+00  0.00000000000E+00  0.45593999997E+02  0.45594000000E+02  0.51100000000E-03 0. -1.
         11   -1    0    0    0    0 -0.00000000000E+00 -0.00000000000E+00 -0.45593999997E+02  0.45594000000E+02  0.51100000000E-03 0.  1.
         23    2    1    2    0    0  0.17763568394E-14  0.35527136788E-14  0.00000000000E+00  0.91188000000E+02  0.91188000000E+02 0.  0.
    9900012    2    3    3    0    0 -0.12488050290E+02  0.22662139624E+02  0.26196492759E+02  0.54367079245E+02  0.39999988756E+02 0.  0.
        -12    1    3    3    0    0  0.12488050290E+02 -0.22662139624E+02 -0.26196492759E+02  0.36820920755E+02  0.00000000000E+00 0.  1.
         11    1    4    4    0    0 -0.47886036517E+01 -0.19032759374E+01  0.42698602719E+01  0.66921514649E+01  0.51100000000E-03 0. -1.
        -11    1    4    4    0    0 -0.21057270273E+02  0.13897582733E+02  0.13541985759E+02  0.28634538860E+02  0.51100000000E-03 0.  1.
        -12    1    4    4    0    0  0.13357823634E+02  0.10667832828E+02  0.83846467278E+01  0.19040388921E+02  0.00000000000E+00 0.  1.
</event>
<event>
 8    1  0.1253703E-006  0.9118800E+02  0.7816164E-02  0.1184000E+00
        -11   -1    0    0    0    0  0.00000000000E+00  0.00000000000E+00  0.45593999997E+02  0.45594000000E+02  0.51100000000E-03 0.  1.
         11   -1    0    0    0    0 -0.00000000000E+00 -0.00000000000E+00 -0.45593999997E+02  0.45594000000E+02  0.51100000000E-03 0. -1.
         23    2    1    2    0    0  0.00000000000E+00  0.00000000000E+00  0.17763568394E-14  0.91188000000E+02  0.91188000000E+02 0.  0.
    9900012    2    3    3    0    0 -0.33197271810E+02 -0.99186914091E+01  0.12463570591E+02  0.54367083570E+02  0.39999998613E+02 0.  0.
        -12    1    3    3    0    0  0.33197271810E+02  0.99186914091E+01 -0.12463570591E+02  0.36820916430E+02  0.00000000000E+00 0.  1.
         11    1    4    4    0    0 -0.11024057649E+02  0.44748327815E+01  0.28944340882E+01  0.12244661058E+02  0.51100000000E-03 0. -1.
        -11    1    4    4    0    0 -0.12551716758E+02 -0.20687000190E+02  0.15942642673E+02  0.28976980969E+02  0.51100000000E-03 0.  1.
         12    1    4    4    0    0 -0.96214974037E+01  0.62934759995E+01 -0.63735061704E+01  0.13145441543E+02  0.00000000000E+00 0. -1.
</event>
<event>
 8    1  0.1253703E-006  0.9118800E+02  0.7816164E-02  0.1184000E+00
        -11   -1    0    0    0    0  0.00000000000E+00  0.00000000000E+00  0.45593999997E+02  0.45594000000E+02  0.51100000000E-03 0.  1.
         11   -1    0    0    0    0 -0.00000000000E+00 -0.00000000000E+00 -0.45593999997E+02  0.45594000000E+02  0.51100000000E-03 0. -1.
         23    2    1    2    0    0  0.88817841970E-15  0.00000000000E+00  0.00000000000E+00  0.91188000000E+02  0.91188000000E+02 0.  0.
    9900012    2    3    3    0    0  0.58316545458E+01 -0.35344597409E+02  0.85165324553E+01  0.54367080867E+02  0.39999992453E+02 0.  0.
         12    1    3    3    0    0 -0.58316545458E+01  0.35344597409E+02 -0.85165324553E+01  0.36820919133E+02  0.00000000000E+00 0. -1.
         11    1    4    4    0    0 -0.78887727556E+01 -0.23125306148E+02  0.16484823695E+02  0.29474767727E+02  0.51100000000E-03 0.  1.
        -11    1    4    4    0    0 -0.15527744988E+01 -0.55435174143E+01 -0.56450168806E+01  0.80627482789E+01  0.51100000000E-03 0. -1.
        -12    1    4    4    0    0  0.15273201800E+02 -0.66757738463E+01 -0.23232743595E+01  0.16829564861E+02  0.00000000000E+00 0.  1.
</event>
<event>
 8    1  0.1253703E-006  0.9118800E+02  0.7816164E-02  0.1184000E+00
        -11   -1    0    0    0    0  0.00000000000E+00  0.00000000000E+00  0.45593999997E+02  0.45594000000E+02  0.51100000000E-03 0.  1.
         11   -1    0    0    0    0 -0.00000000000E+00 -0.00000000000E+00 -0.45593999997E+02  0.45594000000E+02  0.51100000000E-03 0. -1.
         23    2    1    2    0    0  0.35527136788E-14  0.00000000000E+00  0.00000000000E+00  0.91188000000E+02  0.91188000000E+02 0.  0.
    9900012    2    3    3    0    0 -0.71850076499E+01  0.34553689456E+02 -0.10497402767E+02  0.54367119309E+02  0.40000080089E+02 0.  0.
        -12    1    3    3    0    0  0.71850076499E+01 -0.34553689456E+02  0.10497402767E+02  0.36820880691E+02  0.00000000000E+00 0.  1.
         11    1    4    4    0    0 -0.17824746858E+02  0.69771567177E+01 -0.33874865172E+01  0.19439068434E+02  0.51100000000E-03 0. -1.
        -11    1    4    4    0    0  0.15264068273E+02  0.23435342390E+02 -0.53411412459E+01  0.28473405895E+02  0.51100000000E-03 0.  1.
        -12    1    4    4    0    0 -0.46243290651E+01  0.41411903482E+01 -0.17687750040E+01  0.64546449800E+01  0.00000000000E+00 0.  1.
</event>
<event>
 8    1  0.1253703E-006  0.9118800E+02  0.7816164E-02  0.1184000E+00
        -11   -1    0    0    0    0  0.00000000000E+00  0.00000000000E+00  0.45593999997E+02  0.45594000000E+02  0.51100000000E-03 0. -1.
         11   -1    0    0    0    0 -0.00000000000E+00 -0.00000000000E+00 -0.45593999997E+02  0.45594000000E+02  0.51100000000E-03 0.  1.
         23    2    1    2    0    0 -0.35527136788E-14  0.00000000000E+00 -0.26645352591E-14  0.91188000000E+02  0.91188000000E+02 0.  0.
    9900012    2    3    3    0    0  0.25321155823E+02 -0.26258483607E+02 -0.50111742791E+01  0.54367071695E+02  0.39999971544E+02 0.  0.
        -12    1    3    3    0    0 -0.25321155823E+02  0.26258483607E+02  0.50111742791E+01  0.36820928305E+02  0.00000000000E+00 0.  1.
         11    1    4    4    0    0 -0.46463990761E+01 -0.19022530166E+01 -0.98808944482E+01  0.11083305747E+02  0.51100000000E-03 0.  1.
        -11    1    4    4    0    0  0.26418041855E+02 -0.14478751147E+02  0.98110817575E+01  0.31682873856E+02  0.51100000000E-03 0. -1.
        -12    1    4    4    0    0  0.35495130439E+01 -0.98774794436E+01 -0.49413615884E+01  0.11600892093E+02  0.00000000000E+00 0.  1.
</event>
<event>
 8    1  0.1253703E-006  0.9118800E+02  0.7816164E-02  0.1184000E+00
        -11   -1    0    0    0    0  0.00000000000E+00  0.00000000000E+00  0.45593999997E+02  0.45594000000E+02  0.51100000000E-03 0. -1.
         11   -1    0    0    0    0 -0.00000000000E+00 -0.00000000000E+00 -0.45593999997E+02  0.45594000000E+02  0.51100000000E-03 0.  1.
         23    2    1    2    0    0 -0.35527136788E-14  0.00000000000E+00  0.35527136788E-14  0.91188000000E+02  0.91188000000E+02 0.  0.
    9900012    2    3    3    0    0  0.10116305450E+02  0.22186016802E+02  0.27590250912E+02  0.54367069500E+02  0.39999966539E+02 0.  0.
        -12    1    3    3    0    0 -0.10116305450E+02 -0.22186016802E+02 -0.27590250912E+02  0.36820930500E+02  0.00000000000E+00 0.  1.
         11    1    4    4    0    0 -0.13802377179E+01  0.18764367598E+01 -0.68140441493E+01  0.72011991364E+01  0.51100000000E-03 0. -1.
        -11    1    4    4    0    0 -0.53843072647E+01  0.13162028339E+01  0.17978530168E+01  0.58271288257E+01  0.51100000000E-03 0.  1.
         12    1    4    4    0    0  0.16880850433E+02  0.18993377209E+02  0.32606442044E+02  0.41338741538E+02  0.00000000000E+00 0. -1.
</event>
<event>
 8    1  0.1253703E-006  0.9118800E+02  0.7816164E-02  0.1184000E+00
        -11   -1    0    0    0    0  0.00000000000E+00  0.00000000000E+00  0.45593999997E+02  0.45594000000E+02  0.51100000000E-03 0. -1.
         11   -1    0    0    0    0 -0.00000000000E+00 -0.00000000000E+00 -0.45593999997E+02  0.45594000000E+02  0.51100000000E-03 0.  1.
         23    2    1    2    0    0  0.00000000000E+00  0.00000000000E+00  0.00000000000E+00  0.91188000000E+02  0.91188000000E+02 0.  0.
    9900012    2    3    3    0    0 -0.15000151908E+02 -0.33409245415E+02  0.38208473412E+01  0.54367066948E+02  0.39999960721E+02 0.  0.
        -12    1    3    3    0    0  0.15000151908E+02  0.33409245415E+02 -0.38208473412E+01  0.36820933052E+02  0.00000000000E+00 0.  1.
         11    1    4    4    0    0 -0.66928573591E+01 -0.29235835575E+02 -0.95665355557E+01  0.31480899355E+02  0.51100000000E-03 0. -1.
        -11    1    4    4    0    0  0.10163170153E+00  0.29793488192E+00 -0.34915599940E+01  0.35057218443E+01  0.51100000000E-03 0.  1.
         12    1    4    4    0    0 -0.84089262503E+01 -0.44713447217E+01  0.16878942891E+02  0.19380445749E+02  0.00000000000E+00 0. -1.
</event>
<event>
 8    1  0.1253703E-006  0.9118800E+02  0.7816164E-02  0.1184000E+00
        -11   -1    0    0    0    0  0.00000000000E+00  0.00000000000E+00  0.45593999997E+02  0.45594000000E+02  0.51100000000E-03 0.  1.
         11   -1    0    0    0    0 -0.00000000000E+00 -0.00000000000E+00 -0.45593999997E+02  0.45594000000E+02  0.51100000000E-03 0. -1.
         23    2    1    2    0    0 -0.88817841970E-15  0.00000000000E+00  0.00000000000E+00  0.91188000000E+02  0.91188000000E+02 0.  0.
    9900012    2    3    3    0    0 -0.47468377558E+01 -0.34880623202E+02  0.10797676748E+02  0.54367079767E+02  0.39999989945E+02 0.  0.
         12    1    3    3    0    0  0.47468377558E+01  0.34880623202E+02 -0.10797676748E+02  0.36820920233E+02  0.00000000000E+00 0. -1.
         11    1    4    4    0    0  0.11651848918E+00 -0.48914787495E+01 -0.12863558694E+02  0.13762677190E+02  0.51100000000E-03 0. -1.
        -11    1    4    4    0    0 -0.15784881351E+01 -0.27377972006E+02  0.15686183788E+02  0.31592741857E+02  0.51100000000E-03 0.  1.
         12    1    4    4    0    0 -0.32848681100E+01 -0.26111724460E+01  0.79750516537E+01  0.90116607194E+01  0.00000000000E+00 0. -1.
</event>
<event>
 8    1  0.1253703E-006  0.9118800E+02  0.7816164E-02  0.1184000E+00
        -11   -1    0    0    0    0  0.00000000000E+00  0.00000000000E+00  0.45593999997E+02  0.45594000000E+02  0.51100000000E-03 0.  1.
         11   -1    0    0    0    0 -0.00000000000E+00 -0.00000000000E+00 -0.45593999997E+02  0.45594000000E+02  0.51100000000E-03 0. -1.
         23    2    1    2    0    0  0.71054273576E-14 -0.17763568394E-14  0.22204460493E-15  0.91188000000E+02  0.91188000000E+02 0.  0.
    9900012    2    3    3    0    0 -0.34275468433E+02  0.13408814871E+02  0.10816890128E+01  0.54367162100E+02  0.40000177639E+02 0.  0.
         12    1    3    3    0    0  0.34275468433E+02 -0.13408814871E+02 -0.10816890128E+01  0.36820837900E+02  0.00000000000E+00 0. -1.
         11    1    4    4    0    0  0.12266760932E+01  0.15517164455E+01 -0.71007616343E+01  0.73711175688E+01  0.51100000000E-03 0. -1.
        -11    1    4    4    0    0 -0.37801010562E+02  0.80703786418E+01  0.12683516915E+02  0.40680695822E+02  0.51100000000E-03 0.  1.
        -12    1    4    4    0    0  0.22988660363E+01  0.37867197838E+01 -0.45010662676E+01  0.63153487093E+01  0.00000000000E+00 0.  1.
</event>
<event>
 8    1  0.1253703E-006  0.9118800E+02  0.7816164E-02  0.1184000E+00
        -11   -1    0    0    0    0  0.00000000000E+00  0.00000000000E+00  0.45593999997E+02  0.45594000000E+02  0.51100000000E-03 0. -1.
         11   -1    0    0    0    0 -0.00000000000E+00 -0.00000000000E+00 -0.45593999997E+02  0.45594000000E+02  0.51100000000E-03 0.  1.
         23    2    1    2    0    0  0.00000000000E+00  0.00000000000E+00  0.00000000000E+00  0.91188000000E+02  0.91188000000E+02 0.  0.
    9900012    2    3    3    0    0 -0.14596019229E+02  0.22723765397E+02 -0.25027313639E+02  0.54367085846E+02  0.40000003804E+02 0.  0.
         12    1    3    3    0    0  0.14596019229E+02 -0.22723765397E+02  0.25027313639E+02  0.36820914154E+02  0.00000000000E+00 0. -1.
         11    1    4    4    0    0 -0.13177156256E+01  0.24883462220E+02 -0.12488351222E+02  0.27872602732E+02  0.51100000000E-03 0. -1.
        -11    1    4    4    0    0  0.16077691269E+01  0.58127135945E+01 -0.56261641525E+01  0.82478048127E+01  0.51100000000E-03 0.  1.
        -12    1    4    4    0    0 -0.14886072730E+02 -0.79724104180E+01 -0.69127982643E+01  0.18246678302E+02  0.00000000000E+00 0.  1.
</event>
<event>
 8    1  0.1253703E-006  0.9118800E+02  0.7816164E-02  0.1184000E+00
        -11   -1    0    0    0    0  0.00000000000E+00  0.00000000000E+00  0.45593999997E+02  0.45594000000E+02  0.51100000000E-03 0. -1.
         11   -1    0    0    0    0 -0.00000000000E+00 -0.00000000000E+00 -0.45593999997E+02  0.45594000000E+02  0.51100000000E-03 0.  1.
         23    2    1    2    0    0  0.00000000000E+00  0.00000000000E+00  0.00000000000E+00  0.91188000000E+02  0.91188000000E+02 0.  0.
    9900012    2    3    3    0    0  0.35557401717E+02 -0.89533642043E+01 -0.33597536313E+01  0.54367088931E+02  0.40000010836E+02 0.  0.
         12    1    3    3    0    0 -0.35557401717E+02  0.89533642043E+01  0.33597536313E+01  0.36820911069E+02  0.00000000000E+00 0. -1.
         11    1    4    4    0    0  0.11111304651E+02 -0.45152682922E-01  0.10858386571E+02  0.15536012648E+02  0.51100000000E-03 0. -1.
        -11    1    4    4    0    0  0.19212398443E+02  0.58745231318E+01 -0.10689035968E+02  0.22757015756E+02  0.51100000000E-03 0.  1.
         12    1    4    4    0    0  0.52336986234E+01 -0.14782734653E+02 -0.35291042350E+01  0.16074060527E+02  0.00000000000E+00 0. -1.
</event>
<event>
 8    1  0.1253703E-006  0.9118800E+02  0.7816164E-02  0.1184000E+00
        -11   -1    0    0    0    0  0.00000000000E+00  0.00000000000E+00  0.45593999997E+02  0.45594000000E+02  0.51100000000E-03 0.  1.
         11   -1    0    0    0    0 -0.00000000000E+00 -0.00000000000E+00 -0.45593999997E+02  0.45594000000E+02  0.51100000000E-03 0. -1.
         23    2    1    2    0    0 -0.35527136788E-14  0.35527136788E-14 -0.88817841970E-15  0.91188000000E+02  0.91188000000E+02 0.  0.
    9900012    2    3    3    0    0 -0.31551065979E+02 -0.18044460295E+02 -0.58912325992E+01  0.54367096517E+02  0.40000028130E+02 0.  0.
        -12    1    3    3    0    0  0.31551065979E+02  0.18044460295E+02  0.58912325992E+01  0.36820903483E+02  0.00000000000E+00 0.  1.
         11    1    4    4    0    0 -0.27823057067E+02 -0.21082954037E+01 -0.81943732315E+01  0.29081182351E+02  0.51100000000E-03 0. -1.
        -11    1    4    4    0    0 -0.98130003286E+01 -0.95683420639E+01  0.69066922837E+01  0.15347655973E+02  0.51100000000E-03 0.  1.
        -12    1    4    4    0    0  0.60849914160E+01 -0.63678228275E+01 -0.46035516513E+01  0.99382581926E+01  0.00000000000E+00 0.  1.
</event>
<event>
 8    1  0.1253703E-006  0.9118800E+02  0.7816164E-02  0.1184000E+00
        -11   -1    0    0    0    0  0.00000000000E+00  0.00000000000E+00  0.45593999997E+02  0.45594000000E+02  0.51100000000E-03 0. -1.
         11   -1    0    0    0    0 -0.00000000000E+00 -0.00000000000E+00 -0.45593999997E+02  0.45594000000E+02  0.51100000000E-03 0.  1.
         23    2    1    2    0    0 -0.35527136788E-14  0.35527136788E-14  0.71054273576E-14  0.91188000000E+02  0.91188000000E+02 0.  0.
    9900012    2    3    3    0    0 -0.14856180009E+02  0.18603857521E+02  0.28088585149E+02  0.54367106273E+02  0.40000050371E+02 0.  0.
        -12    1    3    3    0    0  0.14856180009E+02 -0.18603857521E+02 -0.28088585149E+02  0.36820893727E+02  0.00000000000E+00 0.  1.
         11    1    4    4    0    0 -0.10898716525E+02  0.17719718845E+02  0.19035565325E+02  0.28197929097E+02  0.51100000000E-03 0. -1.
        -11    1    4    4    0    0 -0.26346875184E+01  0.93910389704E+01 -0.39923871229E+01  0.10539086605E+02  0.51100000000E-03 0.  1.
        -12    1    4    4    0    0 -0.13227759664E+01 -0.85069002942E+01  0.13045406947E+02  0.15630090572E+02  0.00000000000E+00 0.  1.
</event>
<event>
 8    1  0.1253703E-006  0.9118800E+02  0.7816164E-02  0.1184000E+00
        -11   -1    0    0    0    0  0.00000000000E+00  0.00000000000E+00  0.45593999997E+02  0.45594000000E+02  0.51100000000E-03 0.  1.
         11   -1    0    0    0    0 -0.00000000000E+00 -0.00000000000E+00 -0.45593999997E+02  0.45594000000E+02  0.51100000000E-03 0. -1.
         23    2    1    2    0    0 -0.88817841970E-15  0.00000000000E+00  0.17763568394E-14  0.91188000000E+02  0.91188000000E+02 0.  0.
    9900012    2    3    3    0    0 -0.59135551664E+01  0.33792898345E+02 -0.13373502727E+02  0.54367072683E+02  0.39999973795E+02 0.  0.
         12    1    3    3    0    0  0.59135551664E+01 -0.33792898345E+02  0.13373502727E+02  0.36820927317E+02  0.00000000000E+00 0. -1.
         11    1    4    4    0    0  0.81847252985E+01 -0.28756723888E+01 -0.54168374036E+00  0.86921022449E+01  0.51100000000E-03 0. -1.
        -11    1    4    4    0    0 -0.14847036996E+02  0.27942482583E+02 -0.19438390101E+01  0.31701661641E+02  0.51100000000E-03 0.  1.
        -12    1    4    4    0    0  0.74875653076E+00  0.87260881514E+01 -0.10887979976E+02  0.13973308797E+02  0.00000000000E+00 0.  1.
</event>
<event>
 8    1  0.1253703E-006  0.9118800E+02  0.7816164E-02  0.1184000E+00
        -11   -1    0    0    0    0  0.00000000000E+00  0.00000000000E+00  0.45593999997E+02  0.45594000000E+02  0.51100000000E-03 0.  1.
         11   -1    0    0    0    0 -0.00000000000E+00 -0.00000000000E+00 -0.45593999997E+02  0.45594000000E+02  0.51100000000E-03 0. -1.
         23    2    1    2    0    0  0.71054273576E-14  0.17763568394E-14  0.00000000000E+00  0.91188000000E+02  0.91188000000E+02 0.  0.
    9900012    2    3    3    0    0  0.33676407105E+02  0.93190877701E+01 -0.11611804861E+02  0.54367084687E+02  0.40000001161E+02 0.  0.
        -12    1    3    3    0    0 -0.33676407105E+02 -0.93190877701E+01  0.11611804861E+02  0.36820915313E+02  0.00000000000E+00 0.  1.
         11    1    4    4    0    0  0.35112541454E+02 -0.13411306356E+01 -0.66848860387E+00  0.35144502785E+02  0.51100000000E-03 0.  1.
        -11    1    4    4    0    0  0.38583206266E+01  0.26036385585E+01 -0.21592156533E-01  0.46546791815E+01  0.51100000000E-03 0. -1.
        -12    1    4    4    0    0 -0.52944549759E+01  0.80565798472E+01 -0.10921724101E+02  0.14567902720E+02  0.00000000000E+00 0.  1.
</event>
<event>
 8    1  0.1253703E-006  0.9118800E+02  0.7816164E-02  0.1184000E+00
        -11   -1    0    0    0    0  0.00000000000E+00  0.00000000000E+00  0.45593999997E+02  0.45594000000E+02  0.51100000000E-03 0.  1.
         11   -1    0    0    0    0 -0.00000000000E+00 -0.00000000000E+00 -0.45593999997E+02  0.45594000000E+02  0.51100000000E-03 0. -1.
         23    2    1    2    0    0  0.00000000000E+00  0.00000000000E+00  0.00000000000E+00  0.91188000000E+02  0.91188000000E+02 0.  0.
    9900012    2    3    3    0    0  0.10281344668E+02  0.14704231337E+02 -0.32153659426E+02  0.54367105363E+02  0.40000048296E+02 0.  0.
        -12    1    3    3    0    0 -0.10281344668E+02 -0.14704231337E+02  0.32153659426E+02  0.36820894637E+02  0.00000000000E+00 0.  1.
         11    1    4    4    0    0  0.88487540048E+01  0.15225457731E+02 -0.84244507363E+01  0.19521433887E+02  0.51100000000E-03 0. -1.
        -11    1    4    4    0    0  0.64086578036E+01  0.10579777091E+02 -0.71670803264E+01  0.14295790248E+02  0.51100000000E-03 0.  1.
         12    1    4    4    0    0 -0.49760671408E+01 -0.11101003485E+02 -0.16562128363E+02  0.20549881228E+02  0.00000000000E+00 0. -1.
</event>
<event>
 8    1  0.1253703E-006  0.9118800E+02  0.7816164E-02  0.1184000E+00
        -11   -1    0    0    0    0  0.00000000000E+00  0.00000000000E+00  0.45593999997E+02  0.45594000000E+02  0.51100000000E-03 0.  1.
         11   -1    0    0    0    0 -0.00000000000E+00 -0.00000000000E+00 -0.45593999997E+02  0.45594000000E+02  0.51100000000E-03 0. -1.
         23    2    1    2    0    0  0.00000000000E+00  0.00000000000E+00 -0.88817841970E-15  0.91188000000E+02  0.91188000000E+02 0.  0.
    9900012    2    3    3    0    0 -0.13992619074E+02 -0.33977529451E+02 -0.23497617917E+01  0.54366983221E+02  0.39999769849E+02 0.  0.
        -12    1    3    3    0    0  0.13992619074E+02  0.33977529451E+02  0.23497617917E+01  0.36821016779E+02  0.00000000000E+00 0.  1.
         11    1    4    4    0    0 -0.65203564933E+01 -0.23007534408E+01  0.36879388520E+00  0.69241984653E+01  0.51100000000E-03 0. -1.
        -11    1    4    4    0    0 -0.12301591420E+02 -0.96241755071E+00 -0.95576021690E+01  0.15607791596E+02  0.51100000000E-03 0.  1.
         12    1    4    4    0    0  0.48293288392E+01 -0.30714358459E+02  0.68390464921E+01  0.31834993160E+02  0.00000000000E+00 0. -1.
</event>
<event>
 8    1  0.1253703E-006  0.9118800E+02  0.7816164E-02  0.1184000E+00
        -11   -1    0    0    0    0  0.00000000000E+00  0.00000000000E+00  0.45593999997E+02  0.45594000000E+02  0.51100000000E-03 0.  1.
         11   -1    0    0    0    0 -0.00000000000E+00 -0.00000000000E+00 -0.45593999997E+02  0.45594000000E+02  0.51100000000E-03 0. -1.
         23    2    1    2    0    0  0.88817841970E-15 -0.35527136788E-14  0.00000000000E+00  0.91188000000E+02  0.91188000000E+02 0.  0.
    9900012    2    3    3    0    0 -0.69288872224E+01  0.20794597147E+02 -0.29586377830E+02  0.54367102377E+02  0.40000041488E+02 0.  0.
        -12    1    3    3    0    0  0.69288872224E+01 -0.20794597147E+02  0.29586377830E+02  0.36820897623E+02  0.00000000000E+00 0.  1.
         11    1    4    4    0    0  0.14221088078E+01  0.11191634162E+02 -0.23286867873E+02  0.25875727705E+02  0.51100000000E-03 0. -1.
        -11    1    4    4    0    0 -0.50291824991E+01 -0.30125139755E+01 -0.12679641280E+02  0.13969295627E+02  0.51100000000E-03 0.  1.
        -12    1    4    4    0    0 -0.33218135311E+01  0.12615476961E+02  0.63801313226E+01  0.14522079045E+02  0.00000000000E+00 0.  1.
</event>
<event>
 8    1  0.1253703E-006  0.9118800E+02  0.7816164E-02  0.1184000E+00
        -11   -1    0    0    0    0  0.00000000000E+00  0.00000000000E+00  0.45593999997E+02  0.45594000000E+02  0.51100000000E-03 0.  1.
         11   -1    0    0    0    0 -0.00000000000E+00 -0.00000000000E+00 -0.45593999997E+02  0.45594000000E+02  0.51100000000E-03 0. -1.
         23    2    1    2    0    0  0.88817841970E-15  0.17763568394E-14  0.00000000000E+00  0.91188000000E+02  0.91188000000E+02 0.  0.
    9900012    2    3    3    0    0  0.48384321781E+01  0.10876247660E+02 -0.34843575775E+02  0.54367109708E+02  0.40000058201E+02 0.  0.
        -12    1    3    3    0    0 -0.48384321781E+01 -0.10876247660E+02  0.34843575775E+02  0.36820890292E+02  0.00000000000E+00 0.  1.
         11    1    4    4    0    0 -0.13148052388E+02 -0.78275914886E+01 -0.16740643083E+02  0.22680202847E+02  0.51100000000E-03 0. -1.
        -11    1    4    4    0    0  0.93127157309E+01  0.86238702355E+01 -0.93973402526E+01  0.15792650702E+02  0.51100000000E-03 0.  1.
         12    1    4    4    0    0  0.86737688351E+01  0.10079968914E+02 -0.87055924398E+01  0.15894256158E+02  0.00000000000E+00 0. -1.
</event>
<event>
 8    1  0.1253703E-006  0.9118800E+02  0.7816164E-02  0.1184000E+00
        -11   -1    0    0    0    0  0.00000000000E+00  0.00000000000E+00  0.45593999997E+02  0.45594000000E+02  0.51100000000E-03 0. -1.
         11   -1    0    0    0    0 -0.00000000000E+00 -0.00000000000E+00 -0.45593999997E+02  0.45594000000E+02  0.51100000000E-03 0.  1.
         23    2    1    2    0    0  0.00000000000E+00  0.00000000000E+00  0.00000000000E+00  0.91188000000E+02  0.91188000000E+02 0.  0.
    9900012    2    3    3    0    0  0.27549571227E+02  0.19602680519E+02 -0.14578665191E+02  0.54367062518E+02  0.39999950622E+02 0.  0.
         12    1    3    3    0    0 -0.27549571227E+02 -0.19602680519E+02  0.14578665191E+02  0.36820937482E+02  0.00000000000E+00 0. -1.
         11    1    4    4    0    0  0.64045850319E+01  0.31917132238E+01  0.11469375462E+02  0.13518591512E+02  0.51100000000E-03 0. -1.
        -11    1    4    4    0    0  0.21260730126E+02  0.10910347942E+02 -0.14230526155E+02  0.27812986402E+02  0.51100000000E-03 0.  1.
        -12    1    4    4    0    0 -0.11574393144E+00  0.55006193538E+01 -0.11817514498E+02  0.13035484603E+02  0.00000000000E+00 0.  1.
</event>
<event>
 8    1  0.1253703E-006  0.9118800E+02  0.7816164E-02  0.1184000E+00
        -11   -1    0    0    0    0  0.00000000000E+00  0.00000000000E+00  0.45593999997E+02  0.45594000000E+02  0.51100000000E-03 0.  1.
         11   -1    0    0    0    0 -0.00000000000E+00 -0.00000000000E+00 -0.45593999997E+02  0.45594000000E+02  0.51100000000E-03 0. -1.
         23    2    1    2    0    0 -0.71054273576E-14  0.00000000000E+00  0.00000000000E+00  0.91188000000E+02  0.91188000000E+02 0.  0.
    9900012    2    3    3    0    0  0.35280761082E+02 -0.71008976879E+01 -0.77862590943E+01  0.54367072782E+02  0.39999974020E+02 0.  0.
        -12    1    3    3    0    0 -0.35280761082E+02  0.71008976879E+01  0.77862590943E+01  0.36820927218E+02  0.00000000000E+00 0.  1.
         11    1    4    4    0    0  0.13715327114E+02  0.72406504388E+01 -0.10261059336E+02  0.18596412439E+02  0.51100000000E-03 0. -1.
        -11    1    4    4    0    0  0.42619726335E+01  0.30332631978E+01 -0.76282596494E+01  0.92496184730E+01  0.51100000000E-03 0.  1.
        -12    1    4    4    0    0  0.17303461335E+02 -0.17374811325E+02  0.10103059891E+02  0.26521041870E+02  0.00000000000E+00 0.  1.
</event>
<event>
 8    1  0.1253703E-006  0.9118800E+02  0.7816164E-02  0.1184000E+00
        -11   -1    0    0    0    0  0.00000000000E+00  0.00000000000E+00  0.45593999997E+02  0.45594000000E+02  0.51100000000E-03 0.  1.
         11   -1    0    0    0    0 -0.00000000000E+00 -0.00000000000E+00 -0.45593999997E+02  0.45594000000E+02  0.51100000000E-03 0. -1.
         23    2    1    2    0    0 -0.71054273576E-14  0.17763568394E-14 -0.71054273576E-14  0.91188000000E+02  0.91188000000E+02 0.  0.
    9900012    2    3    3    0    0  0.23324204105E+02 -0.80411571719E+01  0.27333146283E+02  0.54367087579E+02  0.40000007754E+02 0.  0.
         12    1    3    3    0    0 -0.23324204105E+02  0.80411571719E+01 -0.27333146283E+02  0.36820912421E+02  0.00000000000E+00 0. -1.
         11    1    4    4    0    0 -0.11833708108E+01 -0.50879317525E+01  0.19434178274E+01  0.55735347049E+01  0.51100000000E-03 0. -1.
        -11    1    4    4    0    0  0.43634083599E+01 -0.50489353189E+01  0.27623263909E+02  0.28417877993E+02  0.51100000000E-03 0.  1.
         12    1    4    4    0    0  0.20144166556E+02  0.20957098995E+01 -0.22335354543E+01  0.20375674881E+02  0.00000000000E+00 0. -1.
</event>
<event>
 8    1  0.1253703E-006  0.9118800E+02  0.7816164E-02  0.1184000E+00
        -11   -1    0    0    0    0  0.00000000000E+00  0.00000000000E+00  0.45593999997E+02  0.45594000000E+02  0.51100000000E-03 0.  1.
         11   -1    0    0    0    0 -0.00000000000E+00 -0.00000000000E+00 -0.45593999997E+02  0.45594000000E+02  0.51100000000E-03 0. -1.
         23    2    1    2    0    0  0.00000000000E+00  0.00000000000E+00 -0.17763568394E-14  0.91188000000E+02  0.91188000000E+02 0.  0.
    9900012    2    3    3    0    0  0.33312189654E+02  0.82785326951E+01  0.13324518196E+02  0.54367097400E+02  0.40000030142E+02 0.  0.
         12    1    3    3    0    0 -0.33312189654E+02 -0.82785326951E+01 -0.13324518196E+02  0.36820902600E+02  0.00000000000E+00 0. -1.
         11    1    4    4    0    0  0.13228518613E+02  0.81082673484E+00 -0.20590143551E+01  0.13412333319E+02  0.51100000000E-03 0.  1.
        -11    1    4    4    0    0  0.55451208233E+01  0.40753856711E+01  0.23132512037E+02  0.24134420372E+02  0.51100000000E-03 0. -1.
         12    1    4    4    0    0  0.14538550218E+02  0.33923202892E+01 -0.77489794862E+01  0.16820343708E+02  0.00000000000E+00 0. -1.
</event>
<event>
 8    1  0.1253703E-006  0.9118800E+02  0.7816164E-02  0.1184000E+00
        -11   -1    0    0    0    0  0.00000000000E+00  0.00000000000E+00  0.45593999997E+02  0.45594000000E+02  0.51100000000E-03 0.  1.
         11   -1    0    0    0    0 -0.00000000000E+00 -0.00000000000E+00 -0.45593999997E+02  0.45594000000E+02  0.51100000000E-03 0. -1.
         23    2    1    2    0    0 -0.17763568394E-14  0.00000000000E+00  0.17763568394E-14  0.91188000000E+02  0.91188000000E+02 0.  0.
    9900012    2    3    3    0    0  0.12736063731E+02 -0.32717970766E+02 -0.11095469514E+02  0.54367049793E+02  0.39999921612E+02 0.  0.
        -12    1    3    3    0    0 -0.12736063731E+02  0.32717970766E+02  0.11095469514E+02  0.36820950207E+02  0.00000000000E+00 0.  1.
         11    1    4    4    0    0  0.68701061000E+01  0.16804579527E+01 -0.14484026276E+02  0.16118601496E+02  0.51100000000E-03 0. -1.
        -11    1    4    4    0    0  0.82156539155E+01 -0.23289107044E+02  0.80487708164E+01  0.25974260107E+02  0.51100000000E-03 0.  1.
         12    1    4    4    0    0 -0.23496962841E+01 -0.11109321674E+02 -0.46602140549E+01  0.12274188190E+02  0.00000000000E+00 0. -1.
</event>
<event>
 8    1  0.1253703E-006  0.9118800E+02  0.7816164E-02  0.1184000E+00
        -11   -1    0    0    0    0  0.00000000000E+00  0.00000000000E+00  0.45593999997E+02  0.45594000000E+02  0.51100000000E-03 0.  1.
         11   -1    0    0    0    0 -0.00000000000E+00 -0.00000000000E+00 -0.45593999997E+02  0.45594000000E+02  0.51100000000E-03 0. -1.
         23    2    1    2    0    0  0.00000000000E+00  0.00000000000E+00 -0.35527136788E-14  0.91188000000E+02  0.91188000000E+02 0.  0.
    9900012    2    3    3    0    0 -0.15883396251E+02  0.21569628240E+02 -0.25263610911E+02  0.54367066075E+02  0.39999958730E+02 0.  0.
        -12    1    3    3    0    0  0.15883396251E+02 -0.21569628240E+02  0.25263610911E+02  0.36820933925E+02  0.00000000000E+00 0.  1.
         11    1    4    4    0    0  0.41032670682E+01  0.10511606161E+02 -0.65499921455E+01  0.13047339272E+02  0.51100000000E-03 0. -1.
        -11    1    4    4    0    0 -0.11408748114E+02  0.17216120352E+02 -0.97517635774E+00  0.20676201361E+02  0.51100000000E-03 0.  1.
         12    1    4    4    0    0 -0.85779152052E+01 -0.61580982733E+01 -0.17738442408E+02  0.20643525442E+02  0.00000000000E+00 0. -1.
</event>
<event>
 8    1  0.1253703E-006  0.9118800E+02  0.7816164E-02  0.1184000E+00
        -11   -1    0    0    0    0  0.00000000000E+00  0.00000000000E+00  0.45593999997E+02  0.45594000000E+02  0.51100000000E-03 0.  1.
         11   -1    0    0    0    0 -0.00000000000E+00 -0.00000000000E+00 -0.45593999997E+02  0.45594000000E+02  0.51100000000E-03 0. -1.
         23    2    1    2    0    0  0.17763568394E-14  0.35527136788E-14  0.35527136788E-14  0.91188000000E+02  0.91188000000E+02 0.  0.
    9900012    2    3    3    0    0  0.15408281145E+02  0.14247136353E+02  0.30255313063E+02  0.54367082160E+02  0.39999995399E+02 0.  0.
         12    1    3    3    0    0 -0.15408281145E+02 -0.14247136353E+02 -0.30255313063E+02  0.36820917840E+02  0.00000000000E+00 0. -1.
         11    1    4    4    0    0 -0.65535548292E+01  0.77761584696E+01  0.78364491455E+01  0.12838522381E+02  0.51100000000E-03 0. -1.
        -11    1    4    4    0    0  0.21240126123E+02  0.14633271893E+02  0.20893660663E+02  0.33193684041E+02  0.51100000000E-03 0.  1.
        -12    1    4    4    0    0  0.72170985064E+00 -0.81622940098E+01  0.15252032540E+01  0.83348757385E+01  0.00000000000E+00 0.  1.
</event>
<event>
 8    1  0.1253703E-006  0.9118800E+02  0.7816164E-02  0.1184000E+00
        -11   -1    0    0    0    0  0.00000000000E+00  0.00000000000E+00  0.45593999997E+02  0.45594000000E+02  0.51100000000E-03 0.  1.
         11   -1    0    0    0    0 -0.00000000000E+00 -0.00000000000E+00 -0.45593999997E+02  0.45594000000E+02  0.51100000000E-03 0. -1.
         23    2    1    2    0    0  0.00000000000E+00  0.00000000000E+00 -0.35527136788E-14  0.91188000000E+02  0.91188000000E+02 0.  0.
    9900012    2    3    3    0    0 -0.12430690406E+02 -0.30169504090E+02  0.17060441342E+02  0.54367086109E+02  0.40000004403E+02 0.  0.
         12    1    3    3    0    0  0.12430690406E+02  0.30169504090E+02 -0.17060441342E+02  0.36820913891E+02  0.00000000000E+00 0. -1.
         11    1    4    4    0    0 -0.57790912722E+01 -0.77474711176E-01 -0.72289123974E+01  0.92553267351E+01  0.51100000000E-03 0. -1.
        -11    1    4    4    0    0 -0.30158177004E+01 -0.68031620952E+01 -0.38712222189E+01  0.83883569681E+01  0.51100000000E-03 0.  1.
        -12    1    4    4    0    0 -0.36357814331E+01 -0.23288867283E+02  0.28160575958E+02  0.36723402406E+02  0.00000000000E+00 0.  1.
</event>
<event>
 8    1  0.1253703E-006  0.9118800E+02  0.7816164E-02  0.1184000E+00
        -11   -1    0    0    0    0  0.00000000000E+00  0.00000000000E+00  0.45593999997E+02  0.45594000000E+02  0.51100000000E-03 0.  1.
         11   -1    0    0    0    0 -0.00000000000E+00 -0.00000000000E+00 -0.45593999997E+02  0.45594000000E+02  0.51100000000E-03 0. -1.
         23    2    1    2    0    0  0.35527136788E-14  0.00000000000E+00  0.00000000000E+00  0.91188000000E+02  0.91188000000E+02 0.  0.
    9900012    2    3    3    0    0 -0.31383178002E+02 -0.86639883755E+01 -0.17199175706E+02  0.54367079302E+02  0.39999988884E+02 0.  0.
        -12    1    3    3    0    0  0.31383178002E+02  0.86639883755E+01  0.17199175706E+02  0.36820920698E+02  0.00000000000E+00 0.  1.
         11    1    4    4    0    0 -0.29216623477E+02 -0.51444308644E+01 -0.21181352493E+00  0.29666835382E+02  0.51100000000E-03 0. -1.
        -11    1    4    4    0    0 -0.69117633202E+01 -0.77598401861E+01 -0.14562778851E+02  0.17890280044E+02  0.51100000000E-03 0.  1.
         12    1    4    4    0    0  0.47452087953E+01  0.42402826750E+01 -0.24245833303E+01  0.68099638766E+01  0.00000000000E+00 0. -1.
</event>
<event>
 8    1  0.1253703E-006  0.9118800E+02  0.7816164E-02  0.1184000E+00
        -11   -1    0    0    0    0  0.00000000000E+00  0.00000000000E+00  0.45593999997E+02  0.45594000000E+02  0.51100000000E-03 0.  1.
         11   -1    0    0    0    0 -0.00000000000E+00 -0.00000000000E+00 -0.45593999997E+02  0.45594000000E+02  0.51100000000E-03 0. -1.
         23    2    1    2    0    0 -0.26645352591E-14  0.00000000000E+00  0.00000000000E+00  0.91188000000E+02  0.91188000000E+02 0.  0.
    9900012    2    3    3    0    0  0.36576146981E+01 -0.19169277322E+02  0.31224019129E+02  0.54367099564E+02  0.40000035077E+02 0.  0.
         12    1    3    3    0    0 -0.36576146981E+01  0.19169277322E+02 -0.31224019129E+02  0.36820900436E+02  0.00000000000E+00 0. -1.
         11    1    4    4    0    0  0.49797403084E+01  0.64732521942E+01 -0.11147246690E+01  0.82427798015E+01  0.51100000000E-03 0. -1.
        -11    1    4    4    0    0  0.96065323032E+01 -0.13236902839E+02  0.16175177370E+02  0.23002987260E+02  0.51100000000E-03 0.  1.
        -12    1    4    4    0    0 -0.10928657913E+02 -0.12405626678E+02  0.16163566428E+02  0.23121332503E+02  0.00000000000E+00 0.  1.
</event>
<event>
 8    1  0.1253703E-006  0.9118800E+02  0.7816164E-02  0.1184000E+00
        -11   -1    0    0    0    0  0.00000000000E+00  0.00000000000E+00  0.45593999997E+02  0.45594000000E+02  0.51100000000E-03 0.  1.
         11   -1    0    0    0    0 -0.00000000000E+00 -0.00000000000E+00 -0.45593999997E+02  0.45594000000E+02  0.51100000000E-03 0. -1.
         23    2    1    2    0    0  0.00000000000E+00 -0.35527136788E-14  0.00000000000E+00  0.91188000000E+02  0.91188000000E+02 0.  0.
    9900012    2    3    3    0    0  0.80387220646E+01 -0.23946863658E+02  0.26790016716E+02  0.54367104749E+02  0.40000046895E+02 0.  0.
         12    1    3    3    0    0 -0.80387220646E+01  0.23946863658E+02 -0.26790016716E+02  0.36820895251E+02  0.00000000000E+00 0. -1.
         11    1    4    4    0    0 -0.24927384781E+01 -0.59528591248E+01 -0.96278864003E+01  0.11590792625E+02  0.51100000000E-03 0. -1.
        -11    1    4    4    0    0  0.10231541774E+02 -0.11428549046E+02  0.20908836642E+02  0.25932135090E+02  0.51100000000E-03 0.  1.
        -12    1    4    4    0    0  0.29991876919E+00 -0.65654554867E+01  0.15509066475E+02  0.16844177033E+02  0.00000000000E+00 0.  1.
</event>
<event>
 8    1  0.1253703E-006  0.9118800E+02  0.7816164E-02  0.1184000E+00
        -11   -1    0    0    0    0  0.00000000000E+00  0.00000000000E+00  0.45593999997E+02  0.45594000000E+02  0.51100000000E-03 0.  1.
         11   -1    0    0    0    0 -0.00000000000E+00 -0.00000000000E+00 -0.45593999997E+02  0.45594000000E+02  0.51100000000E-03 0. -1.
         23    2    1    2    0    0  0.17763568394E-14  0.53290705182E-14  0.71054273576E-14  0.91188000000E+02  0.91188000000E+02 0.  0.
    9900012    2    3    3    0    0  0.89192394804E+01 -0.15033926741E+02  0.32406908175E+02  0.54367089044E+02  0.40000011093E+02 0.  0.
         12    1    3    3    0    0 -0.89192394804E+01  0.15033926741E+02 -0.32406908175E+02  0.36820910956E+02  0.00000000000E+00 0. -1.
         11    1    4    4    0    0 -0.25197872856E+01  0.57935898976E+01  0.62014939076E+01  0.88528830792E+01  0.51100000000E-03 0. -1.
        -11    1    4    4    0    0  0.12875391419E+02 -0.29495310910E+00  0.20405687530E+02  0.24129956182E+02  0.51100000000E-03 0.  1.
        -12    1    4    4    0    0 -0.14363646530E+01 -0.20532563530E+02  0.57997267376E+01  0.21384249782E+02  0.00000000000E+00 0.  1.
</event>
<event>
 8    1  0.1253703E-006  0.9118800E+02  0.7816164E-02  0.1184000E+00
        -11   -1    0    0    0    0  0.00000000000E+00  0.00000000000E+00  0.45593999997E+02  0.45594000000E+02  0.51100000000E-03 0. -1.
         11   -1    0    0    0    0 -0.00000000000E+00 -0.00000000000E+00 -0.45593999997E+02  0.45594000000E+02  0.51100000000E-03 0.  1.
         23    2    1    2    0    0  0.00000000000E+00  0.00000000000E+00  0.00000000000E+00  0.91188000000E+02  0.91188000000E+02 0.  0.
    9900012    2    3    3    0    0 -0.95971666269E+01 -0.98877872345E+01 -0.34145356317E+02  0.54367091515E+02  0.40000016727E+02 0.  0.
         12    1    3    3    0    0  0.95971666269E+01  0.98877872345E+01  0.34145356317E+02  0.36820908485E+02  0.00000000000E+00 0. -1.
         11    1    4    4    0    0  0.10884193200E+02  0.82941411355E+00 -0.30747637296E-01  0.10915792920E+02  0.51100000000E-03 0. -1.
        -11    1    4    4    0    0 -0.12039850065E+02 -0.15080261906E+01 -0.25608289342E+02  0.28337547810E+02  0.51100000000E-03 0.  1.
         12    1    4    4    0    0 -0.84415097620E+01 -0.92091751575E+01 -0.85063193373E+01  0.15113750786E+02  0.00000000000E+00 0. -1.
</event>
<event>
 8    1  0.1253703E-006  0.9118800E+02  0.7816164E-02  0.1184000E+00
        -11   -1    0    0    0    0  0.00000000000E+00  0.00000000000E+00  0.45593999997E+02  0.45594000000E+02  0.51100000000E-03 0.  1.
         11   -1    0    0    0    0 -0.00000000000E+00 -0.00000000000E+00 -0.45593999997E+02  0.45594000000E+02  0.51100000000E-03 0. -1.
         23    2    1    2    0    0  0.17763568394E-14  0.00000000000E+00  0.00000000000E+00  0.91188000000E+02  0.91188000000E+02 0.  0.
    9900012    2    3    3    0    0 -0.15117695923E+02 -0.33087618337E+02 -0.56959408086E+01  0.54367096169E+02  0.40000027336E+02 0.  0.
        -12    1    3    3    0    0  0.15117695923E+02  0.33087618337E+02  0.56959408086E+01  0.36820903831E+02  0.00000000000E+00 0.  1.
         11    1    4    4    0    0  0.22551191627E+01 -0.15179219749E+02 -0.14988289371E+02  0.21450946207E+02  0.51100000000E-03 0. -1.
        -11    1    4    4    0    0 -0.11361358367E+02 -0.55602155548E+01  0.13551141817E+02  0.18537257234E+02  0.51100000000E-03 0.  1.
        -12    1    4    4    0    0 -0.60114567187E+01 -0.12348183033E+02 -0.42587932546E+01  0.14378892728E+02  0.00000000000E+00 0.  1.
</event>
<event>
 8    1  0.1253703E-006  0.9118800E+02  0.7816164E-02  0.1184000E+00
        -11   -1    0    0    0    0  0.00000000000E+00  0.00000000000E+00  0.45593999997E+02  0.45594000000E+02  0.51100000000E-03 0.  1.
         11   -1    0    0    0    0 -0.00000000000E+00 -0.00000000000E+00 -0.45593999997E+02  0.45594000000E+02  0.51100000000E-03 0. -1.
         23    2    1    2    0    0  0.22204460493E-15  0.35527136788E-14  0.00000000000E+00  0.91188000000E+02  0.91188000000E+02 0.  0.
    9900012    2    3    3    0    0  0.14341390068E+01 -0.29963891780E+02 -0.21351540499E+02  0.54367084109E+02  0.39999999844E+02 0.  0.
        -12    1    3    3    0    0 -0.14341390068E+01  0.29963891780E+02  0.21351540499E+02  0.36820915891E+02  0.00000000000E+00 0.  1.
         11    1    4    4    0    0 -0.35211486242E+01 -0.61657180688E-01 -0.13234758638E+02  0.13695295752E+02  0.51100000000E-03 0. -1.
        -11    1    4    4    0    0  0.35727229717E+01 -0.89075263877E+01  0.92955777771E+01  0.13360993311E+02  0.51100000000E-03 0.  1.
         12    1    4    4    0    0  0.13825646593E+01 -0.20994708212E+02 -0.17412359638E+02  0.27310795047E+02  0.00000000000E+00 0. -1.
</event>
<event>
 8    1  0.1253703E-006  0.9118800E+02  0.7816164E-02  0.1184000E+00
        -11   -1    0    0    0    0  0.00000000000E+00  0.00000000000E+00  0.45593999997E+02  0.45594000000E+02  0.51100000000E-03 0. -1.
         11   -1    0    0    0    0 -0.00000000000E+00 -0.00000000000E+00 -0.45593999997E+02  0.45594000000E+02  0.51100000000E-03 0.  1.
         23    2    1    2    0    0  0.00000000000E+00 -0.55511151231E-16  0.00000000000E+00  0.91188000000E+02  0.91188000000E+02 0.  0.
    9900012    2    3    3    0    0  0.25247852182E+02 -0.44335847919E+00  0.26798022780E+02  0.54367019140E+02  0.39999851734E+02 0.  0.
        -12    1    3    3    0    0 -0.25247852182E+02  0.44335847919E+00 -0.26798022780E+02  0.36820980860E+02  0.00000000000E+00 0.  1.
         11    1    4    4    0    0  0.20490026798E+01 -0.52639753407E+01  0.19809574925E+01  0.59859870714E+01  0.51100000000E-03 0. -1.
        -11    1    4    4    0    0 -0.79025408588E+01  0.62319906143E+01  0.88009657195E+01  0.13369549615E+02  0.51100000000E-03 0.  1.
         12    1    4    4    0    0  0.31101390361E+02 -0.14113737527E+01  0.16016099568E+02  0.35011482454E+02  0.00000000000E+00 0. -1.
</event>
<event>
 8    1  0.1253703E-006  0.9118800E+02  0.7816164E-02  0.1184000E+00
        -11   -1    0    0    0    0  0.00000000000E+00  0.00000000000E+00  0.45593999997E+02  0.45594000000E+02  0.51100000000E-03 0. -1.
         11   -1    0    0    0    0 -0.00000000000E+00 -0.00000000000E+00 -0.45593999997E+02  0.45594000000E+02  0.51100000000E-03 0.  1.
         23    2    1    2    0    0 -0.88817841970E-15  0.00000000000E+00  0.00000000000E+00  0.91188000000E+02  0.91188000000E+02 0.  0.
    9900012    2    3    3    0    0  0.80915209257E+00  0.28293946453E+02 -0.23549474431E+02  0.54367083676E+02  0.39999998856E+02 0.  0.
         12    1    3    3    0    0 -0.80915209257E+00 -0.28293946453E+02  0.23549474431E+02  0.36820916324E+02  0.00000000000E+00 0. -1.
         11    1    4    4    0    0 -0.13765790206E+02  0.14478368185E+02 -0.11723388012E+02  0.23163720600E+02  0.51100000000E-03 0.  1.
        -11    1    4    4    0    0  0.85611504835E+01  0.15438803338E+02 -0.15901692651E+02  0.23759498638E+02  0.51100000000E-03 0. -1.
         12    1    4    4    0    0  0.60137918147E+01 -0.16232250700E+01  0.40756062317E+01  0.74438644382E+01  0.00000000000E+00 0. -1.
</event>
<event>
 8    1  0.1253703E-006  0.9118800E+02  0.7816164E-02  0.1184000E+00
        -11   -1    0    0    0    0  0.00000000000E+00  0.00000000000E+00  0.45593999997E+02  0.45594000000E+02  0.51100000000E-03 0.  1.
         11   -1    0    0    0    0 -0.00000000000E+00 -0.00000000000E+00 -0.45593999997E+02  0.45594000000E+02  0.51100000000E-03 0. -1.
         23    2    1    2    0    0  0.00000000000E+00  0.35527136788E-14 -0.17763568394E-14  0.91188000000E+02  0.91188000000E+02 0.  0.
    9900012    2    3    3    0    0 -0.17892533142E+02 -0.31146585236E+02  0.80947837848E+01  0.54367108666E+02  0.40000055826E+02 0.  0.
         12    1    3    3    0    0  0.17892533142E+02  0.31146585236E+02 -0.80947837848E+01  0.36820891334E+02  0.00000000000E+00 0. -1.
         11    1    4    4    0    0 -0.14902290242E+02 -0.10546968896E+02 -0.46483853835E+01  0.18839434553E+02  0.51100000000E-03 0. -1.
        -11    1    4    4    0    0 -0.11896097755E+02 -0.31881774511E+01  0.98239504082E+01  0.15754098487E+02  0.51100000000E-03 0.  1.
        -12    1    4    4    0    0  0.89058548542E+01 -0.17411438889E+02  0.29192187601E+01  0.19773575626E+02  0.00000000000E+00 0.  1.
</event>
<event>
 8    1  0.1253703E-006  0.9118800E+02  0.7816164E-02  0.1184000E+00
        -11   -1    0    0    0    0  0.00000000000E+00  0.00000000000E+00  0.45593999997E+02  0.45594000000E+02  0.51100000000E-03 0. -1.
         11   -1    0    0    0    0 -0.00000000000E+00 -0.00000000000E+00 -0.45593999997E+02  0.45594000000E+02  0.51100000000E-03 0.  1.
         23    2    1    2    0    0  0.13322676296E-14 -0.71054273576E-14 -0.17763568394E-14  0.91188000000E+02  0.91188000000E+02 0.  0.
    9900012    2    3    3    0    0  0.35042050163E+01 -0.33112490974E+02 -0.15718265015E+02  0.54367077057E+02  0.39999983766E+02 0.  0.
         12    1    3    3    0    0 -0.35042050163E+01  0.33112490974E+02  0.15718265015E+02  0.36820922943E+02  0.00000000000E+00 0. -1.
         11    1    4    4    0    0  0.11929862174E+02 -0.15690475703E+02 -0.70640155093E+00  0.19723378074E+02  0.51100000000E-03 0. -1.
        -11    1    4    4    0    0 -0.64138177655E+01 -0.21070178268E+02 -0.33728220277E+01  0.22281503524E+02  0.51100000000E-03 0.  1.
         12    1    4    4    0    0 -0.20118393917E+01  0.36481629970E+01 -0.11639041437E+02  0.12362195459E+02  0.00000000000E+00 0. -1.
</event>
<event>
 8    1  0.1253703E-006  0.9118800E+02  0.7816164E-02  0.1184000E+00
        -11   -1    0    0    0    0  0.00000000000E+00  0.00000000000E+00  0.45593999997E+02  0.45594000000E+02  0.51100000000E-03 0.  1.
         11   -1    0    0    0    0 -0.00000000000E+00 -0.00000000000E+00 -0.45593999997E+02  0.45594000000E+02  0.51100000000E-03 0. -1.
         23    2    1    2    0    0  0.17763568394E-14  0.00000000000E+00  0.00000000000E+00  0.91188000000E+02  0.91188000000E+02 0.  0.
    9900012    2    3    3    0    0 -0.14741059613E+02  0.28329792512E+02 -0.18327680996E+02  0.54367083757E+02  0.39999999041E+02 0.  0.
        -12    1    3    3    0    0  0.14741059613E+02 -0.28329792512E+02  0.18327680996E+02  0.36820916243E+02  0.00000000000E+00 0.  1.
         11    1    4    4    0    0 -0.11981233877E+02  0.19386690434E+02 -0.39864678254E+01  0.23136241207E+02  0.51100000000E-03 0. -1.
        -11    1    4    4    0    0  0.61507068373E+01  0.14394989833E+02 -0.13637263031E+02  0.20761066209E+02  0.51100000000E-03 0.  1.
        -12    1    4    4    0    0 -0.89105325734E+01 -0.54518877552E+01 -0.70395013991E+00  0.10469776341E+02  0.00000000000E+00 0.  1.
</event>
<event>
 8    1  0.1253703E-006  0.9118800E+02  0.7816164E-02  0.1184000E+00
        -11   -1    0    0    0    0  0.00000000000E+00  0.00000000000E+00  0.45593999997E+02  0.45594000000E+02  0.51100000000E-03 0. -1.
         11   -1    0    0    0    0 -0.00000000000E+00 -0.00000000000E+00 -0.45593999997E+02  0.45594000000E+02  0.51100000000E-03 0.  1.
         23    2    1    2    0    0  0.17763568394E-14  0.88817841970E-15 -0.71054273576E-14  0.91188000000E+02  0.91188000000E+02 0.  0.
    9900012    2    3    3    0    0 -0.95803341238E+01 -0.19312779905E+01  0.35500236600E+02  0.54367089701E+02  0.40000012592E+02 0.  0.
        -12    1    3    3    0    0  0.95803341238E+01  0.19312779905E+01 -0.35500236600E+02  0.36820910299E+02  0.00000000000E+00 0.  1.
         11    1    4    4    0    0 -0.54558957663E+01 -0.59348933617E+01  0.31356006241E+02  0.32375745327E+02  0.51100000000E-03 0. -1.
        -11    1    4    4    0    0  0.20732309098E+00  0.10681719619E+01  0.12274547239E+02  0.12322681704E+02  0.51100000000E-03 0.  1.
        -12    1    4    4    0    0 -0.43317614484E+01  0.29354434092E+01 -0.81303168801E+01  0.96686626699E+01  0.00000000000E+00 0.  1.
</event>
<event>
 8    1  0.1253703E-006  0.9118800E+02  0.7816164E-02  0.1184000E+00
        -11   -1    0    0    0    0  0.00000000000E+00  0.00000000000E+00  0.45593999997E+02  0.45594000000E+02  0.51100000000E-03 0.  1.
         11   -1    0    0    0    0 -0.00000000000E+00 -0.00000000000E+00 -0.45593999997E+02  0.45594000000E+02  0.51100000000E-03 0. -1.
         23    2    1    2    0    0  0.17763568394E-14  0.00000000000E+00 -0.35527136788E-14  0.91188000000E+02  0.91188000000E+02 0.  0.
    9900012    2    3    3    0    0  0.12432453286E+02 -0.18527880178E+02  0.29290501025E+02  0.54367059098E+02  0.39999942827E+02 0.  0.
         12    1    3    3    0    0 -0.12432453286E+02  0.18527880178E+02 -0.29290501025E+02  0.36820940902E+02  0.00000000000E+00 0. -1.
         11    1    4    4    0    0  0.31174305594E+01  0.32702330465E+01  0.91193610690E+01  0.10177207084E+02  0.51100000000E-03 0. -1.
        -11    1    4    4    0    0 -0.13767562845E+01  0.77098926417E+01  0.53225819239E+01  0.94693073142E+01  0.51100000000E-03 0.  1.
         12    1    4    4    0    0  0.10691779012E+02 -0.29508005866E+02  0.14848558032E+02  0.34720544700E+02  0.00000000000E+00 0. -1.
</event>
<event>
 8    1  0.1253703E-006  0.9118800E+02  0.7816164E-02  0.1184000E+00
        -11   -1    0    0    0    0  0.00000000000E+00  0.00000000000E+00  0.45593999997E+02  0.45594000000E+02  0.51100000000E-03 0.  1.
         11   -1    0    0    0    0 -0.00000000000E+00 -0.00000000000E+00 -0.45593999997E+02  0.45594000000E+02  0.51100000000E-03 0. -1.
         23    2    1    2    0    0  0.35527136788E-14  0.00000000000E+00  0.00000000000E+00  0.91188000000E+02  0.91188000000E+02 0.  0.
    9900012    2    3    3    0    0 -0.16365698304E+02 -0.22081886500E+02 -0.24501630450E+02  0.54367140598E+02  0.40000128622E+02 0.  0.
        -12    1    3    3    0    0  0.16365698304E+02  0.22081886500E+02  0.24501630450E+02  0.36820859402E+02  0.00000000000E+00 0.  1.
         11    1    4    4    0    0 -0.17040726312E+02 -0.67953171582E+01  0.83043700735E+00  0.18364430686E+02  0.51100000000E-03 0. -1.
        -11    1    4    4    0    0 -0.20332286127E+01  0.14521494612E+01  0.24213412218E+01  0.34793174938E+01  0.51100000000E-03 0.  1.
         12    1    4    4    0    0  0.27082566212E+01 -0.16738718803E+02 -0.27753408680E+02  0.32523392419E+02  0.00000000000E+00 0. -1.
</event>
<event>
 8    1  0.1253703E-006  0.9118800E+02  0.7816164E-02  0.1184000E+00
        -11   -1    0    0    0    0  0.00000000000E+00  0.00000000000E+00  0.45593999997E+02  0.45594000000E+02  0.51100000000E-03 0. -1.
         11   -1    0    0    0    0 -0.00000000000E+00 -0.00000000000E+00 -0.45593999997E+02  0.45594000000E+02  0.51100000000E-03 0.  1.
         23    2    1    2    0    0 -0.17763568394E-14  0.00000000000E+00  0.00000000000E+00  0.91188000000E+02  0.91188000000E+02 0.  0.
    9900012    2    3    3    0    0 -0.54788934562E+01 -0.25239917602E+02  0.26243257752E+02  0.54367078073E+02  0.39999986084E+02 0.  0.
        -12    1    3    3    0    0  0.54788934562E+01  0.25239917602E+02 -0.26243257752E+02  0.36820921927E+02  0.00000000000E+00 0.  1.
         11    1    4    4    0    0  0.81961473130E+01  0.78806128225E+00  0.81583557600E+00  0.82742648803E+01  0.51100000000E-03 0. -1.
        -11    1    4    4    0    0 -0.97073405404E+01 -0.14071878050E+02 -0.67599816083E+00  0.17108687442E+02  0.51100000000E-03 0.  1.
         12    1    4    4    0    0 -0.39677002288E+01 -0.11956100835E+02  0.26103420337E+02  0.28984125751E+02  0.00000000000E+00 0. -1.
</event>
<event>
 8    1  0.1253703E-006  0.9118800E+02  0.7816164E-02  0.1184000E+00
        -11   -1    0    0    0    0  0.00000000000E+00  0.00000000000E+00  0.45593999997E+02  0.45594000000E+02  0.51100000000E-03 0. -1.
         11   -1    0    0    0    0 -0.00000000000E+00 -0.00000000000E+00 -0.45593999997E+02  0.45594000000E+02  0.51100000000E-03 0.  1.
         23    2    1    2    0    0  0.88817841970E-15  0.17763568394E-14  0.00000000000E+00  0.91188000000E+02  0.91188000000E+02 0.  0.
    9900012    2    3    3    0    0  0.73295567878E+01 -0.65488046230E+01  0.35484779563E+02  0.54367097983E+02  0.40000031473E+02 0.  0.
        -12    1    3    3    0    0 -0.73295567878E+01  0.65488046230E+01 -0.35484779563E+02  0.36820902017E+02  0.00000000000E+00 0.  1.
         11    1    4    4    0    0 -0.55912243641E+00  0.89548891068E+01  0.12107206802E+02  0.15069409863E+02  0.51100000000E-03 0. -1.
        -11    1    4    4    0    0  0.40114208748E+01 -0.20219720253E+02  0.69202129452E+01  0.21744377020E+02  0.51100000000E-03 0.  1.
        -12    1    4    4    0    0  0.38772583494E+01  0.47160265230E+01  0.16457359815E+02  0.17553311100E+02  0.00000000000E+00 0.  1.
</event>
<event>
 8    1  0.1253703E-006  0.9118800E+02  0.7816164E-02  0.1184000E+00
        -11   -1    0    0    0    0  0.00000000000E+00  0.00000000000E+00  0.45593999997E+02  0.45594000000E+02  0.51100000000E-03 0. -1.
         11   -1    0    0    0    0 -0.00000000000E+00 -0.00000000000E+00 -0.45593999997E+02  0.45594000000E+02  0.51100000000E-03 0.  1.
         23    2    1    2    0    0 -0.17763568394E-14 -0.35527136788E-14  0.00000000000E+00  0.91188000000E+02  0.91188000000E+02 0.  0.
    9900012    2    3    3    0    0 -0.13418980672E+02 -0.23815042227E+02 -0.24668901395E+02  0.54367082377E+02  0.39999995895E+02 0.  0.
         12    1    3    3    0    0  0.13418980672E+02  0.23815042227E+02  0.24668901395E+02  0.36820917623E+02  0.00000000000E+00 0. -1.
         11    1    4    4    0    0  0.14941085095E+01 -0.23951052272E+02 -0.31779446033E+01  0.24207118732E+02  0.51100000000E-03 0.  1.
        -11    1    4    4    0    0 -0.54656421812E+01  0.84579222317E+00 -0.19772312700E+02  0.20531267830E+02  0.51100000000E-03 0. -1.
        -12    1    4    4    0    0 -0.94474470007E+01 -0.70978217865E+00 -0.17186440913E+01  0.96286958143E+01  0.00000000000E+00 0.  1.
</event>
<event>
 8    1  0.1253703E-006  0.9118800E+02  0.7816164E-02  0.1184000E+00
        -11   -1    0    0    0    0  0.00000000000E+00  0.00000000000E+00  0.45593999997E+02  0.45594000000E+02  0.51100000000E-03 0. -1.
         11   -1    0    0    0    0 -0.00000000000E+00 -0.00000000000E+00 -0.45593999997E+02  0.45594000000E+02  0.51100000000E-03 0.  1.
         23    2    1    2    0    0  0.35527136788E-14 -0.35527136788E-14  0.00000000000E+00  0.91188000000E+02  0.91188000000E+02 0.  0.
    9900012    2    3    3    0    0  0.24029686337E+02 -0.18309841327E+02  0.21050046783E+02  0.54367074096E+02  0.39999977016E+02 0.  0.
        -12    1    3    3    0    0 -0.24029686337E+02  0.18309841327E+02 -0.21050046783E+02  0.36820925904E+02  0.00000000000E+00 0.  1.
         11    1    4    4    0    0  0.13775874062E+02 -0.13672803316E+02  0.28196488140E+02  0.34231012261E+02  0.51100000000E-03 0. -1.
        -11    1    4    4    0    0  0.11523029640E+01 -0.17298526815E+01  0.45683709548E+01  0.50189845450E+01  0.51100000000E-03 0.  1.
        -12    1    4    4    0    0  0.91015093108E+01 -0.29071853301E+01 -0.11714812312E+02  0.15117077290E+02  0.00000000000E+00 0.  1.
</event>
<event>
 8    1  0.1253703E-006  0.9118800E+02  0.7816164E-02  0.1184000E+00
        -11   -1    0    0    0    0  0.00000000000E+00  0.00000000000E+00  0.45593999997E+02  0.45594000000E+02  0.51100000000E-03 0. -1.
         11   -1    0    0    0    0 -0.00000000000E+00 -0.00000000000E+00 -0.45593999997E+02  0.45594000000E+02  0.51100000000E-03 0.  1.
         23    2    1    2    0    0  0.00000000000E+00  0.00000000000E+00 -0.55511151231E-15  0.91188000000E+02  0.91188000000E+02 0.  0.
    9900012    2    3    3    0    0 -0.32441871920E+02 -0.17405635221E+02 -0.59092698469E+00  0.54367076793E+02  0.39999983165E+02 0.  0.
         12    1    3    3    0    0  0.32441871920E+02  0.17405635221E+02  0.59092698469E+00  0.36820923207E+02  0.00000000000E+00 0. -1.
         11    1    4    4    0    0 -0.16282120333E+02 -0.10322259079E+02  0.22219534586E+01  0.19406018460E+02  0.51100000000E-03 0. -1.
        -11    1    4    4    0    0 -0.20061847067E+02 -0.66222685070E+01  0.86610414501E+01  0.22832997770E+02  0.51100000000E-03 0.  1.
         12    1    4    4    0    0  0.39020954806E+01 -0.46110763436E+00 -0.11473921893E+02  0.12128060562E+02  0.00000000000E+00 0. -1.
</event>
<event>
 8    1  0.1253703E-006  0.9118800E+02  0.7816164E-02  0.1184000E+00
        -11   -1    0    0    0    0  0.00000000000E+00  0.00000000000E+00  0.45593999997E+02  0.45594000000E+02  0.51100000000E-03 0. -1.
         11   -1    0    0    0    0 -0.00000000000E+00 -0.00000000000E+00 -0.45593999997E+02  0.45594000000E+02  0.51100000000E-03 0.  1.
         23    2    1    2    0    0  0.44408920985E-15  0.00000000000E+00 -0.53290705182E-14  0.91188000000E+02  0.91188000000E+02 0.  0.
    9900012    2    3    3    0    0  0.88598427964E+00 -0.34058154631E+02  0.13965529252E+02  0.54367097345E+02  0.40000030017E+02 0.  0.
        -12    1    3    3    0    0 -0.88598427964E+00  0.34058154631E+02 -0.13965529252E+02  0.36820902655E+02  0.00000000000E+00 0.  1.
         11    1    4    4    0    0 -0.98430122126E+01 -0.27897360359E+02  0.15231040396E+02  0.33273596082E+02  0.51100000000E-03 0. -1.
        -11    1    4    4    0    0  0.98812546110E+01 -0.11769839519E+02 -0.12771027601E+01  0.15420742742E+02  0.51100000000E-03 0.  1.
        -12    1    4    4    0    0  0.84774188129E+00  0.56090452465E+01  0.11591616421E-01  0.56727585212E+01  0.00000000000E+00 0.  1.
</event>
<event>
 8    1  0.1253703E-006  0.9118800E+02  0.7816164E-02  0.1184000E+00
        -11   -1    0    0    0    0  0.00000000000E+00  0.00000000000E+00  0.45593999997E+02  0.45594000000E+02  0.51100000000E-03 0.  1.
         11   -1    0    0    0    0 -0.00000000000E+00 -0.00000000000E+00 -0.45593999997E+02  0.45594000000E+02  0.51100000000E-03 0. -1.
         23    2    1    2    0    0 -0.35527136788E-14  0.35527136788E-14  0.35527136788E-14  0.91188000000E+02  0.91188000000E+02 0.  0.
    9900012    2    3    3    0    0 -0.11781282670E+02  0.23626923602E+02  0.25666137580E+02  0.54367071732E+02  0.39999971627E+02 0.  0.
         12    1    3    3    0    0  0.11781282670E+02 -0.23626923602E+02 -0.25666137580E+02  0.36820928268E+02  0.00000000000E+00 0. -1.
         11    1    4    4    0    0 -0.20975754665E+02  0.23266621231E+02  0.11853226444E+02  0.33493535566E+02  0.51100000000E-03 0. -1.
        -11    1    4    4    0    0  0.60675045262E+01 -0.15231199675E+01  0.15601183742E+02  0.16808671572E+02  0.51100000000E-03 0.  1.
         12    1    4    4    0    0  0.31269674689E+01  0.18834223377E+01 -0.17882726054E+01  0.40648645937E+01  0.00000000000E+00 0. -1.
</event>
<event>
 8    1  0.1253703E-006  0.9118800E+02  0.7816164E-02  0.1184000E+00
        -11   -1    0    0    0    0  0.00000000000E+00  0.00000000000E+00  0.45593999997E+02  0.45594000000E+02  0.51100000000E-03 0.  1.
         11   -1    0    0    0    0 -0.00000000000E+00 -0.00000000000E+00 -0.45593999997E+02  0.45594000000E+02  0.51100000000E-03 0. -1.
         23    2    1    2    0    0  0.17763568394E-14  0.00000000000E+00 -0.71054273576E-14  0.91188000000E+02  0.91188000000E+02 0.  0.
    9900012    2    3    3    0    0  0.74035015459E+01  0.22653365511E+02 -0.28067651250E+02  0.54367084058E+02  0.39999999726E+02 0.  0.
        -12    1    3    3    0    0 -0.74035015459E+01 -0.22653365511E+02  0.28067651250E+02  0.36820915942E+02  0.00000000000E+00 0.  1.
         11    1    4    4    0    0  0.19760516327E+01  0.34451620647E+01 -0.55479463314E+01  0.68230220917E+01  0.51100000000E-03 0. -1.
        -11    1    4    4    0    0  0.99229984244E+01 -0.81190038193E+01 -0.13000662861E+02  0.18259281361E+02  0.51100000000E-03 0.  1.
         12    1    4    4    0    0 -0.44955485112E+01  0.27327207266E+02 -0.95190420582E+01  0.29284780605E+02  0.00000000000E+00 0. -1.
</event>
<event>
 8    1  0.1253703E-006  0.9118800E+02  0.7816164E-02  0.1184000E+00
        -11   -1    0    0    0    0  0.00000000000E+00  0.00000000000E+00  0.45593999997E+02  0.45594000000E+02  0.51100000000E-03 0.  1.
         11   -1    0    0    0    0 -0.00000000000E+00 -0.00000000000E+00 -0.45593999997E+02  0.45594000000E+02  0.51100000000E-03 0. -1.
         23    2    1    2    0    0  0.00000000000E+00  0.00000000000E+00  0.71054273576E-14  0.91188000000E+02  0.91188000000E+02 0.  0.
    9900012    2    3    3    0    0  0.17513841834E+02 -0.12012314999E+02 -0.30079060108E+02  0.54367078985E+02  0.39999988162E+02 0.  0.
        -12    1    3    3    0    0 -0.17513841834E+02  0.12012314999E+02  0.30079060108E+02  0.36820921015E+02  0.00000000000E+00 0.  1.
         11    1    4    4    0    0  0.37686145013E+01 -0.62031205222E+01 -0.50430314414E+01  0.88381743507E+01  0.51100000000E-03 0. -1.
        -11    1    4    4    0    0 -0.99921771992E+01 -0.85721134311E+01 -0.41875222862E+01  0.13815211798E+02  0.51100000000E-03 0.  1.
        -12    1    4    4    0    0  0.23737404532E+02  0.27629189539E+01 -0.20848506380E+02  0.31713692837E+02  0.00000000000E+00 0.  1.
</event>
<event>
 8    1  0.1253703E-006  0.9118800E+02  0.7816164E-02  0.1184000E+00
        -11   -1    0    0    0    0  0.00000000000E+00  0.00000000000E+00  0.45593999997E+02  0.45594000000E+02  0.51100000000E-03 0.  1.
         11   -1    0    0    0    0 -0.00000000000E+00 -0.00000000000E+00 -0.45593999997E+02  0.45594000000E+02  0.51100000000E-03 0. -1.
         23    2    1    2    0    0  0.00000000000E+00  0.00000000000E+00  0.00000000000E+00  0.91188000000E+02  0.91188000000E+02 0.  0.
    9900012    2    3    3    0    0 -0.17975408748E+02  0.18800305047E+02 -0.26061715950E+02  0.54367084371E+02  0.40000000439E+02 0.  0.
        -12    1    3    3    0    0  0.17975408748E+02 -0.18800305047E+02  0.26061715950E+02  0.36820915629E+02  0.00000000000E+00 0.  1.
         11    1    4    4    0    0 -0.81494637647E+01  0.55829681373E+00 -0.29635894070E+02  0.30741042152E+02  0.51100000000E-03 0. -1.
        -11    1    4    4    0    0 -0.80250614839E+01  0.14254776580E+02 -0.20654315707E+01  0.16488367870E+02  0.51100000000E-03 0.  1.
        -12    1    4    4    0    0 -0.18008834999E+01  0.39872316534E+01  0.56396096913E+01  0.71376743488E+01  0.00000000000E+00 0.  1.
</event>
<event>
 8    1  0.1253703E-006  0.9118800E+02  0.7816164E-02  0.1184000E+00
        -11   -1    0    0    0    0  0.00000000000E+00  0.00000000000E+00  0.45593999997E+02  0.45594000000E+02  0.51100000000E-03 0. -1.
         11   -1    0    0    0    0 -0.00000000000E+00 -0.00000000000E+00 -0.45593999997E+02  0.45594000000E+02  0.51100000000E-03 0.  1.
         23    2    1    2    0    0  0.00000000000E+00 -0.17763568394E-14  0.00000000000E+00  0.91188000000E+02  0.91188000000E+02 0.  0.
    9900012    2    3    3    0    0 -0.11620845877E+01 -0.14645557495E+02 -0.33762993045E+02  0.54367048162E+02  0.39999917894E+02 0.  0.
         12    1    3    3    0    0  0.11620845877E+01  0.14645557495E+02  0.33762993045E+02  0.36820951838E+02  0.00000000000E+00 0. -1.
         11    1    4    4    0    0  0.97305501441E+01 -0.25605162047E+01 -0.11256506662E+02  0.15097973104E+02  0.51100000000E-03 0. -1.
        -11    1    4    4    0    0 -0.10280139122E+02 -0.13029447437E+02 -0.28603110600E+02  0.33069407269E+02  0.51100000000E-03 0.  1.
         12    1    4    4    0    0 -0.61249560964E+00  0.94440614659E+00  0.60966242174E+01  0.61996677886E+01  0.00000000000E+00 0. -1.
</event>
<event>
 8    1  0.1253703E-006  0.9118800E+02  0.7816164E-02  0.1184000E+00
        -11   -1    0    0    0    0  0.00000000000E+00  0.00000000000E+00  0.45593999997E+02  0.45594000000E+02  0.51100000000E-03 0. -1.
         11   -1    0    0    0    0 -0.00000000000E+00 -0.00000000000E+00 -0.45593999997E+02  0.45594000000E+02  0.51100000000E-03 0.  1.
         23    2    1    2    0    0 -0.17763568394E-14  0.00000000000E+00  0.00000000000E+00  0.91188000000E+02  0.91188000000E+02 0.  0.
    9900012    2    3    3    0    0  0.88147619639E+01 -0.31438676733E+02 -0.17020269441E+02  0.54367082099E+02  0.39999995262E+02 0.  0.
         12    1    3    3    0    0 -0.88147619639E+01  0.31438676733E+02  0.17020269441E+02  0.36820917901E+02  0.00000000000E+00 0. -1.
         11    1    4    4    0    0 -0.45083179480E+01 -0.10324747710E+02  0.69512033217E+01  0.13237997351E+02  0.51100000000E-03 0. -1.
        -11    1    4    4    0    0 -0.20608054546E+00 -0.11490990316E+02  0.56128623057E+00  0.11506535974E+02  0.51100000000E-03 0.  1.
        -12    1    4    4    0    0  0.13529160457E+02 -0.96229387074E+01 -0.24532758993E+02  0.29622548774E+02  0.00000000000E+00 0.  1.
</event>
<event>
 8    1  0.1253703E-006  0.9118800E+02  0.7816164E-02  0.1184000E+00
        -11   -1    0    0    0    0  0.00000000000E+00  0.00000000000E+00  0.45593999997E+02  0.45594000000E+02  0.51100000000E-03 0.  1.
         11   -1    0    0    0    0 -0.00000000000E+00 -0.00000000000E+00 -0.45593999997E+02  0.45594000000E+02  0.51100000000E-03 0. -1.
         23    2    1    2    0    0  0.00000000000E+00  0.00000000000E+00 -0.35527136788E-14  0.91188000000E+02  0.91188000000E+02 0.  0.
    9900012    2    3    3    0    0 -0.95608640841E+01 -0.21667738992E+02 -0.28193589315E+02  0.54367088638E+02  0.40000010168E+02 0.  0.
        -12    1    3    3    0    0  0.95608640841E+01  0.21667738992E+02  0.28193589315E+02  0.36820911362E+02  0.00000000000E+00 0.  1.
         11    1    4    4    0    0  0.27883749224E+01  0.68162149158E+01 -0.15058970341E+02  0.16763305416E+02  0.51100000000E-03 0. -1.
        -11    1    4    4    0    0 -0.12286582948E+01 -0.29501616747E+01  0.38340143338E+01  0.49912644976E+01  0.51100000000E-03 0.  1.
         12    1    4    4    0    0 -0.11120580712E+02 -0.25533792233E+02 -0.16968633308E+02  0.32612518724E+02  0.00000000000E+00 0. -1.
</event>
<event>
 8    1  0.1253703E-006  0.9118800E+02  0.7816164E-02  0.1184000E+00
        -11   -1    0    0    0    0  0.00000000000E+00  0.00000000000E+00  0.45593999997E+02  0.45594000000E+02  0.51100000000E-03 0.  1.
         11   -1    0    0    0    0 -0.00000000000E+00 -0.00000000000E+00 -0.45593999997E+02  0.45594000000E+02  0.51100000000E-03 0. -1.
         23    2    1    2    0    0 -0.35527136788E-14  0.35527136788E-14 -0.35527136788E-14  0.91188000000E+02  0.91188000000E+02 0.  0.
    9900012    2    3    3    0    0 -0.19942528577E+02  0.17247120489E+02 -0.25702377259E+02  0.54367084640E+02  0.40000001053E+02 0.  0.
        -12    1    3    3    0    0  0.19942528577E+02 -0.17247120489E+02  0.25702377259E+02  0.36820915360E+02  0.00000000000E+00 0.  1.
         11    1    4    4    0    0 -0.12016151325E+02  0.12200175206E+02 -0.27748293123E+02  0.32606746836E+02  0.51100000000E-03 0. -1.
        -11    1    4    4    0    0 -0.18647966627E+01  0.90333825979E+01 -0.59400105981E+01  0.10971016084E+02  0.51100000000E-03 0.  1.
        -12    1    4    4    0    0 -0.60615805889E+01 -0.39864373144E+01  0.79859264623E+01  0.10789321719E+02  0.00000000000E+00 0.  1.
</event>
<event>
 8    1  0.1253703E-006  0.9118800E+02  0.7816164E-02  0.1184000E+00
        -11   -1    0    0    0    0  0.00000000000E+00  0.00000000000E+00  0.45593999997E+02  0.45594000000E+02  0.51100000000E-03 0. -1.
         11   -1    0    0    0    0 -0.00000000000E+00 -0.00000000000E+00 -0.45593999997E+02  0.45594000000E+02  0.51100000000E-03 0.  1.
         23    2    1    2    0    0  0.00000000000E+00  0.00000000000E+00  0.00000000000E+00  0.91188000000E+02  0.91188000000E+02 0.  0.
    9900012    2    3    3    0    0  0.33511405304E+02  0.40998416155E+01  0.14695495882E+02  0.54367074075E+02  0.39999976969E+02 0.  0.
         12    1    3    3    0    0 -0.33511405304E+02 -0.40998416155E+01 -0.14695495882E+02  0.36820925925E+02  0.00000000000E+00 0. -1.
         11    1    4    4    0    0 -0.44750195084E+01 -0.45967437811E+01 -0.21145109731E+01  0.67547768214E+01  0.51100000000E-03 0. -1.
        -11    1    4    4    0    0  0.24215631858E+02  0.16329541434E+01  0.20422271072E+02  0.31719592077E+02  0.51100000000E-03 0.  1.
        -12    1    4    4    0    0  0.13770792954E+02  0.70636312532E+01 -0.36122642163E+01  0.15892705177E+02  0.00000000000E+00 0.  1.
</event>
<event>
 8    1  0.1253703E-006  0.9118800E+02  0.7816164E-02  0.1184000E+00
        -11   -1    0    0    0    0  0.00000000000E+00  0.00000000000E+00  0.45593999997E+02  0.45594000000E+02  0.51100000000E-03 0.  1.
         11   -1    0    0    0    0 -0.00000000000E+00 -0.00000000000E+00 -0.45593999997E+02  0.45594000000E+02  0.51100000000E-03 0. -1.
         23    2    1    2    0    0  0.00000000000E+00  0.00000000000E+00  0.00000000000E+00  0.91188000000E+02  0.91188000000E+02 0.  0.
    9900012    2    3    3    0    0 -0.34925930169E+02  0.10093784404E+02  0.58373703361E+01  0.54367082382E+02  0.39999995906E+02 0.  0.
         12    1    3    3    0    0  0.34925930169E+02 -0.10093784404E+02 -0.58373703361E+01  0.36820917618E+02  0.00000000000E+00 0. -1.
         11    1    4    4    0    0  0.75455524232E+01  0.54582041984E+00  0.23613346436E+01  0.79252244676E+01  0.51100000000E-03 0. -1.
        -11    1    4    4    0    0 -0.21323081482E+01 -0.33083663478E+01 -0.22259465189E+00  0.39422803770E+01  0.51100000000E-03 0.  1.
        -12    1    4    4    0    0 -0.40339174444E+02  0.12856330332E+02  0.36986303444E+01  0.42499577538E+02  0.00000000000E+00 0.  1.
</event>
<event>
 8    1  0.1253703E-006  0.9118800E+02  0.7816164E-02  0.1184000E+00
        -11   -1    0    0    0    0  0.00000000000E+00  0.00000000000E+00  0.45593999997E+02  0.45594000000E+02  0.51100000000E-03 0.  1.
         11   -1    0    0    0    0 -0.00000000000E+00 -0.00000000000E+00 -0.45593999997E+02  0.45594000000E+02  0.51100000000E-03 0. -1.
         23    2    1    2    0    0  0.00000000000E+00  0.00000000000E+00  0.00000000000E+00  0.91188000000E+02  0.91188000000E+02 0.  0.
    9900012    2    3    3    0    0  0.46014455731E+01  0.13912576730E+02  0.33779383527E+02  0.54367084149E+02  0.39999999934E+02 0.  0.
         12    1    3    3    0    0 -0.46014455731E+01 -0.13912576730E+02 -0.33779383527E+02  0.36820915851E+02  0.00000000000E+00 0. -1.
         11    1    4    4    0    0  0.57354275298E+01  0.13511017817E+02  0.24544184852E+01  0.14881764067E+02  0.51100000000E-03 0. -1.
        -11    1    4    4    0    0  0.50014430161E+01 -0.63357690404E+01  0.13856866440E+01  0.81900262095E+01  0.51100000000E-03 0.  1.
        -12    1    4    4    0    0 -0.61354249728E+01  0.67373279539E+01  0.29939278398E+02  0.31295293872E+02  0.00000000000E+00 0.  1.
</event>
<event>
 8    1  0.1253703E-006  0.9118800E+02  0.7816164E-02  0.1184000E+00
        -11   -1    0    0    0    0  0.00000000000E+00  0.00000000000E+00  0.45593999997E+02  0.45594000000E+02  0.51100000000E-03 0.  1.
         11   -1    0    0    0    0 -0.00000000000E+00 -0.00000000000E+00 -0.45593999997E+02  0.45594000000E+02  0.51100000000E-03 0. -1.
         23    2    1    2    0    0  0.35527136788E-14  0.00000000000E+00 -0.71054273576E-14  0.91188000000E+02  0.91188000000E+02 0.  0.
    9900012    2    3    3    0    0  0.20587650437E+02  0.22653379753E+02 -0.20463466561E+02  0.54367076214E+02  0.39999981845E+02 0.  0.
        -12    1    3    3    0    0 -0.20587650437E+02 -0.22653379753E+02  0.20463466561E+02  0.36820923786E+02  0.00000000000E+00 0.  1.
         11    1    4    4    0    0 -0.39238654492E+01  0.61868026713E+01  0.40728799727E+01  0.83822192104E+01  0.51100000000E-03 0. -1.
        -11    1    4    4    0    0  0.89600759694E+01  0.37852108317E+01  0.44774676675E+01  0.10707870908E+02  0.51100000000E-03 0.  1.
         12    1    4    4    0    0  0.15551439917E+02  0.12681366250E+02 -0.29013814201E+02  0.35276986095E+02  0.00000000000E+00 0. -1.
</event>
<event>
 8    1  0.1253703E-006  0.9118800E+02  0.7816164E-02  0.1184000E+00
        -11   -1    0    0    0    0  0.00000000000E+00  0.00000000000E+00  0.45593999997E+02  0.45594000000E+02  0.51100000000E-03 0. -1.
         11   -1    0    0    0    0 -0.00000000000E+00 -0.00000000000E+00 -0.45593999997E+02  0.45594000000E+02  0.51100000000E-03 0.  1.
         23    2    1    2    0    0  0.17763568394E-14 -0.35527136788E-14  0.35527136788E-14  0.91188000000E+02  0.91188000000E+02 0.  0.
    9900012    2    3    3    0    0 -0.10290077161E+02  0.23507761957E+02 -0.26406050168E+02  0.54367081411E+02  0.39999993693E+02 0.  0.
         12    1    3    3    0    0  0.10290077161E+02 -0.23507761957E+02  0.26406050168E+02  0.36820918589E+02  0.00000000000E+00 0. -1.
         11    1    4    4    0    0 -0.60727003332E+01 -0.46512314585E+01 -0.12286464903E+02  0.14473039194E+02  0.51100000000E-03 0. -1.
        -11    1    4    4    0    0  0.47903312303E+01  0.27688033613E+02 -0.89124317095E+01  0.29478906321E+02  0.51100000000E-03 0.  1.
        -12    1    4    4    0    0 -0.90077080581E+01  0.47095980318E+00 -0.52071535555E+01  0.10415135897E+02  0.00000000000E+00 0.  1.
</event>
<event>
 8    1  0.1253703E-006  0.9118800E+02  0.7816164E-02  0.1184000E+00
        -11   -1    0    0    0    0  0.00000000000E+00  0.00000000000E+00  0.45593999997E+02  0.45594000000E+02  0.51100000000E-03 0.  1.
         11   -1    0    0    0    0 -0.00000000000E+00 -0.00000000000E+00 -0.45593999997E+02  0.45594000000E+02  0.51100000000E-03 0. -1.
         23    2    1    2    0    0  0.00000000000E+00 -0.44408920985E-15 -0.35527136788E-14  0.91188000000E+02  0.91188000000E+02 0.  0.
    9900012    2    3    3    0    0 -0.32936047828E+02  0.10419436397E+01  0.16428977917E+02  0.54367079201E+02  0.39999988655E+02 0.  0.
         12    1    3    3    0    0  0.32936047828E+02 -0.10419436397E+01 -0.16428977917E+02  0.36820920799E+02  0.00000000000E+00 0. -1.
         11    1    4    4    0    0 -0.10022429893E+02  0.44997213766E+01  0.15470800157E+02  0.18974779345E+02  0.51100000000E-03 0. -1.
        -11    1    4    4    0    0 -0.16144894196E+02 -0.14971996848E+02  0.86567123703E+00  0.22035600404E+02  0.51100000000E-03 0.  1.
        -12    1    4    4    0    0 -0.67687237388E+01  0.11514219111E+02  0.92506522623E-01  0.13356699452E+02  0.00000000000E+00 0.  1.
</event>
<event>
 8    1  0.1253703E-006  0.9118800E+02  0.7816164E-02  0.1184000E+00
        -11   -1    0    0    0    0  0.00000000000E+00  0.00000000000E+00  0.45593999997E+02  0.45594000000E+02  0.51100000000E-03 0.  1.
         11   -1    0    0    0    0 -0.00000000000E+00 -0.00000000000E+00 -0.45593999997E+02  0.45594000000E+02  0.51100000000E-03 0. -1.
         23    2    1    2    0    0  0.00000000000E+00  0.00000000000E+00  0.00000000000E+00  0.91188000000E+02  0.91188000000E+02 0.  0.
    9900012    2    3    3    0    0  0.24925636017E+02 -0.23855734406E+02 -0.12860677676E+02  0.54367076259E+02  0.39999981947E+02 0.  0.
         12    1    3    3    0    0 -0.24925636017E+02  0.23855734406E+02  0.12860677676E+02  0.36820923741E+02  0.00000000000E+00 0. -1.
         11    1    4    4    0    0  0.15150925557E+02 -0.13720961256E+02  0.62114337497E+01  0.21363455538E+02  0.51100000000E-03 0. -1.
        -11    1    4    4    0    0  0.12947471866E+02 -0.33720066762E+01 -0.96261892169E+00  0.13413951401E+02  0.51100000000E-03 0.  1.
         12    1    4    4    0    0 -0.31727614066E+01 -0.67627664735E+01 -0.18109492504E+02  0.19589669320E+02  0.00000000000E+00 0. -1.
</event>
<event>
 8    1  0.1253703E-006  0.9118800E+02  0.7816164E-02  0.1184000E+00
        -11   -1    0    0    0    0  0.00000000000E+00  0.00000000000E+00  0.45593999997E+02  0.45594000000E+02  0.51100000000E-03 0.  1.
         11   -1    0    0    0    0 -0.00000000000E+00 -0.00000000000E+00 -0.45593999997E+02  0.45594000000E+02  0.51100000000E-03 0. -1.
         23    2    1    2    0    0 -0.35527136788E-14  0.88817841970E-15  0.00000000000E+00  0.91188000000E+02  0.91188000000E+02 0.  0.
    9900012    2    3    3    0    0 -0.24936767042E+02  0.62511738640E+01  0.26360297984E+02  0.54367016376E+02  0.39999845433E+02 0.  0.
         12    1    3    3    0    0  0.24936767042E+02 -0.62511738640E+01 -0.26360297984E+02  0.36820983624E+02  0.00000000000E+00 0. -1.
         11    1    4    4    0    0 -0.22903225502E+01  0.45014250285E+00 -0.72662699859E+01  0.76319647159E+01  0.51100000000E-03 0. -1.
        -11    1    4    4    0    0 -0.17172172341E+02  0.13823885928E+02  0.18603066715E+02  0.28845405466E+02  0.51100000000E-03 0.  1.
        -12    1    4    4    0    0 -0.54742721511E+01 -0.80228545666E+01  0.15023501256E+02  0.17889646194E+02  0.00000000000E+00 0.  1.
</event>
<event>
 8    1  0.1253703E-006  0.9118800E+02  0.7816164E-02  0.1184000E+00
        -11   -1    0    0    0    0  0.00000000000E+00  0.00000000000E+00  0.45593999997E+02  0.45594000000E+02  0.51100000000E-03 0.  1.
         11   -1    0    0    0    0 -0.00000000000E+00 -0.00000000000E+00 -0.45593999997E+02  0.45594000000E+02  0.51100000000E-03 0. -1.
         23    2    1    2    0    0 -0.99920072216E-15  0.00000000000E+00 -0.35527136788E-14  0.91188000000E+02  0.91188000000E+02 0.  0.
    9900012    2    3    3    0    0 -0.59364927318E+00  0.31267179326E+02 -0.19436819588E+02  0.54367097266E+02  0.40000029837E+02 0.  0.
         12    1    3    3    0    0  0.59364927318E+00 -0.31267179326E+02  0.19436819588E+02  0.36820902734E+02  0.00000000000E+00 0. -1.
         11    1    4    4    0    0  0.40774941839E+01 -0.23764532132E+01 -0.74279991165E+01  0.88004920220E+01  0.51100000000E-03 0. -1.
        -11    1    4    4    0    0  0.63646189554E+01  0.24712486042E+02 -0.16834996848E+02  0.30571759190E+02  0.51100000000E-03 0.  1.
        -12    1    4    4    0    0 -0.11035762412E+02  0.89311464969E+01  0.48261763763E+01  0.14994846054E+02  0.00000000000E+00 0.  1.
</event>
<event>
 8    1  0.1253703E-006  0.9118800E+02  0.7816164E-02  0.1184000E+00
        -11   -1    0    0    0    0  0.00000000000E+00  0.00000000000E+00  0.45593999997E+02  0.45594000000E+02  0.51100000000E-03 0. -1.
         11   -1    0    0    0    0 -0.00000000000E+00 -0.00000000000E+00 -0.45593999997E+02  0.45594000000E+02  0.51100000000E-03 0.  1.
         23    2    1    2    0    0  0.00000000000E+00  0.00000000000E+00  0.35527136788E-14  0.91188000000E+02  0.91188000000E+02 0.  0.
    9900012    2    3    3    0    0 -0.10785681692E+02 -0.19370186134E+02  0.29398078974E+02  0.54367053681E+02  0.39999930478E+02 0.  0.
        -12    1    3    3    0    0  0.10785681692E+02  0.19370186134E+02 -0.29398078974E+02  0.36820946319E+02  0.00000000000E+00 0.  1.
         11    1    4    4    0    0  0.32840752555E+00  0.23919568858E+01  0.63409768143E+01  0.67850789580E+01  0.51100000000E-03 0. -1.
        -11    1    4    4    0    0  0.95962141562E+01 -0.14858081491E+02  0.30077480710E+01  0.17941473196E+02  0.51100000000E-03 0.  1.
         12    1    4    4    0    0 -0.20710303374E+02 -0.69040615288E+01  0.20049354089E+02  0.29640501527E+02  0.00000000000E+00 0. -1.
</event>
<event>
 8    1  0.1253703E-006  0.9118800E+02  0.7816164E-02  0.1184000E+00
        -11   -1    0    0    0    0  0.00000000000E+00  0.00000000000E+00  0.45593999997E+02  0.45594000000E+02  0.51100000000E-03 0.  1.
         11   -1    0    0    0    0 -0.00000000000E+00 -0.00000000000E+00 -0.45593999997E+02  0.45594000000E+02  0.51100000000E-03 0. -1.
         23    2    1    2    0    0  0.00000000000E+00 -0.35527136788E-14 -0.88817841970E-15  0.91188000000E+02  0.91188000000E+02 0.  0.
    9900012    2    3    3    0    0 -0.21846528150E+02  0.29151559779E+02 -0.53567071315E+01  0.54367101844E+02  0.40000040273E+02 0.  0.
         12    1    3    3    0    0  0.21846528150E+02 -0.29151559779E+02  0.53567071315E+01  0.36820898156E+02  0.00000000000E+00 0. -1.
         11    1    4    4    0    0 -0.81225322170E+01  0.10677290419E+02 -0.19974588483E+02  0.24061675869E+02  0.51100000000E-03 0. -1.
        -11    1    4    4    0    0 -0.12085364813E+02  0.75666111383E+01  0.35804068281E+01  0.14701325113E+02  0.51100000000E-03 0.  1.
         12    1    4    4    0    0 -0.16386311204E+01  0.10907658222E+02  0.11037474523E+02  0.15604100861E+02  0.00000000000E+00 0. -1.
</event>
<event>
 8    1  0.1253703E-006  0.9118800E+02  0.7816164E-02  0.1184000E+00
        -11   -1    0    0    0    0  0.00000000000E+00  0.00000000000E+00  0.45593999997E+02  0.45594000000E+02  0.51100000000E-03 0.  1.
         11   -1    0    0    0    0 -0.00000000000E+00 -0.00000000000E+00 -0.45593999997E+02  0.45594000000E+02  0.51100000000E-03 0. -1.
         23    2    1    2    0    0  0.00000000000E+00  0.35527136788E-14 -0.35527136788E-14  0.91188000000E+02  0.91188000000E+02 0.  0.
    9900012    2    3    3    0    0  0.24398634949E+02 -0.18913921827E+02 -0.20068635984E+02  0.54367082351E+02  0.39999995836E+02 0.  0.
        -12    1    3    3    0    0 -0.24398634949E+02  0.18913921827E+02  0.20068635984E+02  0.36820917649E+02  0.00000000000E+00 0.  1.
         11    1    4    4    0    0  0.74399200674E+00 -0.39878946346E+01 -0.15470288682E+02  0.15993331732E+02  0.51100000000E-03 0. -1.
        -11    1    4    4    0    0  0.16275402704E+02 -0.21072356945E+02  0.20326126050E+01  0.26703267116E+02  0.51100000000E-03 0.  1.
        -12    1    4    4    0    0  0.73792402381E+01  0.61463297524E+01 -0.66309599073E+01  0.11670483504E+02  0.00000000000E+00 0.  1.
</event>
<event>
 8    1  0.1253703E-006  0.9118800E+02  0.7816164E-02  0.1184000E+00
        -11   -1    0    0    0    0  0.00000000000E+00  0.00000000000E+00  0.45593999997E+02  0.45594000000E+02  0.51100000000E-03 0. -1.
         11   -1    0    0    0    0 -0.00000000000E+00 -0.00000000000E+00 -0.45593999997E+02  0.45594000000E+02  0.51100000000E-03 0.  1.
         23    2    1    2    0    0  0.00000000000E+00  0.35527136788E-14  0.00000000000E+00  0.91188000000E+02  0.91188000000E+02 0.  0.
    9900012    2    3    3    0    0  0.13309969627E+02 -0.18846054732E+02  0.28695698686E+02  0.54367188039E+02  0.40000236771E+02 0.  0.
        -12    1    3    3    0    0 -0.13309969627E+02  0.18846054732E+02 -0.28695698686E+02  0.36820811961E+02  0.00000000000E+00 0.  1.
         11    1    4    4    0    0 -0.24740672837E+01  0.28671565655E+01  0.40052631170E+01  0.55121437384E+01  0.51100000000E-03 0.  1.
        -11    1    4    4    0    0  0.90487882483E+01  0.71848267500E+01  0.11763724830E+02  0.16489012291E+02  0.51100000000E-03 0. -1.
         12    1    4    4    0    0  0.67352486619E+01 -0.28898038047E+02  0.12926710739E+02  0.32366032010E+02  0.00000000000E+00 0. -1.
</event>
<event>
 8    1  0.1253703E-006  0.9118800E+02  0.7816164E-02  0.1184000E+00
        -11   -1    0    0    0    0  0.00000000000E+00  0.00000000000E+00  0.45593999997E+02  0.45594000000E+02  0.51100000000E-03 0. -1.
         11   -1    0    0    0    0 -0.00000000000E+00 -0.00000000000E+00 -0.45593999997E+02  0.45594000000E+02  0.51100000000E-03 0.  1.
         23    2    1    2    0    0 -0.17763568394E-14 -0.35527136788E-14  0.35527136788E-14  0.91188000000E+02  0.91188000000E+02 0.  0.
    9900012    2    3    3    0    0 -0.97463879045E+01 -0.30096610848E+02  0.18840988243E+02  0.54367069815E+02  0.39999967256E+02 0.  0.
        -12    1    3    3    0    0  0.97463879045E+01  0.30096610848E+02 -0.18840988243E+02  0.36820930185E+02  0.00000000000E+00 0.  1.
         11    1    4    4    0    0 -0.79117647832E+01 -0.29075775325E+02  0.75461199633E+01  0.31063494001E+02  0.51100000000E-03 0. -1.
        -11    1    4    4    0    0  0.36724938770E+01 -0.44087863802E+01 -0.38000030780E+01  0.68821967624E+01  0.51100000000E-03 0.  1.
         12    1    4    4    0    0 -0.55071169983E+01  0.33879508574E+01  0.15094871358E+02  0.16421379052E+02  0.00000000000E+00 0. -1.
</event>
<event>
 8    1  0.1253703E-006  0.9118800E+02  0.7816164E-02  0.1184000E+00
        -11   -1    0    0    0    0  0.00000000000E+00  0.00000000000E+00  0.45593999997E+02  0.45594000000E+02  0.51100000000E-03 0. -1.
         11   -1    0    0    0    0 -0.00000000000E+00 -0.00000000000E+00 -0.45593999997E+02  0.45594000000E+02  0.51100000000E-03 0.  1.
         23    2    1    2    0    0  0.00000000000E+00 -0.33306690739E-15 -0.44408920985E-15  0.91188000000E+02  0.91188000000E+02 0.  0.
    9900012    2    3    3    0    0 -0.36808108324E+02  0.70732803968E+00 -0.66710956813E+00  0.54367052341E+02  0.39999927421E+02 0.  0.
         12    1    3    3    0    0  0.36808108324E+02 -0.70732803968E+00  0.66710956813E+00  0.36820947659E+02  0.00000000000E+00 0. -1.
         11    1    4    4    0    0 -0.19751539295E+02 -0.14645162802E+02 -0.12186005550E+02  0.27442719062E+02  0.51100000000E-03 0. -1.
        -11    1    4    4    0    0 -0.11130932876E+02  0.81865287196E+01  0.26394945889E+01  0.14067119503E+02  0.51100000000E-03 0.  1.
         12    1    4    4    0    0 -0.59256361539E+01  0.71659621224E+01  0.88794013929E+01  0.12857213775E+02  0.00000000000E+00 0. -1.
</event>
<event>
 8    1  0.1253703E-006  0.9118800E+02  0.7816164E-02  0.1184000E+00
        -11   -1    0    0    0    0  0.00000000000E+00  0.00000000000E+00  0.45593999997E+02  0.45594000000E+02  0.51100000000E-03 0.  1.
         11   -1    0    0    0    0 -0.00000000000E+00 -0.00000000000E+00 -0.45593999997E+02  0.45594000000E+02  0.51100000000E-03 0. -1.
         23    2    1    2    0    0  0.00000000000E+00  0.00000000000E+00  0.31086244690E-14  0.91188000000E+02  0.91188000000E+02 0.  0.
    9900012    2    3    3    0    0 -0.14958182250E+02 -0.33515343391E+02 -0.29588368306E+01  0.54367079666E+02  0.39999989715E+02 0.  0.
        -12    1    3    3    0    0  0.14958182250E+02  0.33515343391E+02  0.29588368306E+01  0.36820920334E+02  0.00000000000E+00 0.  1.
         11    1    4    4    0    0 -0.18062082132E+02 -0.19545368371E+02 -0.18664845049E+02  0.32505948328E+02  0.51100000000E-03 0. -1.
        -11    1    4    4    0    0  0.35933236822E+01 -0.58277516062E+01  0.89580311161E+01  0.11274794260E+02  0.51100000000E-03 0.  1.
         12    1    4    4    0    0 -0.48942380021E+00 -0.81422234132E+01  0.67479771026E+01  0.10586337079E+02  0.00000000000E+00 0. -1.
</event>
<event>
 8    1  0.1253703E-006  0.9118800E+02  0.7816164E-02  0.1184000E+00
        -11   -1    0    0    0    0  0.00000000000E+00  0.00000000000E+00  0.45593999997E+02  0.45594000000E+02  0.51100000000E-03 0.  1.
         11   -1    0    0    0    0 -0.00000000000E+00 -0.00000000000E+00 -0.45593999997E+02  0.45594000000E+02  0.51100000000E-03 0. -1.
         23    2    1    2    0    0 -0.35527136788E-14 -0.35527136788E-14  0.00000000000E+00  0.91188000000E+02  0.91188000000E+02 0.  0.
    9900012    2    3    3    0    0  0.22024326770E+02  0.20031952823E+02 -0.21666328701E+02  0.54367083350E+02  0.39999998112E+02 0.  0.
        -12    1    3    3    0    0 -0.22024326770E+02 -0.20031952823E+02  0.21666328701E+02  0.36820916650E+02  0.00000000000E+00 0.  1.
         11    1    4    4    0    0 -0.23649716460E+01  0.10152639762E+02 -0.91035329909E+01  0.13839924068E+02  0.51100000000E-03 0. -1.
        -11    1    4    4    0    0  0.18433776363E+02  0.48168542729E+01 -0.21451191318E+02  0.28690761672E+02  0.51100000000E-03 0.  1.
        -12    1    4    4    0    0  0.59555220532E+01  0.50624587886E+01  0.88883956078E+01  0.11836397610E+02  0.00000000000E+00 0.  1.
</event>
<event>
 8    1  0.1253703E-006  0.9118800E+02  0.7816164E-02  0.1184000E+00
        -11   -1    0    0    0    0  0.00000000000E+00  0.00000000000E+00  0.45593999997E+02  0.45594000000E+02  0.51100000000E-03 0. -1.
         11   -1    0    0    0    0 -0.00000000000E+00 -0.00000000000E+00 -0.45593999997E+02  0.45594000000E+02  0.51100000000E-03 0.  1.
         23    2    1    2    0    0 -0.35527136788E-14  0.17763568394E-14  0.35527136788E-14  0.91188000000E+02  0.91188000000E+02 0.  0.
    9900012    2    3    3    0    0 -0.25818325359E+02  0.11547248908E+02  0.23576574831E+02  0.54367085258E+02  0.40000002462E+02 0.  0.
        -12    1    3    3    0    0  0.25818325359E+02 -0.11547248908E+02 -0.23576574831E+02  0.36820914742E+02  0.00000000000E+00 0.  1.
         11    1    4    4    0    0 -0.45655216039E+01  0.12092471829E+02  0.68088733639E+00  0.12943549369E+02  0.51100000000E-03 0. -1.
        -11    1    4    4    0    0  0.48958238614E+01  0.56692941032E+01  0.34340244177E+01  0.82402979845E+01  0.51100000000E-03 0.  1.
        -12    1    4    4    0    0 -0.26148627617E+02 -0.62145170241E+01  0.19461663077E+02  0.33183237904E+02  0.00000000000E+00 0.  1.
</event>
<event>
 8    1  0.1253703E-006  0.9118800E+02  0.7816164E-02  0.1184000E+00
        -11   -1    0    0    0    0  0.00000000000E+00  0.00000000000E+00  0.45593999997E+02  0.45594000000E+02  0.51100000000E-03 0. -1.
         11   -1    0    0    0    0 -0.00000000000E+00 -0.00000000000E+00 -0.45593999997E+02  0.45594000000E+02  0.51100000000E-03 0.  1.
         23    2    1    2    0    0 -0.71054273576E-14  0.00000000000E+00  0.00000000000E+00  0.91188000000E+02  0.91188000000E+02 0.  0.
    9900012    2    3    3    0    0  0.28783318070E+02  0.21540370965E+02 -0.79569721864E+01  0.54367076780E+02  0.39999983135E+02 0.  0.
         12    1    3    3    0    0 -0.28783318070E+02 -0.21540370965E+02  0.79569721864E+01  0.36820923220E+02  0.00000000000E+00 0. -1.
         11    1    4    4    0    0 -0.25055407938E+01  0.16366038148E+02 -0.20654926425E+01  0.16685059169E+02  0.51100000000E-03 0. -1.
        -11    1    4    4    0    0  0.47662231246E+01  0.17660534579E+01  0.64654680437E+01  0.82242388690E+01  0.51100000000E-03 0.  1.
        -12    1    4    4    0    0  0.26522635739E+02  0.34082793591E+01 -0.12356947588E+02  0.29457778742E+02  0.00000000000E+00 0.  1.
</event>
<event>
 8    1  0.1253703E-006  0.9118800E+02  0.7816164E-02  0.1184000E+00
        -11   -1    0    0    0    0  0.00000000000E+00  0.00000000000E+00  0.45593999997E+02  0.45594000000E+02  0.51100000000E-03 0.  1.
         11   -1    0    0    0    0 -0.00000000000E+00 -0.00000000000E+00 -0.45593999997E+02  0.45594000000E+02  0.51100000000E-03 0. -1.
         23    2    1    2    0    0  0.00000000000E+00  0.88817841970E-15  0.00000000000E+00  0.91188000000E+02  0.91188000000E+02 0.  0.
    9900012    2    3    3    0    0 -0.14206567839E+02 -0.53162995087E+01 -0.33551317045E+02  0.54367075437E+02  0.39999980074E+02 0.  0.
        -12    1    3    3    0    0  0.14206567839E+02  0.53162995087E+01  0.33551317045E+02  0.36820924563E+02  0.00000000000E+00 0.  1.
         11    1    4    4    0    0  0.17389970285E+01 -0.63431250716E+01 -0.14120725835E+02  0.15577363214E+02  0.51100000000E-03 0. -1.
        -11    1    4    4    0    0  0.79968388261E+00  0.12688046320E+02 -0.44270072302E+01  0.13461961484E+02  0.51100000000E-03 0.  1.
        -12    1    4    4    0    0 -0.16745248750E+02 -0.11661220757E+02 -0.15003583980E+02  0.25327750739E+02  0.00000000000E+00 0.  1.
</event>
<event>
 8    1  0.1253703E-006  0.9118800E+02  0.7816164E-02  0.1184000E+00
        -11   -1    0    0    0    0  0.00000000000E+00  0.00000000000E+00  0.45593999997E+02  0.45594000000E+02  0.51100000000E-03 0.  1.
         11   -1    0    0    0    0 -0.00000000000E+00 -0.00000000000E+00 -0.45593999997E+02  0.45594000000E+02  0.51100000000E-03 0. -1.
         23    2    1    2    0    0  0.35527136788E-14  0.35527136788E-14  0.17763568394E-14  0.91188000000E+02  0.91188000000E+02 0.  0.
    9900012    2    3    3    0    0 -0.30663727539E+02 -0.19941233805E+02 -0.42264991376E+01  0.54367078132E+02  0.39999986218E+02 0.  0.
        -12    1    3    3    0    0  0.30663727539E+02  0.19941233805E+02  0.42264991376E+01  0.36820921868E+02  0.00000000000E+00 0.  1.
         11    1    4    4    0    0 -0.32561219908E+02 -0.12116150677E+02 -0.11469037223E+01  0.34761322436E+02  0.51100000000E-03 0.  1.
        -11    1    4    4    0    0  0.35308595291E+01 -0.10173565905E+02  0.43730826114E+01  0.11622919772E+02  0.51100000000E-03 0. -1.
         12    1    4    4    0    0 -0.16333671602E+01  0.23484827762E+01 -0.74526780267E+01  0.79828359247E+01  0.00000000000E+00 0. -1.
</event>
<event>
 8    1  0.1253703E-006  0.9118800E+02  0.7816164E-02  0.1184000E+00
        -11   -1    0    0    0    0  0.00000000000E+00  0.00000000000E+00  0.45593999997E+02  0.45594000000E+02  0.51100000000E-03 0.  1.
         11   -1    0    0    0    0 -0.00000000000E+00 -0.00000000000E+00 -0.45593999997E+02  0.45594000000E+02  0.51100000000E-03 0. -1.
         23    2    1    2    0    0  0.00000000000E+00  0.35527136788E-14 -0.35527136788E-14  0.91188000000E+02  0.91188000000E+02 0.  0.
    9900012    2    3    3    0    0 -0.23750811331E+02 -0.20012504669E+02  0.19778229977E+02  0.54367085250E+02  0.40000002444E+02 0.  0.
         12    1    3    3    0    0  0.23750811331E+02  0.20012504669E+02 -0.19778229977E+02  0.36820914750E+02  0.00000000000E+00 0. -1.
         11    1    4    4    0    0 -0.10734463098E+02 -0.58914267706E+01  0.12092347870E+02  0.17209372001E+02  0.51100000000E-03 0. -1.
        -11    1    4    4    0    0 -0.17672861137E+02 -0.90601431909E+01  0.16610564973E+02  0.25890675626E+02  0.51100000000E-03 0.  1.
         12    1    4    4    0    0  0.46565129039E+01 -0.50609347077E+01 -0.89246828656E+01  0.11267037623E+02  0.00000000000E+00 0. -1.
</event>
<event>
 8    1  0.1253703E-006  0.9118800E+02  0.7816164E-02  0.1184000E+00
        -11   -1    0    0    0    0  0.00000000000E+00  0.00000000000E+00  0.45593999997E+02  0.45594000000E+02  0.51100000000E-03 0. -1.
         11   -1    0    0    0    0 -0.00000000000E+00 -0.00000000000E+00 -0.45593999997E+02  0.45594000000E+02  0.51100000000E-03 0.  1.
         23    2    1    2    0    0  0.00000000000E+00 -0.88817841970E-15  0.00000000000E+00  0.91188000000E+02  0.91188000000E+02 0.  0.
    9900012    2    3    3    0    0  0.15184751569E+02  0.20583177075E+01 -0.33480811817E+02  0.54367107671E+02  0.40000053557E+02 0.  0.
         12    1    3    3    0    0 -0.15184751569E+02 -0.20583177075E+01  0.33480811817E+02  0.36820892329E+02  0.00000000000E+00 0. -1.
         11    1    4    4    0    0  0.90768814515E+01 -0.36357973576E+01 -0.18866728936E+02  0.21249994360E+02  0.51100000000E-03 0. -1.
        -11    1    4    4    0    0  0.37240957400E+01 -0.58137095951E+01 -0.19275186072E+02  0.20474396369E+02  0.51100000000E-03 0.  1.
         12    1    4    4    0    0  0.23837743779E+01  0.11507824660E+02  0.46611031908E+01  0.12642716941E+02  0.00000000000E+00 0. -1.
</event>
<event>
 8    1  0.1253703E-006  0.9118800E+02  0.7816164E-02  0.1184000E+00
        -11   -1    0    0    0    0  0.00000000000E+00  0.00000000000E+00  0.45593999997E+02  0.45594000000E+02  0.51100000000E-03 0.  1.
         11   -1    0    0    0    0 -0.00000000000E+00 -0.00000000000E+00 -0.45593999997E+02  0.45594000000E+02  0.51100000000E-03 0. -1.
         23    2    1    2    0    0  0.00000000000E+00  0.00000000000E+00  0.00000000000E+00  0.91188000000E+02  0.91188000000E+02 0.  0.
    9900012    2    3    3    0    0 -0.19845670744E+02  0.41640112819E+01  0.30734197462E+02  0.54367074823E+02  0.39999978674E+02 0.  0.
         12    1    3    3    0    0  0.19845670744E+02 -0.41640112819E+01 -0.30734197462E+02  0.36820925177E+02  0.00000000000E+00 0. -1.
         11    1    4    4    0    0  0.69349363726E+00 -0.45790865612E+01  0.24427264618E+02  0.24862425950E+02  0.51100000000E-03 0. -1.
        -11    1    4    4    0    0 -0.83625940868E+01  0.40415394346E+01 -0.64068654850E+01  0.11283392507E+02  0.51100000000E-03 0.  1.
        -12    1    4    4    0    0 -0.12176570294E+02  0.47015584085E+01  0.12713798330E+02  0.18221256366E+02  0.00000000000E+00 0.  1.
</event>
<event>
 8    1  0.1253703E-006  0.9118800E+02  0.7816164E-02  0.1184000E+00
        -11   -1    0    0    0    0  0.00000000000E+00  0.00000000000E+00  0.45593999997E+02  0.45594000000E+02  0.51100000000E-03 0. -1.
         11   -1    0    0    0    0 -0.00000000000E+00 -0.00000000000E+00 -0.45593999997E+02  0.45594000000E+02  0.51100000000E-03 0.  1.
         23    2    1    2    0    0  0.00000000000E+00 -0.17763568394E-14  0.00000000000E+00  0.91188000000E+02  0.91188000000E+02 0.  0.
    9900012    2    3    3    0    0 -0.35853579869E+02  0.61983556022E+01 -0.56463573817E+01  0.54367079950E+02  0.39999990363E+02 0.  0.
         12    1    3    3    0    0  0.35853579869E+02 -0.61983556022E+01  0.56463573817E+01  0.36820920050E+02  0.00000000000E+00 0. -1.
         11    1    4    4    0    0 -0.52242452204E+01  0.96385709726E+01  0.12880609763E+02  0.16914635576E+02  0.51100000000E-03 0. -1.
        -11    1    4    4    0    0 -0.43604675937E+01  0.40644915903E+00  0.10043201534E+01  0.44930543939E+01  0.51100000000E-03 0.  1.
        -12    1    4    4    0    0 -0.26268867055E+02 -0.38466645295E+01 -0.19531287299E+02  0.32959389981E+02  0.00000000000E+00 0.  1.
</event>
<event>
 8    1  0.1253703E-006  0.9118800E+02  0.7816164E-02  0.1184000E+00
        -11   -1    0    0    0    0  0.00000000000E+00  0.00000000000E+00  0.45593999997E+02  0.45594000000E+02  0.51100000000E-03 0. -1.
         11   -1    0    0    0    0 -0.00000000000E+00 -0.00000000000E+00 -0.45593999997E+02  0.45594000000E+02  0.51100000000E-03 0.  1.
         23    2    1    2    0    0  0.00000000000E+00  0.00000000000E+00  0.00000000000E+00  0.91188000000E+02  0.91188000000E+02 0.  0.
    9900012    2    3    3    0    0  0.19622889150E+02 -0.85957167938E+01  0.29947236522E+02  0.54367067080E+02  0.39999961023E+02 0.  0.
        -12    1    3    3    0    0 -0.19622889150E+02  0.85957167938E+01 -0.29947236522E+02  0.36820932920E+02  0.00000000000E+00 0.  1.
         11    1    4    4    0    0  0.99304880549E+01 -0.73065736238E+01  0.65123804551E+01  0.13943159993E+02  0.51100000000E-03 0. -1.
        -11    1    4    4    0    0 -0.33187343095E+01 -0.24260023763E+01 -0.65414191071E+01  0.77259076582E+01  0.51100000000E-03 0.  1.
        -12    1    4    4    0    0  0.13011135404E+02  0.11368592063E+01  0.29976275174E+02  0.32697999429E+02  0.00000000000E+00 0.  1.
</event>
<event>
 8    1  0.1253703E-006  0.9118800E+02  0.7816164E-02  0.1184000E+00
        -11   -1    0    0    0    0  0.00000000000E+00  0.00000000000E+00  0.45593999997E+02  0.45594000000E+02  0.51100000000E-03 0.  1.
         11   -1    0    0    0    0 -0.00000000000E+00 -0.00000000000E+00 -0.45593999997E+02  0.45594000000E+02  0.51100000000E-03 0. -1.
         23    2    1    2    0    0 -0.35527136788E-14  0.17763568394E-14  0.00000000000E+00  0.91188000000E+02  0.91188000000E+02 0.  0.
    9900012    2    3    3    0    0  0.24097678462E+02 -0.11200986394E+02  0.25487633029E+02  0.54367086909E+02  0.40000006226E+02 0.  0.
         12    1    3    3    0    0 -0.24097678462E+02  0.11200986394E+02 -0.25487633029E+02  0.36820913091E+02  0.00000000000E+00 0. -1.
         11    1    4    4    0    0  0.16033042543E+02 -0.11788909981E+02  0.27112047715E+01  0.20084508540E+02  0.51100000000E-03 0.  1.
        -11    1    4    4    0    0 -0.57577629021E+01 -0.76048390168E+01  0.78983260395E+01  0.12384222406E+02  0.51100000000E-03 0. -1.
         12    1    4    4    0    0  0.13822398822E+02  0.81927626044E+01  0.14878102218E+02  0.21898355963E+02  0.00000000000E+00 0. -1.
</event>
<event>
 8    1  0.1253703E-006  0.9118800E+02  0.7816164E-02  0.1184000E+00
        -11   -1    0    0    0    0  0.00000000000E+00  0.00000000000E+00  0.45593999997E+02  0.45594000000E+02  0.51100000000E-03 0. -1.
         11   -1    0    0    0    0 -0.00000000000E+00 -0.00000000000E+00 -0.45593999997E+02  0.45594000000E+02  0.51100000000E-03 0.  1.
         23    2    1    2    0    0 -0.35527136788E-14 -0.35527136788E-14  0.00000000000E+00  0.91188000000E+02  0.91188000000E+02 0.  0.
    9900012    2    3    3    0    0  0.20571801941E+02 -0.29956843588E+02 -0.59303048618E+01  0.54367081643E+02  0.39999994222E+02 0.  0.
        -12    1    3    3    0    0 -0.20571801941E+02  0.29956843588E+02  0.59303048618E+01  0.36820918357E+02  0.00000000000E+00 0.  1.
         11    1    4    4    0    0  0.18947803485E+02 -0.24278290225E+02 -0.57104759701E+00  0.30802284473E+02  0.51100000000E-03 0. -1.
        -11    1    4    4    0    0  0.11789437099E+02 -0.21826239815E+01 -0.44026252535E+01  0.12772540231E+02  0.51100000000E-03 0.  1.
        -12    1    4    4    0    0 -0.10165438643E+02 -0.34959293823E+01 -0.95663201125E+00  0.10792256940E+02  0.00000000000E+00 0.  1.
</event>
<event>
 8    1  0.1253703E-006  0.9118800E+02  0.7816164E-02  0.1184000E+00
        -11   -1    0    0    0    0  0.00000000000E+00  0.00000000000E+00  0.45593999997E+02  0.45594000000E+02  0.51100000000E-03 0.  1.
         11   -1    0    0    0    0 -0.00000000000E+00 -0.00000000000E+00 -0.45593999997E+02  0.45594000000E+02  0.51100000000E-03 0. -1.
         23    2    1    2    0    0  0.00000000000E+00 -0.88817841970E-15  0.00000000000E+00  0.91188000000E+02  0.91188000000E+02 0.  0.
    9900012    2    3    3    0    0 -0.88235961654E+01 -0.15758635515E+01  0.35713301992E+02  0.54367093787E+02  0.40000021906E+02 0.  0.
         12    1    3    3    0    0  0.88235961654E+01  0.15758635515E+01 -0.35713301992E+02  0.36820906213E+02  0.00000000000E+00 0. -1.
         11    1    4    4    0    0  0.97241422818E-01 -0.10673624859E+02  0.19726741973E+01  0.10854822305E+02  0.51100000000E-03 0. -1.
        -11    1    4    4    0    0 -0.17207290453E+02  0.83347358888E+01  0.24489067489E+02  0.31068844424E+02  0.51100000000E-03 0.  1.
        -12    1    4    4    0    0  0.82864528651E+01  0.76302541834E+00  0.92515603053E+01  0.12443427058E+02  0.00000000000E+00 0.  1.
</event>
<event>
 8    1  0.1253703E-006  0.9118800E+02  0.7816164E-02  0.1184000E+00
        -11   -1    0    0    0    0  0.00000000000E+00  0.00000000000E+00  0.45593999997E+02  0.45594000000E+02  0.51100000000E-03 0. -1.
         11   -1    0    0    0    0 -0.00000000000E+00 -0.00000000000E+00 -0.45593999997E+02  0.45594000000E+02  0.51100000000E-03 0.  1.
         23    2    1    2    0    0  0.00000000000E+00  0.00000000000E+00  0.00000000000E+00  0.91188000000E+02  0.91188000000E+02 0.  0.
    9900012    2    3    3    0    0 -0.17762388383E+02 -0.18908208191E+02 -0.26129625663E+02  0.54367080466E+02  0.39999991538E+02 0.  0.
         12    1    3    3    0    0  0.17762388383E+02  0.18908208191E+02  0.26129625663E+02  0.36820919534E+02  0.00000000000E+00 0. -1.
         11    1    4    4    0    0 -0.37743567324E+01 -0.15987333624E+02 -0.17154522492E+02  0.23751173599E+02  0.51100000000E-03 0. -1.
        -11    1    4    4    0    0 -0.11747151235E+02 -0.54790941745E+01 -0.17303402460E+02  0.21619985478E+02  0.51100000000E-03 0.  1.
        -12    1    4    4    0    0 -0.22408804151E+01  0.25582196070E+01  0.83282992890E+01  0.89959213892E+01  0.00000000000E+00 0.  1.
</event>
<event>
 8    1  0.1253703E-006  0.9118800E+02  0.7816164E-02  0.1184000E+00
        -11   -1    0    0    0    0  0.00000000000E+00  0.00000000000E+00  0.45593999997E+02  0.45594000000E+02  0.51100000000E-03 0.  1.
         11   -1    0    0    0    0 -0.00000000000E+00 -0.00000000000E+00 -0.45593999997E+02  0.45594000000E+02  0.51100000000E-03 0. -1.
         23    2    1    2    0    0 -0.35527136788E-14 -0.71054273576E-14  0.00000000000E+00  0.91188000000E+02  0.91188000000E+02 0.  0.
    9900012    2    3    3    0    0 -0.21748817342E+02 -0.24591907209E+02  0.16673517004E+02  0.54367093911E+02  0.40000022188E+02 0.  0.
         12    1    3    3    0    0  0.21748817342E+02  0.24591907209E+02 -0.16673517004E+02  0.36820906089E+02  0.00000000000E+00 0. -1.
         11    1    4    4    0    0 -0.34489224449E+01 -0.24161468093E+02 -0.18855825589E+01  0.24479114124E+02  0.51100000000E-03 0. -1.
        -11    1    4    4    0    0 -0.20746233195E+02  0.45757305623E+00  0.17194884978E+02  0.26949575777E+02  0.51100000000E-03 0.  1.
        -12    1    4    4    0    0  0.24463382985E+01 -0.88801217196E+00  0.13642145854E+01  0.29384040095E+01  0.00000000000E+00 0.  1.
</event>
<event>
 8    1  0.1253703E-006  0.9118800E+02  0.7816164E-02  0.1184000E+00
        -11   -1    0    0    0    0  0.00000000000E+00  0.00000000000E+00  0.45593999997E+02  0.45594000000E+02  0.51100000000E-03 0.  1.
         11   -1    0    0    0    0 -0.00000000000E+00 -0.00000000000E+00 -0.45593999997E+02  0.45594000000E+02  0.51100000000E-03 0. -1.
         23    2    1    2    0    0  0.00000000000E+00 -0.17763568394E-14  0.00000000000E+00  0.91188000000E+02  0.91188000000E+02 0.  0.
    9900012    2    3    3    0    0 -0.34895575871E+02 -0.10956004557E+02  0.42466497934E+01  0.54367227525E+02  0.40000326787E+02 0.  0.
         12    1    3    3    0    0  0.34895575871E+02  0.10956004557E+02 -0.42466497934E+01  0.36820772475E+02  0.00000000000E+00 0. -1.
         11    1    4    4    0    0 -0.25971866589E+02 -0.26406763072E+00  0.34472974939E+01  0.26200981777E+02  0.51100000000E-03 0. -1.
        -11    1    4    4    0    0 -0.14152572144E+02 -0.33856156192E+01 -0.71102299003E+01  0.16196081653E+02  0.51100000000E-03 0.  1.
         12    1    4    4    0    0  0.52288628622E+01 -0.73063213074E+01  0.79095821998E+01  0.11970164095E+02  0.00000000000E+00 0. -1.
</event>
<event>
 8    1  0.1253703E-006  0.9118800E+02  0.7816164E-02  0.1184000E+00
        -11   -1    0    0    0    0  0.00000000000E+00  0.00000000000E+00  0.45593999997E+02  0.45594000000E+02  0.51100000000E-03 0.  1.
         11   -1    0    0    0    0 -0.00000000000E+00 -0.00000000000E+00 -0.45593999997E+02  0.45594000000E+02  0.51100000000E-03 0. -1.
         23    2    1    2    0    0  0.00000000000E+00  0.00000000000E+00 -0.35527136788E-14  0.91188000000E+02  0.91188000000E+02 0.  0.
    9900012    2    3    3    0    0 -0.20273906789E+02 -0.12053069688E+02 -0.28274871383E+02  0.54367134487E+02  0.40000114690E+02 0.  0.
        -12    1    3    3    0    0  0.20273906789E+02  0.12053069688E+02  0.28274871383E+02  0.36820865513E+02  0.00000000000E+00 0.  1.
         11    1    4    4    0    0 -0.13241126352E+02  0.21929800418E+01 -0.16283459060E+02  0.21101839440E+02  0.51100000000E-03 0. -1.
        -11    1    4    4    0    0 -0.10175765009E+02  0.34358129513E+01  0.14440200950E+01  0.10836798348E+02  0.51100000000E-03 0.  1.
        -12    1    4    4    0    0  0.31429845722E+01 -0.17681862681E+02 -0.13435432418E+02  0.22428496698E+02  0.00000000000E+00 0.  1.
</event>
<event>
 8    1  0.1253703E-006  0.9118800E+02  0.7816164E-02  0.1184000E+00
        -11   -1    0    0    0    0  0.00000000000E+00  0.00000000000E+00  0.45593999997E+02  0.45594000000E+02  0.51100000000E-03 0.  1.
         11   -1    0    0    0    0 -0.00000000000E+00 -0.00000000000E+00 -0.45593999997E+02  0.45594000000E+02  0.51100000000E-03 0. -1.
         23    2    1    2    0    0  0.00000000000E+00 -0.35527136788E-14  0.66613381478E-15  0.91188000000E+02  0.91188000000E+02 0.  0.
    9900012    2    3    3    0    0  0.29451076010E+02  0.22041414258E+02  0.16095120659E+01  0.54367077283E+02  0.39999984282E+02 0.  0.
        -12    1    3    3    0    0 -0.29451076010E+02 -0.22041414258E+02 -0.16095120659E+01  0.36820922717E+02  0.00000000000E+00 0.  1.
         11    1    4    4    0    0  0.17736717470E+02  0.85375307960E+01  0.10797102071E+02  0.22451235870E+02  0.51100000000E-03 0. -1.
        -11    1    4    4    0    0  0.10567286545E+02 -0.32537571628E+01  0.26460478381E+01  0.11369083078E+02  0.51100000000E-03 0.  1.
         12    1    4    4    0    0  0.11470719944E+01  0.16757640625E+02 -0.11833637843E+02  0.20546758335E+02  0.00000000000E+00 0. -1.
</event>
<event>
 8    1  0.1253703E-006  0.9118800E+02  0.7816164E-02  0.1184000E+00
        -11   -1    0    0    0    0  0.00000000000E+00  0.00000000000E+00  0.45593999997E+02  0.45594000000E+02  0.51100000000E-03 0.  1.
         11   -1    0    0    0    0 -0.00000000000E+00 -0.00000000000E+00 -0.45593999997E+02  0.45594000000E+02  0.51100000000E-03 0. -1.
         23    2    1    2    0    0 -0.14210854715E-13  0.35527136788E-14 -0.17763568394E-14  0.91188000000E+02  0.91188000000E+02 0.  0.
    9900012    2    3    3    0    0  0.33414023031E+02 -0.13746265509E+02  0.70938938822E+01  0.54367080933E+02  0.39999992603E+02 0.  0.
         12    1    3    3    0    0 -0.33414023031E+02  0.13746265509E+02 -0.70938938822E+01  0.36820919067E+02  0.00000000000E+00 0. -1.
         11    1    4    4    0    0  0.25392032619E+02 -0.83167880076E+01 -0.13403362757E+02  0.29892715111E+02  0.51100000000E-03 0. -1.
        -11    1    4    4    0    0 -0.18553941758E+01 -0.10687242905E+01  0.14704474649E+01  0.25974747670E+01  0.51100000000E-03 0.  1.
        -12    1    4    4    0    0  0.98773845875E+01 -0.43607532111E+01  0.19026809174E+02  0.21876891054E+02  0.00000000000E+00 0.  1.
</event>
<event>
 8    1  0.1253703E-006  0.9118800E+02  0.7816164E-02  0.1184000E+00
        -11   -1    0    0    0    0  0.00000000000E+00  0.00000000000E+00  0.45593999997E+02  0.45594000000E+02  0.51100000000E-03 0.  1.
         11   -1    0    0    0    0 -0.00000000000E+00 -0.00000000000E+00 -0.45593999997E+02  0.45594000000E+02  0.51100000000E-03 0. -1.
         23    2    1    2    0    0  0.17763568394E-14  0.00000000000E+00 -0.35527136788E-14  0.91188000000E+02  0.91188000000E+02 0.  0.
    9900012    2    3    3    0    0 -0.12813761861E+02 -0.16927456777E+02 -0.30084007012E+02  0.54367098818E+02  0.40000033374E+02 0.  0.
        -12    1    3    3    0    0  0.12813761861E+02  0.16927456777E+02  0.30084007012E+02  0.36820901182E+02  0.00000000000E+00 0.  1.
         11    1    4    4    0    0  0.28160213176E+00 -0.19046774759E+02 -0.23611439275E+01  0.19194632828E+02  0.51100000000E-03 0. -1.
        -11    1    4    4    0    0 -0.49392510368E+01  0.12563837519E+01 -0.26372455462E+02  0.26860400375E+02  0.51100000000E-03 0.  1.
         12    1    4    4    0    0 -0.81561129563E+01  0.86293423020E+00 -0.13504076228E+01  0.83120656151E+01  0.00000000000E+00 0. -1.
</event>
<event>
 8    1  0.1253703E-006  0.9118800E+02  0.7816164E-02  0.1184000E+00
        -11   -1    0    0    0    0  0.00000000000E+00  0.00000000000E+00  0.45593999997E+02  0.45594000000E+02  0.51100000000E-03 0.  1.
         11   -1    0    0    0    0 -0.00000000000E+00 -0.00000000000E+00 -0.45593999997E+02  0.45594000000E+02  0.51100000000E-03 0. -1.
         23    2    1    2    0    0  0.00000000000E+00  0.35527136788E-14  0.00000000000E+00  0.91188000000E+02  0.91188000000E+02 0.  0.
    9900012    2    3    3    0    0  0.10440264368E+02 -0.22174462529E+02  0.27478619250E+02  0.54367076269E+02  0.39999981970E+02 0.  0.
         12    1    3    3    0    0 -0.10440264368E+02  0.22174462529E+02 -0.27478619250E+02  0.36820923731E+02  0.00000000000E+00 0. -1.
         11    1    4    4    0    0  0.22802694128E+01 -0.81624179740E+01  0.31987141466E+02  0.33090813154E+02  0.51100000000E-03 0. -1.
        -11    1    4    4    0    0 -0.63557802238E+00 -0.39023098728E+01 -0.66198076666E+01  0.77106313340E+01  0.51100000000E-03 0.  1.
        -12    1    4    4    0    0  0.87955729779E+01 -0.10109734682E+02  0.21112854506E+01  0.13565631781E+02  0.00000000000E+00 0.  1.
</event>
<event>
 8    1  0.1253703E-006  0.9118800E+02  0.7816164E-02  0.1184000E+00
        -11   -1    0    0    0    0  0.00000000000E+00  0.00000000000E+00  0.45593999997E+02  0.45594000000E+02  0.51100000000E-03 0.  1.
         11   -1    0    0    0    0 -0.00000000000E+00 -0.00000000000E+00 -0.45593999997E+02  0.45594000000E+02  0.51100000000E-03 0. -1.
         23    2    1    2    0    0 -0.35527136788E-14  0.17763568394E-14 -0.35527136788E-14  0.91188000000E+02  0.91188000000E+02 0.  0.
    9900012    2    3    3    0    0  0.30333468790E+02 -0.11818674008E+02  0.17204047026E+02  0.54367087216E+02  0.40000006926E+02 0.  0.
         12    1    3    3    0    0 -0.30333468790E+02  0.11818674008E+02 -0.17204047026E+02  0.36820912784E+02  0.00000000000E+00 0. -1.
         11    1    4    4    0    0  0.80793028094E+01  0.23209955707E+01  0.88770025352E+01  0.12225519563E+02  0.51100000000E-03 0. -1.
        -11    1    4    4    0    0  0.11839460394E+02  0.56635985580E+01 -0.71402541300E+01  0.14940963836E+02  0.51100000000E-03 0.  1.
        -12    1    4    4    0    0  0.10414705587E+02 -0.19803268137E+02  0.15467298621E+02  0.27200603817E+02  0.00000000000E+00 0.  1.
</event>
<event>
 8    1  0.1253703E-006  0.9118800E+02  0.7816164E-02  0.1184000E+00
        -11   -1    0    0    0    0  0.00000000000E+00  0.00000000000E+00  0.45593999997E+02  0.45594000000E+02  0.51100000000E-03 0. -1.
         11   -1    0    0    0    0 -0.00000000000E+00 -0.00000000000E+00 -0.45593999997E+02  0.45594000000E+02  0.51100000000E-03 0.  1.
         23    2    1    2    0    0  0.00000000000E+00  0.35527136788E-14  0.35527136788E-14  0.91188000000E+02  0.91188000000E+02 0.  0.
    9900012    2    3    3    0    0  0.99522176779E+01  0.24465345663E+02  0.25655023341E+02  0.54367082063E+02  0.39999995179E+02 0.  0.
        -12    1    3    3    0    0 -0.99522176779E+01 -0.24465345663E+02 -0.25655023341E+02  0.36820917937E+02  0.00000000000E+00 0.  1.
         11    1    4    4    0    0  0.79459606158E+01  0.51225807820E+01  0.17474889867E+02  0.19868339138E+02  0.51100000000E-03 0. -1.
        -11    1    4    4    0    0  0.86287952364E+01  0.22129229068E+02  0.11723404001E+02  0.26487678041E+02  0.51100000000E-03 0.  1.
         12    1    4    4    0    0 -0.66225381742E+01 -0.27864641873E+01 -0.35432705275E+01  0.80110648835E+01  0.00000000000E+00 0. -1.
</event>
<event>
 8    1  0.1253703E-006  0.9118800E+02  0.7816164E-02  0.1184000E+00
        -11   -1    0    0    0    0  0.00000000000E+00  0.00000000000E+00  0.45593999997E+02  0.45594000000E+02  0.51100000000E-03 0.  1.
         11   -1    0    0    0    0 -0.00000000000E+00 -0.00000000000E+00 -0.45593999997E+02  0.45594000000E+02  0.51100000000E-03 0. -1.
         23    2    1    2    0    0  0.27755575616E-16  0.00000000000E+00  0.00000000000E+00  0.91188000000E+02  0.91188000000E+02 0.  0.
    9900012    2    3    3    0    0 -0.24332682535E+00 -0.27729403939E+02 -0.24224143744E+02  0.54366970807E+02  0.39999741547E+02 0.  0.
        -12    1    3    3    0    0  0.24332682535E+00  0.27729403939E+02  0.24224143744E+02  0.36821029193E+02  0.00000000000E+00 0.  1.
         11    1    4    4    0    0 -0.15589241704E+01 -0.91052634052E+01 -0.10497822934E+02  0.13983574395E+02  0.51100000000E-03 0. -1.
        -11    1    4    4    0    0  0.27271513743E+01  0.94507825000E+01 -0.42930054718E+01  0.10732406101E+02  0.51100000000E-03 0.  1.
        -12    1    4    4    0    0 -0.14115540292E+01 -0.28074923034E+02 -0.94333153386E+01  0.29650990311E+02  0.00000000000E+00 0.  1.
</event>
<event>
 8    1  0.1253703E-006  0.9118800E+02  0.7816164E-02  0.1184000E+00
        -11   -1    0    0    0    0  0.00000000000E+00  0.00000000000E+00  0.45593999997E+02  0.45594000000E+02  0.51100000000E-03 0.  1.
         11   -1    0    0    0    0 -0.00000000000E+00 -0.00000000000E+00 -0.45593999997E+02  0.45594000000E+02  0.51100000000E-03 0. -1.
         23    2    1    2    0    0 -0.17763568394E-14 -0.71054273576E-14  0.00000000000E+00  0.91188000000E+02  0.91188000000E+02 0.  0.
    9900012    2    3    3    0    0 -0.15388671206E+02 -0.32285304709E+02  0.87538182103E+01  0.54367062548E+02  0.39999950690E+02 0.  0.
        -12    1    3    3    0    0  0.15388671206E+02  0.32285304709E+02 -0.87538182103E+01  0.36820937452E+02  0.00000000000E+00 0.  1.
         11    1    4    4    0    0 -0.36611431731E+01 -0.94455172680E+01  0.83960659106E+01  0.13157343532E+02  0.51100000000E-03 0. -1.
        -11    1    4    4    0    0 -0.22507615419E+02 -0.12088469704E+02  0.31129600576E+01  0.25737411918E+02  0.51100000000E-03 0.  1.
        -12    1    4    4    0    0  0.10780087387E+02 -0.10751317737E+02 -0.27552077579E+01  0.15472307098E+02  0.00000000000E+00 0.  1.
</event>
<event>
 8    1  0.1253703E-006  0.9118800E+02  0.7816164E-02  0.1184000E+00
        -11   -1    0    0    0    0  0.00000000000E+00  0.00000000000E+00  0.45593999997E+02  0.45594000000E+02  0.51100000000E-03 0. -1.
         11   -1    0    0    0    0 -0.00000000000E+00 -0.00000000000E+00 -0.45593999997E+02  0.45594000000E+02  0.51100000000E-03 0.  1.
         23    2    1    2    0    0  0.00000000000E+00  0.00000000000E+00  0.00000000000E+00  0.91188000000E+02  0.91188000000E+02 0.  0.
    9900012    2    3    3    0    0 -0.25370761368E+02 -0.20310213637E+02  0.17308968540E+02  0.54367072496E+02  0.39999973368E+02 0.  0.
        -12    1    3    3    0    0  0.25370761368E+02  0.20310213637E+02 -0.17308968540E+02  0.36820927504E+02  0.00000000000E+00 0.  1.
         11    1    4    4    0    0 -0.13292020062E+02  0.16963832611E+01  0.12563221609E+02  0.18368180393E+02  0.51100000000E-03 0. -1.
        -11    1    4    4    0    0 -0.29106643707E+01 -0.21232373452E+02  0.11745183596E+02  0.24438391670E+02  0.51100000000E-03 0.  1.
        -12    1    4    4    0    0 -0.91680769350E+01 -0.77422344621E+00 -0.69994366642E+01  0.11560500432E+02  0.00000000000E+00 0.  1.
</event>
<event>
 8    1  0.1253703E-006  0.9118800E+02  0.7816164E-02  0.1184000E+00
        -11   -1    0    0    0    0  0.00000000000E+00  0.00000000000E+00  0.45593999997E+02  0.45594000000E+02  0.51100000000E-03 0.  1.
         11   -1    0    0    0    0 -0.00000000000E+00 -0.00000000000E+00 -0.45593999997E+02  0.45594000000E+02  0.51100000000E-03 0. -1.
         23    2    1    2    0    0  0.35527136788E-14 -0.35527136788E-14  0.00000000000E+00  0.91188000000E+02  0.91188000000E+02 0.  0.
    9900012    2    3    3    0    0  0.21053964840E+02  0.26492349472E+02 -0.14514352036E+02  0.54367076178E+02  0.39999981764E+02 0.  0.
        -12    1    3    3    0    0 -0.21053964840E+02 -0.26492349472E+02  0.14514352036E+02  0.36820923822E+02  0.00000000000E+00 0.  1.
         11    1    4    4    0    0  0.22829747471E+02  0.20534088618E+02 -0.72287199462E+01  0.31545214491E+02  0.51100000000E-03 0. -1.
        -11    1    4    4    0    0  0.23500908152E+01  0.11768038670E+01 -0.13623427626E+02  0.13874637823E+02  0.51100000000E-03 0.  1.
        -12    1    4    4    0    0 -0.41258734462E+01  0.47814569871E+01  0.63377955364E+01  0.89472238641E+01  0.00000000000E+00 0.  1.
</event>
<event>
 8    1  0.1253703E-006  0.9118800E+02  0.7816164E-02  0.1184000E+00
        -11   -1    0    0    0    0  0.00000000000E+00  0.00000000000E+00  0.45593999997E+02  0.45594000000E+02  0.51100000000E-03 0.  1.
         11   -1    0    0    0    0 -0.00000000000E+00 -0.00000000000E+00 -0.45593999997E+02  0.45594000000E+02  0.51100000000E-03 0. -1.
         23    2    1    2    0    0 -0.35527136788E-14  0.17763568394E-14  0.00000000000E+00  0.91188000000E+02  0.91188000000E+02 0.  0.
    9900012    2    3    3    0    0 -0.29154321415E+02 -0.14153588848E+02 -0.17477952397E+02  0.54367117957E+02  0.40000077007E+02 0.  0.
        -12    1    3    3    0    0  0.29154321415E+02  0.14153588848E+02  0.17477952397E+02  0.36820882043E+02  0.00000000000E+00 0.  1.
         11    1    4    4    0    0 -0.17939018387E+02  0.72684053518E+01 -0.10090270537E+02  0.21827772603E+02  0.51100000000E-03 0. -1.
        -11    1    4    4    0    0 -0.92201057532E+01 -0.15788066422E+01  0.32919218517E+01  0.99166390603E+01  0.51100000000E-03 0.  1.
         12    1    4    4    0    0 -0.19951972744E+01 -0.19843187558E+02 -0.10679603711E+02  0.22622706293E+02  0.00000000000E+00 0. -1.
</event>
<event>
 8    1  0.1253703E-006  0.9118800E+02  0.7816164E-02  0.1184000E+00
        -11   -1    0    0    0    0  0.00000000000E+00  0.00000000000E+00  0.45593999997E+02  0.45594000000E+02  0.51100000000E-03 0. -1.
         11   -1    0    0    0    0 -0.00000000000E+00 -0.00000000000E+00 -0.45593999997E+02  0.45594000000E+02  0.51100000000E-03 0.  1.
         23    2    1    2    0    0  0.00000000000E+00  0.00000000000E+00 -0.35527136788E-14  0.91188000000E+02  0.91188000000E+02 0.  0.
    9900012    2    3    3    0    0 -0.18337220589E+02  0.11472349029E+02  0.29797836466E+02  0.54367088696E+02  0.40000010301E+02 0.  0.
        -12    1    3    3    0    0  0.18337220589E+02 -0.11472349029E+02 -0.29797836466E+02  0.36820911304E+02  0.00000000000E+00 0.  1.
         11    1    4    4    0    0  0.76621393916E+00  0.71569394984E+00  0.13711428545E+02  0.13751457182E+02  0.51100000000E-03 0. -1.
        -11    1    4    4    0    0 -0.17464436208E+02 -0.70200581489E+01  0.11934022522E+02  0.22286961262E+02  0.51100000000E-03 0.  1.
         12    1    4    4    0    0 -0.16389983199E+01  0.17776713228E+02  0.41523853995E+01  0.18328670252E+02  0.00000000000E+00 0. -1.
</event>
<event>
 8    1  0.1253703E-006  0.9118800E+02  0.7816164E-02  0.1184000E+00
        -11   -1    0    0    0    0  0.00000000000E+00  0.00000000000E+00  0.45593999997E+02  0.45594000000E+02  0.51100000000E-03 0. -1.
         11   -1    0    0    0    0 -0.00000000000E+00 -0.00000000000E+00 -0.45593999997E+02  0.45594000000E+02  0.51100000000E-03 0.  1.
         23    2    1    2    0    0 -0.88817841970E-15  0.00000000000E+00  0.00000000000E+00  0.91188000000E+02  0.91188000000E+02 0.  0.
    9900012    2    3    3    0    0  0.57111020300E+01 -0.35777613788E+02 -0.65669976380E+01  0.54367084846E+02  0.40000001524E+02 0.  0.
         12    1    3    3    0    0 -0.57111020300E+01  0.35777613788E+02  0.65669976380E+01  0.36820915154E+02  0.00000000000E+00 0. -1.
         11    1    4    4    0    0  0.20733759761E+02 -0.18172756142E+02 -0.92221586316E+01  0.29072084027E+02  0.51100000000E-03 0. -1.
        -11    1    4    4    0    0 -0.89175782168E+01 -0.58715758875E+01  0.51193104464E+01  0.11840859106E+02  0.51100000000E-03 0.  1.
         12    1    4    4    0    0 -0.61050795143E+01 -0.11733281759E+02 -0.24641494528E+01  0.13454141713E+02  0.00000000000E+00 0. -1.
</event>
<event>
 8    1  0.1253703E-006  0.9118800E+02  0.7816164E-02  0.1184000E+00
        -11   -1    0    0    0    0  0.00000000000E+00  0.00000000000E+00  0.45593999997E+02  0.45594000000E+02  0.51100000000E-03 0.  1.
         11   -1    0    0    0    0 -0.00000000000E+00 -0.00000000000E+00 -0.45593999997E+02  0.45594000000E+02  0.51100000000E-03 0. -1.
         23    2    1    2    0    0  0.00000000000E+00  0.44408920985E-15  0.71054273576E-14  0.91188000000E+02  0.91188000000E+02 0.  0.
    9900012    2    3    3    0    0  0.16949581830E+02  0.67689101561E+00  0.32680775827E+02  0.54367087269E+02  0.40000007047E+02 0.  0.
         12    1    3    3    0    0 -0.16949581830E+02 -0.67689101561E+00 -0.32680775827E+02  0.36820912731E+02  0.00000000000E+00 0. -1.
         11    1    4    4    0    0  0.10235721222E+02 -0.37137710678E+01 -0.58547815520E+01  0.12362869883E+02  0.51100000000E-03 0. -1.
        -11    1    4    4    0    0 -0.40499613564E+01 -0.27094469623E+00  0.47920792358E+01  0.62800972667E+01  0.51100000000E-03 0.  1.
         12    1    4    4    0    0  0.10763821965E+02  0.46616067796E+01  0.33743478143E+02  0.35724120119E+02  0.00000000000E+00 0. -1.
</event>
<event>
 8    1  0.1253703E-006  0.9118800E+02  0.7816164E-02  0.1184000E+00
        -11   -1    0    0    0    0  0.00000000000E+00  0.00000000000E+00  0.45593999997E+02  0.45594000000E+02  0.51100000000E-03 0. -1.
         11   -1    0    0    0    0 -0.00000000000E+00 -0.00000000000E+00 -0.45593999997E+02  0.45594000000E+02  0.51100000000E-03 0.  1.
         23    2    1    2    0    0  0.11102230246E-15  0.00000000000E+00  0.00000000000E+00  0.91188000000E+02  0.91188000000E+02 0.  0.
    9900012    2    3    3    0    0  0.66110653490E+00 -0.13660060702E+02 -0.34186931605E+02  0.54367073711E+02  0.39999976138E+02 0.  0.
         12    1    3    3    0    0 -0.66110653490E+00  0.13660060702E+02  0.34186931605E+02  0.36820926289E+02  0.00000000000E+00 0. -1.
         11    1    4    4    0    0  0.33087552609E+01  0.55046188929E+01  0.45144148271E+01  0.78503905651E+01  0.51100000000E-03 0. -1.
        -11    1    4    4    0    0  0.93298721861E+00 -0.11889543676E+02 -0.70735833035E+01  0.13866048283E+02  0.51100000000E-03 0.  1.
         12    1    4    4    0    0 -0.35806359446E+01 -0.72751359189E+01 -0.31627763129E+02  0.32650634863E+02  0.00000000000E+00 0. -1.
</event>
<event>
 8    1  0.1253703E-006  0.9118800E+02  0.7816164E-02  0.1184000E+00
        -11   -1    0    0    0    0  0.00000000000E+00  0.00000000000E+00  0.45593999997E+02  0.45594000000E+02  0.51100000000E-03 0.  1.
         11   -1    0    0    0    0 -0.00000000000E+00 -0.00000000000E+00 -0.45593999997E+02  0.45594000000E+02  0.51100000000E-03 0. -1.
         23    2    1    2    0    0 -0.17763568394E-14 -0.35527136788E-14  0.00000000000E+00  0.91188000000E+02  0.91188000000E+02 0.  0.
    9900012    2    3    3    0    0 -0.25904644763E+01 -0.30951660682E+02 -0.19775253507E+02  0.54367130151E+02  0.40000104805E+02 0.  0.
        -12    1    3    3    0    0  0.25904644763E+01  0.30951660682E+02  0.19775253507E+02  0.36820869849E+02  0.00000000000E+00 0.  1.
         11    1    4    4    0    0 -0.12525387969E+02 -0.75632125285E+00 -0.80309593117E+01  0.14898109723E+02  0.51100000000E-03 0. -1.
        -11    1    4    4    0    0 -0.22849861836E+01 -0.10990117080E+02 -0.12361184430E+02  0.16697386504E+02  0.51100000000E-03 0.  1.
        -12    1    4    4    0    0  0.12219909676E+02 -0.19205222349E+02  0.61689023446E+00  0.22771633923E+02  0.00000000000E+00 0.  1.
</event>
