<event>
 8    1  0.1238315E-006  0.9118800E+02  0.7816164E-02  0.1184000E+00
        -11   -1    0    0    0    0  0.00000000000E+00  0.00000000000E+00  0.45593999997E+02  0.45594000000E+02  0.51100000000E-03 0.  1.
         11   -1    0    0    0    0 -0.00000000000E+00 -0.00000000000E+00 -0.45593999997E+02  0.45594000000E+02  0.51100000000E-03 0. -1.
         23    2    1    2    0    0 -0.17763568394E-14  0.88817841970E-15 -0.71054273576E-14  0.91188000000E+02  0.91188000000E+02 0.  0.
    9900012    2    3    3    0    0 -0.56841857258E+01  0.53908080770E+01  0.35977895119E+02  0.54367085884E+02  0.40000003891E+02 0.  0.
         12    1    3    3    0    0  0.56841857258E+01 -0.53908080770E+01 -0.35977895119E+02  0.36820914116E+02  0.00000000000E+00 0. -1.
         11    1    4    4    0    0 -0.15957983840E+02  0.36257899922E-01  0.35125734658E+02  0.38580769800E+02  0.51100000000E-03 0. -1.
        -11    1    4    4    0    0  0.91455522863E+01  0.13358300790E+00  0.35387802461E+01  0.98072390066E+01  0.51100000000E-03 0.  1.
         12    1    4    4    0    0  0.11282458283E+01  0.52209671692E+01 -0.26866197844E+01  0.59790770773E+01  0.00000000000E+00 0. -1.
</event>
<event>
 8    1  0.1238315E-006  0.9118800E+02  0.7816164E-02  0.1184000E+00
        -11   -1    0    0    0    0  0.00000000000E+00  0.00000000000E+00  0.45593999997E+02  0.45594000000E+02  0.51100000000E-03 0.  1.
         11   -1    0    0    0    0 -0.00000000000E+00 -0.00000000000E+00 -0.45593999997E+02  0.45594000000E+02  0.51100000000E-03 0. -1.
         23    2    1    2    0    0  0.00000000000E+00 -0.35527136788E-14 -0.17763568394E-14  0.91188000000E+02  0.91188000000E+02 0.  0.
    9900012    2    3    3    0    0  0.19551298071E+02  0.30250316563E+02  0.76450071178E+01  0.54367067879E+02  0.39999962844E+02 0.  0.
        -12    1    3    3    0    0 -0.19551298071E+02 -0.30250316563E+02 -0.76450071178E+01  0.36820932121E+02  0.00000000000E+00 0.  1.
         11    1    4    4    0    0 -0.31298530471E+01  0.10701898841E+02 -0.37801717367E+01  0.11773543117E+02  0.51100000000E-03 0. -1.
        -11    1    4    4    0    0  0.10415250064E+02  0.24003814084E+02  0.15199908395E+01  0.26210129662E+02  0.51100000000E-03 0.  1.
        -12    1    4    4    0    0  0.12265901054E+02 -0.44553963619E+01  0.99051880150E+01  0.16383395101E+02  0.00000000000E+00 0.  1.
</event>
<event>
 8    1  0.1238315E-006  0.9118800E+02  0.7816164E-02  0.1184000E+00
        -11   -1    0    0    0    0  0.00000000000E+00  0.00000000000E+00  0.45593999997E+02  0.45594000000E+02  0.51100000000E-03 0.  1.
         11   -1    0    0    0    0 -0.00000000000E+00 -0.00000000000E+00 -0.45593999997E+02  0.45594000000E+02  0.51100000000E-03 0. -1.
         23    2    1    2    0    0  0.00000000000E+00  0.00000000000E+00  0.00000000000E+00  0.91188000000E+02  0.91188000000E+02 0.  0.
    9900012    2    3    3    0    0 -0.10788651096E+02  0.22239080203E+02 -0.27291263940E+02  0.54367017283E+02  0.39999847501E+02 0.  0.
        -12    1    3    3    0    0  0.10788651096E+02 -0.22239080203E+02  0.27291263940E+02  0.36820982717E+02  0.00000000000E+00 0.  1.
         11    1    4    4    0    0 -0.15039066322E+02  0.19653377459E+02 -0.21055357438E+02  0.32492412014E+02  0.51100000000E-03 0. -1.
        -11    1    4    4    0    0 -0.26642499405E+01 -0.63119125947E+01  0.28292238800E+01  0.74123529580E+01  0.51100000000E-03 0.  1.
         12    1    4    4    0    0  0.69146651661E+01  0.88976153396E+01 -0.90651303820E+01  0.14462252312E+02  0.00000000000E+00 0. -1.
</event>
<event>
 8    1  0.1238315E-006  0.9118800E+02  0.7816164E-02  0.1184000E+00
        -11   -1    0    0    0    0  0.00000000000E+00  0.00000000000E+00  0.45593999997E+02  0.45594000000E+02  0.51100000000E-03 0. -1.
         11   -1    0    0    0    0 -0.00000000000E+00 -0.00000000000E+00 -0.45593999997E+02  0.45594000000E+02  0.51100000000E-03 0.  1.
         23    2    1    2    0    0  0.00000000000E+00  0.00000000000E+00  0.00000000000E+00  0.91188000000E+02  0.91188000000E+02 0.  0.
    9900012    2    3    3    0    0 -0.18935099634E+02 -0.30098686157E+02  0.95556798852E+01  0.54367083056E+02  0.39999997443E+02 0.  0.
         12    1    3    3    0    0  0.18935099634E+02  0.30098686157E+02 -0.95556798852E+01  0.36820916944E+02  0.00000000000E+00 0. -1.
         11    1    4    4    0    0 -0.48178761207E+01 -0.32018407263E+01  0.16884640716E+02  0.17848103729E+02  0.51100000000E-03 0. -1.
        -11    1    4    4    0    0  0.23416864772E+01 -0.10845082384E+02 -0.77348804583E+01  0.13525076097E+02  0.51100000000E-03 0.  1.
        -12    1    4    4    0    0 -0.16458909990E+02 -0.16051763047E+02  0.40591962708E+00  0.22993903230E+02  0.00000000000E+00 0.  1.
</event>
<event>
 8    1  0.1238315E-006  0.9118800E+02  0.7816164E-02  0.1184000E+00
        -11   -1    0    0    0    0  0.00000000000E+00  0.00000000000E+00  0.45593999997E+02  0.45594000000E+02  0.51100000000E-03 0.  1.
         11   -1    0    0    0    0 -0.00000000000E+00 -0.00000000000E+00 -0.45593999997E+02  0.45594000000E+02  0.51100000000E-03 0. -1.
         23    2    1    2    0    0  0.35527136788E-14  0.00000000000E+00  0.69388939039E-15  0.91188000000E+02  0.91188000000E+02 0.  0.
    9900012    2    3    3    0    0  0.17416996722E+02 -0.32440313367E+02  0.22593975460E+00  0.54367126097E+02  0.40000095564E+02 0.  0.
        -12    1    3    3    0    0 -0.17416996722E+02  0.32440313367E+02 -0.22593975460E+00  0.36820873903E+02  0.00000000000E+00 0.  1.
         11    1    4    4    0    0  0.18992611802E+02 -0.38623050302E+02  0.12075150218E+01  0.43057141225E+02  0.51100000000E-03 0. -1.
        -11    1    4    4    0    0 -0.64508617748E+00  0.61637994898E+01  0.32356486284E+01  0.69912790414E+01  0.51100000000E-03 0.  1.
         12    1    4    4    0    0 -0.93052890219E+00  0.18937445120E-01 -0.42172238956E+01  0.43187058305E+01  0.00000000000E+00 0. -1.
</event>
<event>
 8    1  0.1238315E-006  0.9118800E+02  0.7816164E-02  0.1184000E+00
        -11   -1    0    0    0    0  0.00000000000E+00  0.00000000000E+00  0.45593999997E+02  0.45594000000E+02  0.51100000000E-03 0.  1.
         11   -1    0    0    0    0 -0.00000000000E+00 -0.00000000000E+00 -0.45593999997E+02  0.45594000000E+02  0.51100000000E-03 0. -1.
         23    2    1    2    0    0  0.00000000000E+00 -0.44408920985E-15  0.00000000000E+00  0.91188000000E+02  0.91188000000E+02 0.  0.
    9900012    2    3    3    0    0 -0.23610563154E+02  0.32487044851E+01 -0.28067195654E+02  0.54367078703E+02  0.39999987520E+02 0.  0.
        -12    1    3    3    0    0  0.23610563154E+02 -0.32487044851E+01  0.28067195654E+02  0.36820921297E+02  0.00000000000E+00 0.  1.
         11    1    4    4    0    0 -0.25524471462E+02  0.99782688242E+01 -0.96059933283E+01  0.29040309920E+02  0.51100000000E-03 0. -1.
        -11    1    4    4    0    0 -0.49831729756E+00  0.94384749040E+00  0.25845509105E+01  0.27962603392E+01  0.51100000000E-03 0.  1.
         12    1    4    4    0    0  0.24122256059E+01 -0.76734118295E+01 -0.21045753236E+02  0.22530508444E+02  0.00000000000E+00 0. -1.
</event>
<event>
 8    1  0.1238315E-006  0.9118800E+02  0.7816164E-02  0.1184000E+00
        -11   -1    0    0    0    0  0.00000000000E+00  0.00000000000E+00  0.45593999997E+02  0.45594000000E+02  0.51100000000E-03 0.  1.
         11   -1    0    0    0    0 -0.00000000000E+00 -0.00000000000E+00 -0.45593999997E+02  0.45594000000E+02  0.51100000000E-03 0. -1.
         23    2    1    2    0    0  0.00000000000E+00  0.00000000000E+00  0.00000000000E+00  0.91188000000E+02  0.91188000000E+02 0.  0.
    9900012    2    3    3    0    0 -0.97717720297E+01 -0.83655395025E+01 -0.34500837005E+02  0.54367115521E+02  0.40000071454E+02 0.  0.
        -12    1    3    3    0    0  0.97717720297E+01  0.83655395025E+01  0.34500837005E+02  0.36820884479E+02  0.00000000000E+00 0.  1.
         11    1    4    4    0    0 -0.13549036062E+02 -0.28663442377E+01 -0.97745252797E+01  0.16950918920E+02  0.51100000000E-03 0. -1.
        -11    1    4    4    0    0 -0.22991468485E+01 -0.15883480821E+02 -0.14303306914E+02  0.21497805194E+02  0.51100000000E-03 0.  1.
        -12    1    4    4    0    0  0.60764108813E+01  0.10384285556E+02 -0.10423004811E+02  0.15918391408E+02  0.00000000000E+00 0.  1.
</event>
<event>
 8    1  0.1238315E-006  0.9118800E+02  0.7816164E-02  0.1184000E+00
        -11   -1    0    0    0    0  0.00000000000E+00  0.00000000000E+00  0.45593999997E+02  0.45594000000E+02  0.51100000000E-03 0. -1.
         11   -1    0    0    0    0 -0.00000000000E+00 -0.00000000000E+00 -0.45593999997E+02  0.45594000000E+02  0.51100000000E-03 0.  1.
         23    2    1    2    0    0  0.00000000000E+00  0.00000000000E+00 -0.17763568394E-14  0.91188000000E+02  0.91188000000E+02 0.  0.
    9900012    2    3    3    0    0  0.12491386238E+02  0.31189056244E+02  0.15066124897E+02  0.54367080960E+02  0.39999992665E+02 0.  0.
        -12    1    3    3    0    0 -0.12491386238E+02 -0.31189056244E+02 -0.15066124897E+02  0.36820919040E+02  0.00000000000E+00 0.  1.
         11    1    4    4    0    0  0.18466435560E+02  0.31018874004E+02  0.21341324112E+02  0.41936045377E+02  0.51100000000E-03 0. -1.
        -11    1    4    4    0    0 -0.41526997881E+00  0.95743988591E+00 -0.67177989100E+01  0.67983794206E+01  0.51100000000E-03 0.  1.
         12    1    4    4    0    0 -0.55597793434E+01 -0.78725764605E+00  0.44259969486E+00  0.56326561619E+01  0.00000000000E+00 0. -1.
</event>
<event>
 8    1  0.1238315E-006  0.9118800E+02  0.7816164E-02  0.1184000E+00
        -11   -1    0    0    0    0  0.00000000000E+00  0.00000000000E+00  0.45593999997E+02  0.45594000000E+02  0.51100000000E-03 0. -1.
         11   -1    0    0    0    0 -0.00000000000E+00 -0.00000000000E+00 -0.45593999997E+02  0.45594000000E+02  0.51100000000E-03 0.  1.
         23    2    1    2    0    0  0.00000000000E+00  0.00000000000E+00  0.00000000000E+00  0.91188000000E+02  0.91188000000E+02 0.  0.
    9900012    2    3    3    0    0  0.33613215111E+02  0.48237745255E+01 -0.14235967730E+02  0.54367084640E+02  0.40000001053E+02 0.  0.
         12    1    3    3    0    0 -0.33613215111E+02 -0.48237745255E+01  0.14235967730E+02  0.36820915360E+02  0.00000000000E+00 0. -1.
         11    1    4    4    0    0 -0.61241387052E+01  0.32835306273E+00 -0.62200505164E+01  0.87350969830E+01  0.51100000000E-03 0. -1.
        -11    1    4    4    0    0  0.10723878880E+02  0.10055834934E+02 -0.64363257205E+01  0.16048292230E+02  0.51100000000E-03 0.  1.
        -12    1    4    4    0    0  0.29013474936E+02 -0.55604134711E+01 -0.15795914932E+01  0.29583695427E+02  0.00000000000E+00 0.  1.
</event>
<event>
 8    1  0.1238315E-006  0.9118800E+02  0.7816164E-02  0.1184000E+00
        -11   -1    0    0    0    0  0.00000000000E+00  0.00000000000E+00  0.45593999997E+02  0.45594000000E+02  0.51100000000E-03 0.  1.
         11   -1    0    0    0    0 -0.00000000000E+00 -0.00000000000E+00 -0.45593999997E+02  0.45594000000E+02  0.51100000000E-03 0. -1.
         23    2    1    2    0    0  0.00000000000E+00  0.00000000000E+00 -0.17763568394E-14  0.91188000000E+02  0.91188000000E+02 0.  0.
    9900012    2    3    3    0    0 -0.98404778572E+01  0.32218788612E+02  0.14862451794E+02  0.54367111670E+02  0.40000062674E+02 0.  0.
        -12    1    3    3    0    0  0.98404778572E+01 -0.32218788612E+02 -0.14862451794E+02  0.36820888330E+02  0.00000000000E+00 0.  1.
         11    1    4    4    0    0  0.63942784533E+01  0.11567201189E+01  0.77244944828E+01  0.10094187122E+02  0.51100000000E-03 0. -1.
        -11    1    4    4    0    0 -0.14619476984E+02  0.77566859449E+01  0.11960162063E+02  0.20419127331E+02  0.51100000000E-03 0.  1.
         12    1    4    4    0    0 -0.16152793269E+01  0.23305382548E+02 -0.48222047517E+01  0.23853797218E+02  0.00000000000E+00 0. -1.
</event>
<event>
 8    1  0.1238315E-006  0.9118800E+02  0.7816164E-02  0.1184000E+00
        -11   -1    0    0    0    0  0.00000000000E+00  0.00000000000E+00  0.45593999997E+02  0.45594000000E+02  0.51100000000E-03 0.  1.
         11   -1    0    0    0    0 -0.00000000000E+00 -0.00000000000E+00 -0.45593999997E+02  0.45594000000E+02  0.51100000000E-03 0. -1.
         23    2    1    2    0    0 -0.35527136788E-14  0.00000000000E+00  0.00000000000E+00  0.91188000000E+02  0.91188000000E+02 0.  0.
    9900012    2    3    3    0    0  0.22727165045E+02 -0.23879108241E+02  0.16402568271E+02  0.54367080847E+02  0.39999992408E+02 0.  0.
         12    1    3    3    0    0 -0.22727165045E+02  0.23879108241E+02 -0.16402568271E+02  0.36820919153E+02  0.00000000000E+00 0. -1.
         11    1    4    4    0    0 -0.79497097120E+01 -0.24764607947E+01 -0.60226155011E+01  0.10276314529E+02  0.51100000000E-03 0. -1.
        -11    1    4    4    0    0  0.31991374576E+01 -0.15605364575E+01  0.45376608672E+01  0.57671588252E+01  0.51100000000E-03 0.  1.
        -12    1    4    4    0    0  0.27477737300E+02 -0.19842110989E+02  0.17887522904E+02  0.38323607493E+02  0.00000000000E+00 0.  1.
</event>
<event>
 8    1  0.1238315E-006  0.9118800E+02  0.7816164E-02  0.1184000E+00
        -11   -1    0    0    0    0  0.00000000000E+00  0.00000000000E+00  0.45593999997E+02  0.45594000000E+02  0.51100000000E-03 0.  1.
         11   -1    0    0    0    0 -0.00000000000E+00 -0.00000000000E+00 -0.45593999997E+02  0.45594000000E+02  0.51100000000E-03 0. -1.
         23    2    1    2    0    0  0.00000000000E+00 -0.17763568394E-14  0.00000000000E+00  0.91188000000E+02  0.91188000000E+02 0.  0.
    9900012    2    3    3    0    0  0.11147546055E+02  0.14649186119E+02  0.31889078772E+02  0.54367084994E+02  0.40000001861E+02 0.  0.
         12    1    3    3    0    0 -0.11147546055E+02 -0.14649186119E+02 -0.31889078772E+02  0.36820915006E+02  0.00000000000E+00 0. -1.
         11    1    4    4    0    0  0.10215024657E+02 -0.31434826906E+01 -0.20594937302E+01  0.10884379948E+02  0.51100000000E-03 0. -1.
        -11    1    4    4    0    0  0.10131059346E+02  0.48861246780E+01  0.12529805490E+02  0.16837713732E+02  0.51100000000E-03 0.  1.
         12    1    4    4    0    0 -0.91985379486E+01  0.12906544131E+02  0.21418767012E+02  0.26644991314E+02  0.00000000000E+00 0. -1.
</event>
<event>
 8    1  0.1238315E-006  0.9118800E+02  0.7816164E-02  0.1184000E+00
        -11   -1    0    0    0    0  0.00000000000E+00  0.00000000000E+00  0.45593999997E+02  0.45594000000E+02  0.51100000000E-03 0. -1.
         11   -1    0    0    0    0 -0.00000000000E+00 -0.00000000000E+00 -0.45593999997E+02  0.45594000000E+02  0.51100000000E-03 0.  1.
         23    2    1    2    0    0  0.00000000000E+00  0.35527136788E-14 -0.35527136788E-14  0.91188000000E+02  0.91188000000E+02 0.  0.
    9900012    2    3    3    0    0  0.16414648454E+02 -0.21458365327E+02 -0.25017586257E+02  0.54367058289E+02  0.39999940981E+02 0.  0.
        -12    1    3    3    0    0 -0.16414648454E+02  0.21458365327E+02  0.25017586257E+02  0.36820941711E+02  0.00000000000E+00 0.  1.
         11    1    4    4    0    0  0.10773061487E+02 -0.69911144009E+01  0.32666760326E+01  0.13251630350E+02  0.51100000000E-03 0. -1.
        -11    1    4    4    0    0  0.75253477314E+01 -0.21308238833E+02 -0.23195562150E+02  0.32383730551E+02  0.51100000000E-03 0.  1.
        -12    1    4    4    0    0 -0.18837607645E+01  0.68409879075E+01 -0.50887001394E+01  0.87316973881E+01  0.00000000000E+00 0.  1.
</event>
<event>
 8    1  0.1238315E-006  0.9118800E+02  0.7816164E-02  0.1184000E+00
        -11   -1    0    0    0    0  0.00000000000E+00  0.00000000000E+00  0.45593999997E+02  0.45594000000E+02  0.51100000000E-03 0.  1.
         11   -1    0    0    0    0 -0.00000000000E+00 -0.00000000000E+00 -0.45593999997E+02  0.45594000000E+02  0.51100000000E-03 0. -1.
         23    2    1    2    0    0  0.00000000000E+00  0.00000000000E+00  0.00000000000E+00  0.91188000000E+02  0.91188000000E+02 0.  0.
    9900012    2    3    3    0    0  0.25720696745E+02 -0.18531468134E+02  0.18729932119E+02  0.54367083262E+02  0.39999997911E+02 0.  0.
        -12    1    3    3    0    0 -0.25720696745E+02  0.18531468134E+02 -0.18729932119E+02  0.36820916738E+02  0.00000000000E+00 0.  1.
         11    1    4    4    0    0  0.24709684257E+02 -0.97479121118E+01  0.98109563022E+01  0.28316870421E+02  0.51100000000E-03 0.  1.
        -11    1    4    4    0    0 -0.93378611472E+00  0.24921346346E+01 -0.63990749066E+01  0.69304293854E+01  0.51100000000E-03 0. -1.
        -12    1    4    4    0    0  0.19447986030E+01 -0.11275690657E+02  0.15318050724E+02  0.19119783455E+02  0.00000000000E+00 0.  1.
</event>
<event>
 8    1  0.1238315E-006  0.9118800E+02  0.7816164E-02  0.1184000E+00
        -11   -1    0    0    0    0  0.00000000000E+00  0.00000000000E+00  0.45593999997E+02  0.45594000000E+02  0.51100000000E-03 0.  1.
         11   -1    0    0    0    0 -0.00000000000E+00 -0.00000000000E+00 -0.45593999997E+02  0.45594000000E+02  0.51100000000E-03 0. -1.
         23    2    1    2    0    0 -0.22204460493E-15  0.71054273576E-14 -0.17763568394E-14  0.91188000000E+02  0.91188000000E+02 0.  0.
    9900012    2    3    3    0    0 -0.13933507266E+01  0.35498144255E+02 -0.96809269146E+01  0.54367081791E+02  0.39999994559E+02 0.  0.
         12    1    3    3    0    0  0.13933507266E+01 -0.35498144255E+02  0.96809269146E+01  0.36820918209E+02  0.00000000000E+00 0. -1.
         11    1    4    4    0    0 -0.59871098120E+00 -0.13945187612E+01 -0.62887082743E+01  0.64692340687E+01  0.51100000000E-03 0. -1.
        -11    1    4    4    0    0 -0.28035759598E+01 -0.50301099254E+01  0.28858614767E+00  0.57658760175E+01  0.51100000000E-03 0.  1.
        -12    1    4    4    0    0  0.20089362144E+01  0.41922772942E+02 -0.36808047880E+01  0.42131971705E+02  0.00000000000E+00 0.  1.
</event>
<event>
 8    1  0.1238315E-006  0.9118800E+02  0.7816164E-02  0.1184000E+00
        -11   -1    0    0    0    0  0.00000000000E+00  0.00000000000E+00  0.45593999997E+02  0.45594000000E+02  0.51100000000E-03 0.  1.
         11   -1    0    0    0    0 -0.00000000000E+00 -0.00000000000E+00 -0.45593999997E+02  0.45594000000E+02  0.51100000000E-03 0. -1.
         23    2    1    2    0    0  0.00000000000E+00 -0.35527136788E-14 -0.66613381478E-15  0.91188000000E+02  0.91188000000E+02 0.  0.
    9900012    2    3    3    0    0 -0.32715691195E+02  0.16823902338E+02 -0.15557090630E+01  0.54367076995E+02  0.39999983626E+02 0.  0.
         12    1    3    3    0    0  0.32715691195E+02 -0.16823902338E+02  0.15557090630E+01  0.36820923005E+02  0.00000000000E+00 0. -1.
         11    1    4    4    0    0 -0.95905495443E+01  0.10404864499E+02  0.99089322702E+01  0.17275033569E+02  0.51100000000E-03 0. -1.
        -11    1    4    4    0    0 -0.20891630417E+02 -0.33881404595E+01  0.86237929620E+00  0.21182148511E+02  0.51100000000E-03 0.  1.
        -12    1    4    4    0    0 -0.22335112336E+01  0.98071782986E+01 -0.12327020629E+02  0.15909894915E+02  0.00000000000E+00 0.  1.
</event>
<event>
 8    1  0.1238315E-006  0.9118800E+02  0.7816164E-02  0.1184000E+00
        -11   -1    0    0    0    0  0.00000000000E+00  0.00000000000E+00  0.45593999997E+02  0.45594000000E+02  0.51100000000E-03 0. -1.
         11   -1    0    0    0    0 -0.00000000000E+00 -0.00000000000E+00 -0.45593999997E+02  0.45594000000E+02  0.51100000000E-03 0.  1.
         23    2    1    2    0    0 -0.35527136788E-14  0.00000000000E+00  0.17763568394E-14  0.91188000000E+02  0.91188000000E+02 0.  0.
    9900012    2    3    3    0    0  0.16492602471E+02 -0.31669403039E+02  0.89901711404E+01  0.54367079285E+02  0.39999988847E+02 0.  0.
        -12    1    3    3    0    0 -0.16492602471E+02  0.31669403039E+02 -0.89901711404E+01  0.36820920715E+02  0.00000000000E+00 0.  1.
         11    1    4    4    0    0  0.14875503086E+02 -0.31164032648E+02  0.11221159862E+02  0.36309667471E+02  0.51100000000E-03 0. -1.
        -11    1    4    4    0    0 -0.81437942166E+01 -0.28616776908E+00 -0.76573549980E+00  0.81847191370E+01  0.51100000000E-03 0.  1.
        -12    1    4    4    0    0  0.97608936020E+01 -0.21920262250E+00 -0.14652532219E+01  0.98726926774E+01  0.00000000000E+00 0.  1.
</event>
<event>
 8    1  0.1238315E-006  0.9118800E+02  0.7816164E-02  0.1184000E+00
        -11   -1    0    0    0    0  0.00000000000E+00  0.00000000000E+00  0.45593999997E+02  0.45594000000E+02  0.51100000000E-03 0.  1.
         11   -1    0    0    0    0 -0.00000000000E+00 -0.00000000000E+00 -0.45593999997E+02  0.45594000000E+02  0.51100000000E-03 0. -1.
         23    2    1    2    0    0 -0.88817841970E-15  0.00000000000E+00 -0.17763568394E-14  0.91188000000E+02  0.91188000000E+02 0.  0.
    9900012    2    3    3    0    0 -0.47139688600E+01  0.34870937694E+02 -0.10843713055E+02  0.54366947450E+02  0.39999688300E+02 0.  0.
        -12    1    3    3    0    0  0.47139688600E+01 -0.34870937694E+02  0.10843713055E+02  0.36821052550E+02  0.00000000000E+00 0.  1.
         11    1    4    4    0    0  0.33847126537E+01  0.38881504449E+02 -0.17319840733E+02  0.42698999417E+02  0.51100000000E-03 0. -1.
        -11    1    4    4    0    0 -0.49690904608E+01 -0.20812619376E+01  0.58247902075E+01  0.79342102621E+01  0.51100000000E-03 0.  1.
         12    1    4    4    0    0 -0.31295910529E+01 -0.19293048177E+01  0.65133746994E+00  0.37337377703E+01  0.00000000000E+00 0. -1.
</event>
<event>
 8    1  0.1238315E-006  0.9118800E+02  0.7816164E-02  0.1184000E+00
        -11   -1    0    0    0    0  0.00000000000E+00  0.00000000000E+00  0.45593999997E+02  0.45594000000E+02  0.51100000000E-03 0. -1.
         11   -1    0    0    0    0 -0.00000000000E+00 -0.00000000000E+00 -0.45593999997E+02  0.45594000000E+02  0.51100000000E-03 0.  1.
         23    2    1    2    0    0  0.00000000000E+00  0.17763568394E-14  0.00000000000E+00  0.91188000000E+02  0.91188000000E+02 0.  0.
    9900012    2    3    3    0    0 -0.13363939585E+02 -0.10121448416E+02  0.32783276715E+02  0.54367057163E+02  0.39999938414E+02 0.  0.
        -12    1    3    3    0    0  0.13363939585E+02  0.10121448416E+02 -0.32783276715E+02  0.36820942837E+02  0.00000000000E+00 0.  1.
         11    1    4    4    0    0 -0.22278918811E+01 -0.41216051967E+01 -0.50387186304E+01  0.68803936900E+01  0.51100000000E-03 0.  1.
        -11    1    4    4    0    0 -0.18530049289E+02 -0.24498698624E+00  0.30089460950E+02  0.35338341865E+02  0.51100000000E-03 0. -1.
        -12    1    4    4    0    0  0.73940015849E+01 -0.57548562332E+01  0.77325343954E+01  0.12148321607E+02  0.00000000000E+00 0.  1.
</event>
<event>
 8    1  0.1238315E-006  0.9118800E+02  0.7816164E-02  0.1184000E+00
        -11   -1    0    0    0    0  0.00000000000E+00  0.00000000000E+00  0.45593999997E+02  0.45594000000E+02  0.51100000000E-03 0. -1.
         11   -1    0    0    0    0 -0.00000000000E+00 -0.00000000000E+00 -0.45593999997E+02  0.45594000000E+02  0.51100000000E-03 0.  1.
         23    2    1    2    0    0 -0.35527136788E-14  0.00000000000E+00 -0.17763568394E-14  0.91188000000E+02  0.91188000000E+02 0.  0.
    9900012    2    3    3    0    0 -0.27110944905E+02  0.22336913517E+02  0.11038021804E+02  0.54367096094E+02  0.40000027165E+02 0.  0.
        -12    1    3    3    0    0  0.27110944905E+02 -0.22336913517E+02 -0.11038021804E+02  0.36820903906E+02  0.00000000000E+00 0.  1.
         11    1    4    4    0    0 -0.27967348956E+02  0.31013871620E+02  0.86292045759E+01  0.42643827365E+02  0.51100000000E-03 0. -1.
        -11    1    4    4    0    0  0.21663617885E+01 -0.10352678498E+01 -0.17064328710E+01  0.29456436179E+01  0.51100000000E-03 0.  1.
         12    1    4    4    0    0 -0.13099577378E+01 -0.76416902534E+01  0.41152500990E+01  0.87776251106E+01  0.00000000000E+00 0. -1.
</event>
<event>
 8    1  0.1238315E-006  0.9118800E+02  0.7816164E-02  0.1184000E+00
        -11   -1    0    0    0    0  0.00000000000E+00  0.00000000000E+00  0.45593999997E+02  0.45594000000E+02  0.51100000000E-03 0.  1.
         11   -1    0    0    0    0 -0.00000000000E+00 -0.00000000000E+00 -0.45593999997E+02  0.45594000000E+02  0.51100000000E-03 0. -1.
         23    2    1    2    0    0  0.00000000000E+00  0.00000000000E+00 -0.88817841970E-15  0.91188000000E+02  0.91188000000E+02 0.  0.
    9900012    2    3    3    0    0  0.15937541853E+02 -0.32377216040E+02  0.73136481291E+01  0.54367098221E+02  0.40000032015E+02 0.  0.
        -12    1    3    3    0    0 -0.15937541853E+02  0.32377216040E+02 -0.73136481291E+01  0.36820901779E+02  0.00000000000E+00 0.  1.
         11    1    4    4    0    0  0.21286210276E+02 -0.51998666759E+01  0.58190542558E+01  0.22671628836E+02  0.51100000000E-03 0. -1.
        -11    1    4    4    0    0 -0.41675877222E+00 -0.50455480531E+01 -0.59663405490E+01  0.78248618415E+01  0.51100000000E-03 0.  1.
        -12    1    4    4    0    0 -0.49319096506E+01 -0.22131801311E+02  0.74609344222E+01  0.23870607544E+02  0.00000000000E+00 0.  1.
</event>
<event>
 8    1  0.1238315E-006  0.9118800E+02  0.7816164E-02  0.1184000E+00
        -11   -1    0    0    0    0  0.00000000000E+00  0.00000000000E+00  0.45593999997E+02  0.45594000000E+02  0.51100000000E-03 0.  1.
         11   -1    0    0    0    0 -0.00000000000E+00 -0.00000000000E+00 -0.45593999997E+02  0.45594000000E+02  0.51100000000E-03 0. -1.
         23    2    1    2    0    0  0.00000000000E+00 -0.17763568394E-14  0.00000000000E+00  0.91188000000E+02  0.91188000000E+02 0.  0.
    9900012    2    3    3    0    0  0.32657791180E+02  0.11949047263E+02  0.12102423962E+02  0.54367085820E+02  0.40000003744E+02 0.  0.
         12    1    3    3    0    0 -0.32657791180E+02 -0.11949047263E+02 -0.12102423962E+02  0.36820914180E+02  0.00000000000E+00 0. -1.
         11    1    4    4    0    0  0.22314984176E+02  0.95705145838E+01  0.15337022058E+02  0.28718939988E+02  0.51100000000E-03 0.  1.
        -11    1    4    4    0    0  0.89428411200E+01 -0.70798754898E+01  0.55313190283E+01  0.12676534807E+02  0.51100000000E-03 0. -1.
         12    1    4    4    0    0  0.13999658847E+01  0.94584081691E+01 -0.87659171244E+01  0.12971611026E+02  0.00000000000E+00 0. -1.
</event>
<event>
 8    1  0.1238315E-006  0.9118800E+02  0.7816164E-02  0.1184000E+00
        -11   -1    0    0    0    0  0.00000000000E+00  0.00000000000E+00  0.45593999997E+02  0.45594000000E+02  0.51100000000E-03 0. -1.
         11   -1    0    0    0    0 -0.00000000000E+00 -0.00000000000E+00 -0.45593999997E+02  0.45594000000E+02  0.51100000000E-03 0.  1.
         23    2    1    2    0    0  0.00000000000E+00  0.00000000000E+00  0.17763568394E-14  0.91188000000E+02  0.91188000000E+02 0.  0.
    9900012    2    3    3    0    0  0.54719293240E+01  0.34345521037E+02 -0.12092231853E+02  0.54367097010E+02  0.40000029253E+02 0.  0.
         12    1    3    3    0    0 -0.54719293240E+01 -0.34345521037E+02  0.12092231853E+02  0.36820902990E+02  0.00000000000E+00 0. -1.
         11    1    4    4    0    0  0.73407247633E+01  0.37343487689E+01  0.25419413179E+01  0.86193425911E+01  0.51100000000E-03 0. -1.
        -11    1    4    4    0    0  0.52597320321E+01  0.34102280701E+02 -0.80431792296E+01  0.35430538557E+02  0.51100000000E-03 0.  1.
         12    1    4    4    0    0 -0.71285274713E+01 -0.34911084328E+01 -0.65909939411E+01  0.10317215861E+02  0.00000000000E+00 0. -1.
</event>
<event>
 8    1  0.1238315E-006  0.9118800E+02  0.7816164E-02  0.1184000E+00
        -11   -1    0    0    0    0  0.00000000000E+00  0.00000000000E+00  0.45593999997E+02  0.45594000000E+02  0.51100000000E-03 0. -1.
         11   -1    0    0    0    0 -0.00000000000E+00 -0.00000000000E+00 -0.45593999997E+02  0.45594000000E+02  0.51100000000E-03 0.  1.
         23    2    1    2    0    0 -0.17763568394E-14  0.00000000000E+00  0.11102230246E-15  0.91188000000E+02  0.91188000000E+02 0.  0.
    9900012    2    3    3    0    0 -0.11123861356E+02  0.35097716682E+02 -0.43403975647E+00  0.54367103782E+02  0.40000044691E+02 0.  0.
        -12    1    3    3    0    0  0.11123861356E+02 -0.35097716682E+02  0.43403975647E+00  0.36820896218E+02  0.00000000000E+00 0.  1.
         11    1    4    4    0    0 -0.58414284654E+00  0.16937230845E+02 -0.22709118797E+01  0.17098773424E+02  0.51100000000E-03 0. -1.
        -11    1    4    4    0    0 -0.22839151200E+01  0.18104198480E+02  0.13697863957E+02  0.22816874197E+02  0.51100000000E-03 0.  1.
        -12    1    4    4    0    0 -0.82558033900E+01  0.56287357203E-01 -0.11860991834E+02  0.14451456161E+02  0.00000000000E+00 0.  1.
</event>
<event>
 8    1  0.1238315E-006  0.9118800E+02  0.7816164E-02  0.1184000E+00
        -11   -1    0    0    0    0  0.00000000000E+00  0.00000000000E+00  0.45593999997E+02  0.45594000000E+02  0.51100000000E-03 0. -1.
         11   -1    0    0    0    0 -0.00000000000E+00 -0.00000000000E+00 -0.45593999997E+02  0.45594000000E+02  0.51100000000E-03 0.  1.
         23    2    1    2    0    0 -0.88817841970E-15 -0.35527136788E-14  0.35527136788E-14  0.91188000000E+02  0.91188000000E+02 0.  0.
    9900012    2    3    3    0    0  0.52173711555E+01  0.20555607078E+02 -0.30100256921E+02  0.54367090033E+02  0.40000013348E+02 0.  0.
         12    1    3    3    0    0 -0.52173711555E+01 -0.20555607078E+02  0.30100256921E+02  0.36820909967E+02  0.00000000000E+00 0. -1.
         11    1    4    4    0    0 -0.31584702517E+01  0.10455302139E+02 -0.46340827901E+01  0.11864400563E+02  0.51100000000E-03 0. -1.
        -11    1    4    4    0    0 -0.36262212510E+01 -0.98508308542E+01 -0.10360202610E+02  0.14748632054E+02  0.51100000000E-03 0.  1.
        -12    1    4    4    0    0  0.12002062658E+02  0.19951135793E+02 -0.15105971521E+02  0.27754057416E+02  0.00000000000E+00 0.  1.
</event>
<event>
 8    1  0.1238315E-006  0.9118800E+02  0.7816164E-02  0.1184000E+00
        -11   -1    0    0    0    0  0.00000000000E+00  0.00000000000E+00  0.45593999997E+02  0.45594000000E+02  0.51100000000E-03 0. -1.
         11   -1    0    0    0    0 -0.00000000000E+00 -0.00000000000E+00 -0.45593999997E+02  0.45594000000E+02  0.51100000000E-03 0.  1.
         23    2    1    2    0    0  0.00000000000E+00 -0.17763568394E-14  0.00000000000E+00  0.91188000000E+02  0.91188000000E+02 0.  0.
    9900012    2    3    3    0    0  0.31200837055E+02 -0.10574637596E+02 -0.16445793219E+02  0.54367091432E+02  0.40000016536E+02 0.  0.
         12    1    3    3    0    0 -0.31200837055E+02  0.10574637596E+02  0.16445793219E+02  0.36820908568E+02  0.00000000000E+00 0. -1.
         11    1    4    4    0    0  0.35822997757E+01  0.41520345281E+01 -0.65349565843E+01  0.85309976102E+01  0.51100000000E-03 0. -1.
        -11    1    4    4    0    0  0.14280912633E+02 -0.21225059850E+02 -0.15580395358E+02  0.29953236070E+02  0.51100000000E-03 0.  1.
         12    1    4    4    0    0  0.13337624646E+02  0.64983877262E+01  0.56695587231E+01  0.15882857752E+02  0.00000000000E+00 0. -1.
</event>
<event>
 8    1  0.1238315E-006  0.9118800E+02  0.7816164E-02  0.1184000E+00
        -11   -1    0    0    0    0  0.00000000000E+00  0.00000000000E+00  0.45593999997E+02  0.45594000000E+02  0.51100000000E-03 0. -1.
         11   -1    0    0    0    0 -0.00000000000E+00 -0.00000000000E+00 -0.45593999997E+02  0.45594000000E+02  0.51100000000E-03 0.  1.
         23    2    1    2    0    0 -0.17763568394E-14  0.00000000000E+00  0.71054273576E-14  0.91188000000E+02  0.91188000000E+02 0.  0.
    9900012    2    3    3    0    0 -0.10903405595E+02  0.44710086246E+01  0.34884168290E+02  0.54367090601E+02  0.40000014642E+02 0.  0.
        -12    1    3    3    0    0  0.10903405595E+02 -0.44710086246E+01 -0.34884168290E+02  0.36820909399E+02  0.00000000000E+00 0.  1.
         11    1    4    4    0    0  0.10159698256E+02  0.60657434595E+01  0.23279997415E+02  0.26114574327E+02  0.51100000000E-03 0. -1.
        -11    1    4    4    0    0  0.78808387703E+00 -0.34771138863E+01  0.29813618356E+00  0.35777482612E+01  0.51100000000E-03 0.  1.
         12    1    4    4    0    0 -0.21851187728E+02  0.18823790514E+01  0.11306034691E+02  0.24674768013E+02  0.00000000000E+00 0. -1.
</event>
<event>
 8    1  0.1238315E-006  0.9118800E+02  0.7816164E-02  0.1184000E+00
        -11   -1    0    0    0    0  0.00000000000E+00  0.00000000000E+00  0.45593999997E+02  0.45594000000E+02  0.51100000000E-03 0.  1.
         11   -1    0    0    0    0 -0.00000000000E+00 -0.00000000000E+00 -0.45593999997E+02  0.45594000000E+02  0.51100000000E-03 0. -1.
         23    2    1    2    0    0 -0.35527136788E-14  0.00000000000E+00 -0.88817841970E-15  0.91188000000E+02  0.91188000000E+02 0.  0.
    9900012    2    3    3    0    0  0.31858423151E+02 -0.18011619101E+02  0.40500560521E+01  0.54367075211E+02  0.39999979559E+02 0.  0.
         12    1    3    3    0    0 -0.31858423151E+02  0.18011619101E+02 -0.40500560521E+01  0.36820924789E+02  0.00000000000E+00 0. -1.
         11    1    4    4    0    0  0.17443344558E+02  0.15291081277E+01 -0.62893485652E+01  0.18605492379E+02  0.51100000000E-03 0. -1.
        -11    1    4    4    0    0  0.11807795793E+02 -0.20895229427E+02  0.16370992304E+02  0.29052436104E+02  0.51100000000E-03 0.  1.
         12    1    4    4    0    0  0.26072827997E+01  0.13545021985E+01 -0.60315876864E+01  0.67091467283E+01  0.00000000000E+00 0. -1.
</event>
<event>
 8    1  0.1238315E-006  0.9118800E+02  0.7816164E-02  0.1184000E+00
        -11   -1    0    0    0    0  0.00000000000E+00  0.00000000000E+00  0.45593999997E+02  0.45594000000E+02  0.51100000000E-03 0.  1.
         11   -1    0    0    0    0 -0.00000000000E+00 -0.00000000000E+00 -0.45593999997E+02  0.45594000000E+02  0.51100000000E-03 0. -1.
         23    2    1    2    0    0 -0.71054273576E-14  0.35527136788E-14  0.00000000000E+00  0.91188000000E+02  0.91188000000E+02 0.  0.
    9900012    2    3    3    0    0 -0.32018036051E+02  0.16108631418E+02 -0.84333063862E+01  0.54367308869E+02  0.40000512225E+02 0.  0.
        -12    1    3    3    0    0  0.32018036051E+02 -0.16108631418E+02  0.84333063862E+01  0.36820691131E+02  0.00000000000E+00 0.  1.
         11    1    4    4    0    0 -0.13575140227E+02  0.52186837654E+01  0.99583804044E+01  0.17626356202E+02  0.51100000000E-03 0.  1.
        -11    1    4    4    0    0 -0.10758016935E+02  0.14939794588E+02 -0.24315867147E+01  0.18570002824E+02  0.51100000000E-03 0. -1.
        -12    1    4    4    0    0 -0.76848788896E+01 -0.40498469345E+01 -0.15960100076E+02  0.18170949842E+02  0.00000000000E+00 0.  1.
</event>
<event>
 8    1  0.1238315E-006  0.9118800E+02  0.7816164E-02  0.1184000E+00
        -11   -1    0    0    0    0  0.00000000000E+00  0.00000000000E+00  0.45593999997E+02  0.45594000000E+02  0.51100000000E-03 0.  1.
         11   -1    0    0    0    0 -0.00000000000E+00 -0.00000000000E+00 -0.45593999997E+02  0.45594000000E+02  0.51100000000E-03 0. -1.
         23    2    1    2    0    0  0.00000000000E+00  0.00000000000E+00 -0.17763568394E-14  0.91188000000E+02  0.91188000000E+02 0.  0.
    9900012    2    3    3    0    0  0.33416010879E+02  0.11819978335E+02  0.99718939970E+01  0.54367077404E+02  0.39999984558E+02 0.  0.
         12    1    3    3    0    0 -0.33416010879E+02 -0.11819978335E+02 -0.99718939970E+01  0.36820922596E+02  0.00000000000E+00 0. -1.
         11    1    4    4    0    0  0.10486955131E+02  0.11694441303E+02 -0.82824586739E+01  0.17757683049E+02  0.51100000000E-03 0. -1.
        -11    1    4    4    0    0 -0.17111821089E+01 -0.57921001883E+01  0.14757419209E+01  0.62172649356E+01  0.51100000000E-03 0.  1.
        -12    1    4    4    0    0  0.24640237858E+02  0.59176372201E+01  0.16778610750E+02  0.30392129420E+02  0.00000000000E+00 0.  1.
</event>
<event>
 8    1  0.1238315E-006  0.9118800E+02  0.7816164E-02  0.1184000E+00
        -11   -1    0    0    0    0  0.00000000000E+00  0.00000000000E+00  0.45593999997E+02  0.45594000000E+02  0.51100000000E-03 0.  1.
         11   -1    0    0    0    0 -0.00000000000E+00 -0.00000000000E+00 -0.45593999997E+02  0.45594000000E+02  0.51100000000E-03 0. -1.
         23    2    1    2    0    0 -0.44408920985E-15  0.00000000000E+00 -0.71054273576E-14  0.91188000000E+02  0.91188000000E+02 0.  0.
    9900012    2    3    3    0    0 -0.31712498821E+01 -0.16121326889E+02 -0.32951872408E+02  0.54367083368E+02  0.39999998154E+02 0.  0.
        -12    1    3    3    0    0  0.31712498821E+01  0.16121326889E+02  0.32951872408E+02  0.36820916632E+02  0.00000000000E+00 0.  1.
         11    1    4    4    0    0 -0.32412072278E+01  0.98640695052E+00  0.73001235225E+00  0.34657381986E+01  0.51100000000E-03 0. -1.
        -11    1    4    4    0    0 -0.52443193161E+01  0.95466926664E+01 -0.11272793623E+02  0.15675397995E+02  0.51100000000E-03 0.  1.
         12    1    4    4    0    0  0.53142766617E+01 -0.26654426506E+02 -0.22409091137E+02  0.35225947175E+02  0.00000000000E+00 0. -1.
</event>
<event>
 8    1  0.1238315E-006  0.9118800E+02  0.7816164E-02  0.1184000E+00
        -11   -1    0    0    0    0  0.00000000000E+00  0.00000000000E+00  0.45593999997E+02  0.45594000000E+02  0.51100000000E-03 0.  1.
         11   -1    0    0    0    0 -0.00000000000E+00 -0.00000000000E+00 -0.45593999997E+02  0.45594000000E+02  0.51100000000E-03 0. -1.
         23    2    1    2    0    0  0.17763568394E-14 -0.35527136788E-14  0.00000000000E+00  0.91188000000E+02  0.91188000000E+02 0.  0.
    9900012    2    3    3    0    0  0.92476768920E+01 -0.24857877356E+02  0.25541272780E+02  0.54366943391E+02  0.39999679047E+02 0.  0.
         12    1    3    3    0    0 -0.92476768920E+01  0.24857877356E+02 -0.25541272780E+02  0.36821056609E+02  0.00000000000E+00 0. -1.
         11    1    4    4    0    0  0.11308483123E+02 -0.13640164913E+02  0.10837170532E+02  0.20769693180E+02  0.51100000000E-03 0. -1.
        -11    1    4    4    0    0  0.87191187464E+01 -0.13361625856E+02  0.93896065546E+00  0.15982419235E+02  0.51100000000E-03 0.  1.
        -12    1    4    4    0    0 -0.10779924977E+02  0.21439134122E+01  0.13765141593E+02  0.17614830976E+02  0.00000000000E+00 0.  1.
</event>
<event>
 8    1  0.1238315E-006  0.9118800E+02  0.7816164E-02  0.1184000E+00
        -11   -1    0    0    0    0  0.00000000000E+00  0.00000000000E+00  0.45593999997E+02  0.45594000000E+02  0.51100000000E-03 0.  1.
         11   -1    0    0    0    0 -0.00000000000E+00 -0.00000000000E+00 -0.45593999997E+02  0.45594000000E+02  0.51100000000E-03 0. -1.
         23    2    1    2    0    0  0.00000000000E+00  0.00000000000E+00 -0.88817841970E-15  0.91188000000E+02  0.91188000000E+02 0.  0.
    9900012    2    3    3    0    0 -0.12157379600E+02 -0.34724095769E+02  0.14884250458E+01  0.54367080473E+02  0.39999991553E+02 0.  0.
         12    1    3    3    0    0  0.12157379600E+02  0.34724095769E+02 -0.14884250458E+01  0.36820919527E+02  0.00000000000E+00 0. -1.
         11    1    4    4    0    0 -0.99699448348E+01 -0.12057643295E+02  0.19335790355E+02  0.24872863742E+02  0.51100000000E-03 0. -1.
        -11    1    4    4    0    0 -0.46135648429E+00 -0.74105373205E+01 -0.93728981844E+01  0.11957430068E+02  0.51100000000E-03 0.  1.
         12    1    4    4    0    0 -0.17260782809E+01 -0.15255915154E+02 -0.84744671244E+01  0.17536786663E+02  0.00000000000E+00 0. -1.
</event>
<event>
 8    1  0.1238315E-006  0.9118800E+02  0.7816164E-02  0.1184000E+00
        -11   -1    0    0    0    0  0.00000000000E+00  0.00000000000E+00  0.45593999997E+02  0.45594000000E+02  0.51100000000E-03 0.  1.
         11   -1    0    0    0    0 -0.00000000000E+00 -0.00000000000E+00 -0.45593999997E+02  0.45594000000E+02  0.51100000000E-03 0. -1.
         23    2    1    2    0    0 -0.44408920985E-15  0.00000000000E+00  0.00000000000E+00  0.91188000000E+02  0.91188000000E+02 0.  0.
    9900012    2    3    3    0    0 -0.34237723253E+01  0.13906974064E+02  0.33921288407E+02  0.54367082687E+02  0.39999996602E+02 0.  0.
         12    1    3    3    0    0  0.34237723253E+01 -0.13906974064E+02 -0.33921288407E+02  0.36820917313E+02  0.00000000000E+00 0. -1.
         11    1    4    4    0    0  0.26757774027E+01  0.24993144965E+00 -0.18703698337E+01  0.32742226580E+01  0.51100000000E-03 0. -1.
        -11    1    4    4    0    0  0.71181194162E+01 -0.45463583222E+01  0.24514094489E+02  0.25928320943E+02  0.51100000000E-03 0.  1.
        -12    1    4    4    0    0 -0.13217669144E+02  0.18203400937E+02  0.11277563752E+02  0.25164539087E+02  0.00000000000E+00 0.  1.
</event>
<event>
 8    1  0.1238315E-006  0.9118800E+02  0.7816164E-02  0.1184000E+00
        -11   -1    0    0    0    0  0.00000000000E+00  0.00000000000E+00  0.45593999997E+02  0.45594000000E+02  0.51100000000E-03 0.  1.
         11   -1    0    0    0    0 -0.00000000000E+00 -0.00000000000E+00 -0.45593999997E+02  0.45594000000E+02  0.51100000000E-03 0. -1.
         23    2    1    2    0    0  0.00000000000E+00  0.35527136788E-14  0.00000000000E+00  0.91188000000E+02  0.91188000000E+02 0.  0.
    9900012    2    3    3    0    0 -0.22769670799E+02 -0.28355774750E+02 -0.57682076699E+01  0.54367080814E+02  0.39999992332E+02 0.  0.
         12    1    3    3    0    0  0.22769670799E+02  0.28355774750E+02  0.57682076699E+01  0.36820919186E+02  0.00000000000E+00 0. -1.
         11    1    4    4    0    0  0.28930104440E+01  0.27341722237E+01  0.42122407546E+01  0.57955310036E+01  0.51100000000E-03 0. -1.
        -11    1    4    4    0    0 -0.20244053795E+01  0.31582552477E+01  0.31889481451E+01  0.49236352305E+01  0.51100000000E-03 0.  1.
         12    1    4    4    0    0 -0.23638275864E+02 -0.34248202221E+02 -0.13169396570E+02  0.43647914580E+02  0.00000000000E+00 0. -1.
</event>
<event>
 8    1  0.1238315E-006  0.9118800E+02  0.7816164E-02  0.1184000E+00
        -11   -1    0    0    0    0  0.00000000000E+00  0.00000000000E+00  0.45593999997E+02  0.45594000000E+02  0.51100000000E-03 0.  1.
         11   -1    0    0    0    0 -0.00000000000E+00 -0.00000000000E+00 -0.45593999997E+02  0.45594000000E+02  0.51100000000E-03 0. -1.
         23    2    1    2    0    0 -0.13322676296E-14 -0.35527136788E-14  0.35527136788E-14  0.91188000000E+02  0.91188000000E+02 0.  0.
    9900012    2    3    3    0    0  0.30719318121E+01 -0.19967541575E+02 -0.30783756908E+02  0.54367093290E+02  0.40000020773E+02 0.  0.
        -12    1    3    3    0    0 -0.30719318121E+01  0.19967541575E+02  0.30783756908E+02  0.36820906710E+02  0.00000000000E+00 0.  1.
         11    1    4    4    0    0  0.97524566646E+01  0.70325926044E+00 -0.28980416565E+02  0.30585446362E+02  0.51100000000E-03 0. -1.
        -11    1    4    4    0    0 -0.61718226037E+01 -0.17801400715E+02 -0.49626580404E+01  0.19483563246E+02  0.51100000000E-03 0.  1.
         12    1    4    4    0    0 -0.50870224882E+00 -0.28694001201E+01  0.31593176975E+01  0.42980836824E+01  0.00000000000E+00 0. -1.
</event>
<event>
 8    1  0.1238315E-006  0.9118800E+02  0.7816164E-02  0.1184000E+00
        -11   -1    0    0    0    0  0.00000000000E+00  0.00000000000E+00  0.45593999997E+02  0.45594000000E+02  0.51100000000E-03 0.  1.
         11   -1    0    0    0    0 -0.00000000000E+00 -0.00000000000E+00 -0.45593999997E+02  0.45594000000E+02  0.51100000000E-03 0. -1.
         23    2    1    2    0    0  0.00000000000E+00  0.00000000000E+00  0.00000000000E+00  0.91188000000E+02  0.91188000000E+02 0.  0.
    9900012    2    3    3    0    0  0.19496007349E+02 -0.21221934261E+02 -0.22919728825E+02  0.54367098792E+02  0.40000033315E+02 0.  0.
        -12    1    3    3    0    0 -0.19496007349E+02  0.21221934261E+02  0.22919728825E+02  0.36820901208E+02  0.00000000000E+00 0.  1.
         11    1    4    4    0    0  0.53307932216E+01 -0.15126982793E+02  0.64196274374E+00  0.16051637960E+02  0.51100000000E-03 0. -1.
        -11    1    4    4    0    0  0.21358618230E+02 -0.62711709912E+01 -0.21205463944E+02  0.30743940210E+02  0.51100000000E-03 0.  1.
         12    1    4    4    0    0 -0.71934041022E+01  0.17621952255E+00 -0.23562276256E+01  0.75715206215E+01  0.00000000000E+00 0. -1.
</event>
<event>
 8    1  0.1238315E-006  0.9118800E+02  0.7816164E-02  0.1184000E+00
        -11   -1    0    0    0    0  0.00000000000E+00  0.00000000000E+00  0.45593999997E+02  0.45594000000E+02  0.51100000000E-03 0. -1.
         11   -1    0    0    0    0 -0.00000000000E+00 -0.00000000000E+00 -0.45593999997E+02  0.45594000000E+02  0.51100000000E-03 0.  1.
         23    2    1    2    0    0  0.26645352591E-14  0.00000000000E+00  0.00000000000E+00  0.91188000000E+02  0.91188000000E+02 0.  0.
    9900012    2    3    3    0    0  0.72347491067E+01 -0.16270797600E+02 -0.32228898386E+02  0.54367050252E+02  0.39999922659E+02 0.  0.
         12    1    3    3    0    0 -0.72347491067E+01  0.16270797600E+02  0.32228898386E+02  0.36820949748E+02  0.00000000000E+00 0. -1.
         11    1    4    4    0    0 -0.34282335634E+01 -0.13435698745E+02 -0.40585844990E+01  0.14447937380E+02  0.51100000000E-03 0. -1.
        -11    1    4    4    0    0  0.74229564417E+01 -0.13534267982E+02 -0.22757213296E+02  0.27498499039E+02  0.51100000000E-03 0.  1.
         12    1    4    4    0    0  0.32400262283E+01  0.10699169127E+02 -0.54131005909E+01  0.12420613833E+02  0.00000000000E+00 0. -1.
</event>
<event>
 8    1  0.1238315E-006  0.9118800E+02  0.7816164E-02  0.1184000E+00
        -11   -1    0    0    0    0  0.00000000000E+00  0.00000000000E+00  0.45593999997E+02  0.45594000000E+02  0.51100000000E-03 0. -1.
         11   -1    0    0    0    0 -0.00000000000E+00 -0.00000000000E+00 -0.45593999997E+02  0.45594000000E+02  0.51100000000E-03 0.  1.
         23    2    1    2    0    0  0.00000000000E+00  0.00000000000E+00  0.00000000000E+00  0.91188000000E+02  0.91188000000E+02 0.  0.
    9900012    2    3    3    0    0 -0.20500827814E+01 -0.30387900815E+02  0.20691843847E+02  0.54367085330E+02  0.40000002626E+02 0.  0.
        -12    1    3    3    0    0  0.20500827814E+01  0.30387900815E+02 -0.20691843847E+02  0.36820914670E+02  0.00000000000E+00 0.  1.
         11    1    4    4    0    0 -0.20913058168E+00 -0.23451370609E+02  0.66853261276E+00  0.23461829749E+02  0.51100000000E-03 0. -1.
        -11    1    4    4    0    0 -0.10585844612E+00  0.44190144210E+01 -0.28847708531E+01  0.52783328428E+01  0.51100000000E-03 0.  1.
         12    1    4    4    0    0 -0.17350937536E+01 -0.11355544627E+02  0.22908082087E+02  0.25626922738E+02  0.00000000000E+00 0. -1.
</event>
<event>
 8    1  0.1238315E-006  0.9118800E+02  0.7816164E-02  0.1184000E+00
        -11   -1    0    0    0    0  0.00000000000E+00  0.00000000000E+00  0.45593999997E+02  0.45594000000E+02  0.51100000000E-03 0. -1.
         11   -1    0    0    0    0 -0.00000000000E+00 -0.00000000000E+00 -0.45593999997E+02  0.45594000000E+02  0.51100000000E-03 0.  1.
         23    2    1    2    0    0  0.00000000000E+00  0.00000000000E+00 -0.35527136788E-14  0.91188000000E+02  0.91188000000E+02 0.  0.
    9900012    2    3    3    0    0  0.46383929187E+01 -0.20333988397E+02 -0.30344517856E+02  0.54367142638E+02  0.40000133271E+02 0.  0.
         12    1    3    3    0    0 -0.46383929187E+01  0.20333988397E+02  0.30344517856E+02  0.36820857362E+02  0.00000000000E+00 0. -1.
         11    1    4    4    0    0 -0.17878547111E+01  0.35456305649E+01  0.33335393752E+01  0.51846316743E+01  0.51100000000E-03 0. -1.
        -11    1    4    4    0    0 -0.29055613975E+01 -0.99256958404E+01 -0.30357039905E+02  0.32070416227E+02  0.51100000000E-03 0.  1.
         12    1    4    4    0    0  0.93318090274E+01 -0.13953923121E+02 -0.33210173264E+01  0.17112094737E+02  0.00000000000E+00 0. -1.
</event>
<event>
 8    1  0.1238315E-006  0.9118800E+02  0.7816164E-02  0.1184000E+00
        -11   -1    0    0    0    0  0.00000000000E+00  0.00000000000E+00  0.45593999997E+02  0.45594000000E+02  0.51100000000E-03 0.  1.
         11   -1    0    0    0    0 -0.00000000000E+00 -0.00000000000E+00 -0.45593999997E+02  0.45594000000E+02  0.51100000000E-03 0. -1.
         23    2    1    2    0    0  0.00000000000E+00  0.00000000000E+00  0.00000000000E+00  0.91188000000E+02  0.91188000000E+02 0.  0.
    9900012    2    3    3    0    0  0.30664179108E+02 -0.18768366527E+02 -0.79520944328E+01  0.54367091968E+02  0.40000017760E+02 0.  0.
        -12    1    3    3    0    0 -0.30664179108E+02  0.18768366527E+02  0.79520944328E+01  0.36820908032E+02  0.00000000000E+00 0.  1.
         11    1    4    4    0    0  0.13356428266E+02 -0.16030505313E+02 -0.16175547858E+02  0.26401129244E+02  0.51100000000E-03 0. -1.
        -11    1    4    4    0    0 -0.12019426228E+01  0.59708841835E+01  0.54019347486E+00  0.61145672989E+01  0.51100000000E-03 0.  1.
         12    1    4    4    0    0  0.18509693465E+02 -0.87087453975E+01  0.76832599503E+01  0.21851395425E+02  0.00000000000E+00 0. -1.
</event>
<event>
 8    1  0.1238315E-006  0.9118800E+02  0.7816164E-02  0.1184000E+00
        -11   -1    0    0    0    0  0.00000000000E+00  0.00000000000E+00  0.45593999997E+02  0.45594000000E+02  0.51100000000E-03 0.  1.
         11   -1    0    0    0    0 -0.00000000000E+00 -0.00000000000E+00 -0.45593999997E+02  0.45594000000E+02  0.51100000000E-03 0. -1.
         23    2    1    2    0    0  0.00000000000E+00  0.00000000000E+00  0.35527136788E-14  0.91188000000E+02  0.91188000000E+02 0.  0.
    9900012    2    3    3    0    0 -0.24337808479E+02  0.73809656983E+01  0.26626532163E+02  0.54367084867E+02  0.40000001572E+02 0.  0.
         12    1    3    3    0    0  0.24337808479E+02 -0.73809656983E+01 -0.26626532163E+02  0.36820915133E+02  0.00000000000E+00 0. -1.
         11    1    4    4    0    0  0.64657028691E+01  0.27035085038E+01  0.89537482877E+00  0.70651233653E+01  0.51100000000E-03 0. -1.
        -11    1    4    4    0    0 -0.13741887328E+02  0.11611811716E+02  0.22157146293E+02  0.28541422017E+02  0.51100000000E-03 0.  1.
        -12    1    4    4    0    0 -0.17061624020E+02 -0.69343545216E+01  0.35740110408E+01  0.18760539485E+02  0.00000000000E+00 0.  1.
</event>
<event>
 8    1  0.1238315E-006  0.9118800E+02  0.7816164E-02  0.1184000E+00
        -11   -1    0    0    0    0  0.00000000000E+00  0.00000000000E+00  0.45593999997E+02  0.45594000000E+02  0.51100000000E-03 0. -1.
         11   -1    0    0    0    0 -0.00000000000E+00 -0.00000000000E+00 -0.45593999997E+02  0.45594000000E+02  0.51100000000E-03 0.  1.
         23    2    1    2    0    0  0.00000000000E+00 -0.71054273576E-14  0.00000000000E+00  0.91188000000E+02  0.91188000000E+02 0.  0.
    9900012    2    3    3    0    0 -0.99537395292E+01 -0.34806776401E+02  0.67224794252E+01  0.54367077366E+02  0.39999984470E+02 0.  0.
        -12    1    3    3    0    0  0.99537395292E+01  0.34806776401E+02 -0.67224794252E+01  0.36820922634E+02  0.00000000000E+00 0.  1.
         11    1    4    4    0    0  0.25994994531E+00  0.39358712009E+01 -0.40078033688E+01  0.56232681056E+01  0.51100000000E-03 0.  1.
        -11    1    4    4    0    0 -0.12613095079E+02 -0.20762300553E+02  0.16888893689E+02  0.29587125951E+02  0.51100000000E-03 0. -1.
         12    1    4    4    0    0  0.23994056044E+01 -0.17980347049E+02 -0.61586108953E+01  0.19156683309E+02  0.00000000000E+00 0. -1.
</event>
<event>
 8    1  0.1238315E-006  0.9118800E+02  0.7816164E-02  0.1184000E+00
        -11   -1    0    0    0    0  0.00000000000E+00  0.00000000000E+00  0.45593999997E+02  0.45594000000E+02  0.51100000000E-03 0.  1.
         11   -1    0    0    0    0 -0.00000000000E+00 -0.00000000000E+00 -0.45593999997E+02  0.45594000000E+02  0.51100000000E-03 0. -1.
         23    2    1    2    0    0 -0.71054273576E-14  0.00000000000E+00  0.00000000000E+00  0.91188000000E+02  0.91188000000E+02 0.  0.
    9900012    2    3    3    0    0  0.33041201979E+02  0.37594548152E+01 -0.15809020101E+02  0.54367086849E+02  0.40000006090E+02 0.  0.
        -12    1    3    3    0    0 -0.33041201979E+02 -0.37594548152E+01  0.15809020101E+02  0.36820913151E+02  0.00000000000E+00 0.  1.
         11    1    4    4    0    0  0.73046700927E+01 -0.11453214688E+01 -0.33577834291E+01  0.81206327493E+01  0.51100000000E-03 0. -1.
        -11    1    4    4    0    0  0.20084963799E+02 -0.13686689357E+02 -0.25516133547E+01  0.24438534476E+02  0.51100000000E-03 0.  1.
         12    1    4    4    0    0  0.56515680872E+01  0.18591465641E+02 -0.98996233171E+01  0.21807919624E+02  0.00000000000E+00 0. -1.
</event>
<event>
 8    1  0.1238315E-006  0.9118800E+02  0.7816164E-02  0.1184000E+00
        -11   -1    0    0    0    0  0.00000000000E+00  0.00000000000E+00  0.45593999997E+02  0.45594000000E+02  0.51100000000E-03 0.  1.
         11   -1    0    0    0    0 -0.00000000000E+00 -0.00000000000E+00 -0.45593999997E+02  0.45594000000E+02  0.51100000000E-03 0. -1.
         23    2    1    2    0    0  0.17763568394E-14  0.35527136788E-14 -0.35527136788E-14  0.91188000000E+02  0.91188000000E+02 0.  0.
    9900012    2    3    3    0    0 -0.74734540648E+01  0.18602079353E+02  0.30885057509E+02  0.54367127532E+02  0.40000098835E+02 0.  0.
         12    1    3    3    0    0  0.74734540648E+01 -0.18602079353E+02 -0.30885057509E+02  0.36820872468E+02  0.00000000000E+00 0. -1.
         11    1    4    4    0    0  0.23297757456E+01  0.33560460817E+01  0.58246699678E+01  0.71146103774E+01  0.51100000000E-03 0. -1.
        -11    1    4    4    0    0 -0.18704643620E+01 -0.87849945952E+01  0.19316091255E+02  0.21302256890E+02  0.51100000000E-03 0.  1.
         12    1    4    4    0    0 -0.79327654484E+01  0.24031027867E+02  0.57442962864E+01  0.25950260265E+02  0.00000000000E+00 0. -1.
</event>
<event>
 8    1  0.1238315E-006  0.9118800E+02  0.7816164E-02  0.1184000E+00
        -11   -1    0    0    0    0  0.00000000000E+00  0.00000000000E+00  0.45593999997E+02  0.45594000000E+02  0.51100000000E-03 0.  1.
         11   -1    0    0    0    0 -0.00000000000E+00 -0.00000000000E+00 -0.45593999997E+02  0.45594000000E+02  0.51100000000E-03 0. -1.
         23    2    1    2    0    0  0.35527136788E-14  0.71054273576E-14 -0.10658141036E-13  0.91188000000E+02  0.91188000000E+02 0.  0.
    9900012    2    3    3    0    0  0.16415929798E+02  0.23359055457E+02 -0.23251915084E+02  0.54367085046E+02  0.40000001979E+02 0.  0.
        -12    1    3    3    0    0 -0.16415929798E+02 -0.23359055457E+02  0.23251915084E+02  0.36820914954E+02  0.00000000000E+00 0.  1.
         11    1    4    4    0    0 -0.40331647913E+01  0.13923788151E+02 -0.60455699491E+01  0.15706279349E+02  0.51100000000E-03 0. -1.
        -11    1    4    4    0    0  0.92670643675E+01  0.83815902997E+01  0.52492416366E+01  0.13553009849E+02  0.51100000000E-03 0.  1.
        -12    1    4    4    0    0  0.11182030222E+02  0.10536770069E+01 -0.22455586771E+02  0.25107795848E+02  0.00000000000E+00 0.  1.
</event>
<event>
 8    1  0.1238315E-006  0.9118800E+02  0.7816164E-02  0.1184000E+00
        -11   -1    0    0    0    0  0.00000000000E+00  0.00000000000E+00  0.45593999997E+02  0.45594000000E+02  0.51100000000E-03 0. -1.
         11   -1    0    0    0    0 -0.00000000000E+00 -0.00000000000E+00 -0.45593999997E+02  0.45594000000E+02  0.51100000000E-03 0.  1.
         23    2    1    2    0    0  0.00000000000E+00 -0.17763568394E-14  0.17763568394E-14  0.91188000000E+02  0.91188000000E+02 0.  0.
    9900012    2    3    3    0    0  0.33611396157E+02  0.11140369440E+02  0.10096821536E+02  0.54367087626E+02  0.40000007862E+02 0.  0.
        -12    1    3    3    0    0 -0.33611396157E+02 -0.11140369440E+02 -0.10096821536E+02  0.36820912374E+02  0.00000000000E+00 0.  1.
         11    1    4    4    0    0  0.33873662792E+01 -0.75480865381E+01 -0.29657262246E+01  0.87888220483E+01  0.51100000000E-03 0. -1.
        -11    1    4    4    0    0  0.81132182481E+01 -0.18333106671E+01  0.12974068341E+02  0.15411417453E+02  0.51100000000E-03 0.  1.
         12    1    4    4    0    0  0.22110811630E+02  0.20521766645E+02  0.88479419631E-01  0.30166848125E+02  0.00000000000E+00 0. -1.
</event>
<event>
 8    1  0.1238315E-006  0.9118800E+02  0.7816164E-02  0.1184000E+00
        -11   -1    0    0    0    0  0.00000000000E+00  0.00000000000E+00  0.45593999997E+02  0.45594000000E+02  0.51100000000E-03 0. -1.
         11   -1    0    0    0    0 -0.00000000000E+00 -0.00000000000E+00 -0.45593999997E+02  0.45594000000E+02  0.51100000000E-03 0.  1.
         23    2    1    2    0    0  0.00000000000E+00  0.00000000000E+00  0.88817841970E-15  0.91188000000E+02  0.91188000000E+02 0.  0.
    9900012    2    3    3    0    0 -0.11284854475E+02  0.34934978677E+02  0.28246245152E+01  0.54367093176E+02  0.40000020514E+02 0.  0.
        -12    1    3    3    0    0  0.11284854475E+02 -0.34934978677E+02 -0.28246245152E+01  0.36820906824E+02  0.00000000000E+00 0.  1.
         11    1    4    4    0    0 -0.13844888037E+02  0.15742749174E+02  0.78923168082E+01  0.22400976345E+02  0.51100000000E-03 0. -1.
        -11    1    4    4    0    0  0.74592542065E+01 -0.18150788839E+01 -0.68938125423E+01  0.10317927907E+02  0.51100000000E-03 0.  1.
         12    1    4    4    0    0 -0.48992206446E+01  0.21007308386E+02  0.18261202492E+01  0.21648188925E+02  0.00000000000E+00 0. -1.
</event>
<event>
 8    1  0.1238315E-006  0.9118800E+02  0.7816164E-02  0.1184000E+00
        -11   -1    0    0    0    0  0.00000000000E+00  0.00000000000E+00  0.45593999997E+02  0.45594000000E+02  0.51100000000E-03 0.  1.
         11   -1    0    0    0    0 -0.00000000000E+00 -0.00000000000E+00 -0.45593999997E+02  0.45594000000E+02  0.51100000000E-03 0. -1.
         23    2    1    2    0    0  0.17763568394E-14  0.00000000000E+00  0.35527136788E-14  0.91188000000E+02  0.91188000000E+02 0.  0.
    9900012    2    3    3    0    0 -0.11551832764E+02  0.16446448435E+02  0.30852086000E+02  0.54367058718E+02  0.39999941960E+02 0.  0.
         12    1    3    3    0    0  0.11551832764E+02 -0.16446448435E+02 -0.30852086000E+02  0.36820941282E+02  0.00000000000E+00 0. -1.
         11    1    4    4    0    0 -0.20894115631E+02  0.13543574889E+02  0.99099763093E+01  0.26799255950E+02  0.51100000000E-03 0.  1.
        -11    1    4    4    0    0  0.11018263599E+02  0.52212721954E+01  0.21439570660E+02  0.24664123873E+02  0.51100000000E-03 0. -1.
        -12    1    4    4    0    0 -0.16759807318E+01 -0.23183986491E+01 -0.49746096924E+00  0.29036788951E+01  0.00000000000E+00 0.  1.
</event>
<event>
 8    1  0.1238315E-006  0.9118800E+02  0.7816164E-02  0.1184000E+00
        -11   -1    0    0    0    0  0.00000000000E+00  0.00000000000E+00  0.45593999997E+02  0.45594000000E+02  0.51100000000E-03 0.  1.
         11   -1    0    0    0    0 -0.00000000000E+00 -0.00000000000E+00 -0.45593999997E+02  0.45594000000E+02  0.51100000000E-03 0. -1.
         23    2    1    2    0    0  0.17763568394E-14  0.00000000000E+00  0.00000000000E+00  0.91188000000E+02  0.91188000000E+02 0.  0.
    9900012    2    3    3    0    0 -0.12732339748E+02  0.88753127505E+01 -0.33390061979E+02  0.54367083514E+02  0.39999998488E+02 0.  0.
        -12    1    3    3    0    0  0.12732339748E+02 -0.88753127505E+01  0.33390061979E+02  0.36820916486E+02  0.00000000000E+00 0.  1.
         11    1    4    4    0    0 -0.45957655206E+01  0.14118719940E+02 -0.15327262497E+02  0.21339734988E+02  0.51100000000E-03 0. -1.
        -11    1    4    4    0    0 -0.16414026860E+02  0.21915261284E+00 -0.15948196660E+02  0.22886967528E+02  0.51100000000E-03 0.  1.
        -12    1    4    4    0    0  0.82774526335E+01 -0.54625598026E+01 -0.21146028224E+01  0.10140380998E+02  0.00000000000E+00 0.  1.
</event>
<event>
 8    1  0.1238315E-006  0.9118800E+02  0.7816164E-02  0.1184000E+00
        -11   -1    0    0    0    0  0.00000000000E+00  0.00000000000E+00  0.45593999997E+02  0.45594000000E+02  0.51100000000E-03 0. -1.
         11   -1    0    0    0    0 -0.00000000000E+00 -0.00000000000E+00 -0.45593999997E+02  0.45594000000E+02  0.51100000000E-03 0.  1.
         23    2    1    2    0    0 -0.22204460493E-14 -0.35527136788E-14  0.00000000000E+00  0.91188000000E+02  0.91188000000E+02 0.  0.
    9900012    2    3    3    0    0 -0.35056903302E+01 -0.17112143986E+02 -0.32413953699E+02  0.54367085687E+02  0.40000003440E+02 0.  0.
         12    1    3    3    0    0  0.35056903302E+01  0.17112143986E+02  0.32413953699E+02  0.36820914313E+02  0.00000000000E+00 0. -1.
         11    1    4    4    0    0 -0.35415455608E+01  0.55737156208E+01 -0.11521534603E+02  0.13279857328E+02  0.51100000000E-03 0. -1.
        -11    1    4    4    0    0  0.12287871638E+02 -0.39321211324E+01 -0.63508498217E+01  0.14380078571E+02  0.51100000000E-03 0.  1.
        -12    1    4    4    0    0 -0.12252016408E+02 -0.18753738474E+02 -0.14541569274E+02  0.26707149788E+02  0.00000000000E+00 0.  1.
</event>
<event>
 8    1  0.1238315E-006  0.9118800E+02  0.7816164E-02  0.1184000E+00
        -11   -1    0    0    0    0  0.00000000000E+00  0.00000000000E+00  0.45593999997E+02  0.45594000000E+02  0.51100000000E-03 0.  1.
         11   -1    0    0    0    0 -0.00000000000E+00 -0.00000000000E+00 -0.45593999997E+02  0.45594000000E+02  0.51100000000E-03 0. -1.
         23    2    1    2    0    0  0.35527136788E-14  0.17763568394E-14 -0.35527136788E-14  0.91188000000E+02  0.91188000000E+02 0.  0.
    9900012    2    3    3    0    0 -0.20862566333E+02  0.36771316424E+01  0.30116628353E+02  0.54367091884E+02  0.40000017568E+02 0.  0.
         12    1    3    3    0    0  0.20862566333E+02 -0.36771316424E+01 -0.30116628353E+02  0.36820908116E+02  0.00000000000E+00 0. -1.
         11    1    4    4    0    0 -0.17904769281E+02  0.17291620406E+02  0.19369475854E+02  0.31539776384E+02  0.51100000000E-03 0.  1.
        -11    1    4    4    0    0 -0.65569611593E+01 -0.18033354197E+01  0.56628602645E+00  0.68239606099E+01  0.51100000000E-03 0. -1.
        -12    1    4    4    0    0  0.35991641076E+01 -0.11811153344E+02  0.10180866473E+02  0.16003354890E+02  0.00000000000E+00 0.  1.
</event>
<event>
 8    1  0.1238315E-006  0.9118800E+02  0.7816164E-02  0.1184000E+00
        -11   -1    0    0    0    0  0.00000000000E+00  0.00000000000E+00  0.45593999997E+02  0.45594000000E+02  0.51100000000E-03 0. -1.
         11   -1    0    0    0    0 -0.00000000000E+00 -0.00000000000E+00 -0.45593999997E+02  0.45594000000E+02  0.51100000000E-03 0.  1.
         23    2    1    2    0    0  0.71054273576E-14  0.27755575616E-16  0.00000000000E+00  0.91188000000E+02  0.91188000000E+02 0.  0.
    9900012    2    3    3    0    0 -0.34058600914E+02 -0.24031400802E+00 -0.13990494918E+02  0.54367082098E+02  0.39999995260E+02 0.  0.
         12    1    3    3    0    0  0.34058600914E+02  0.24031400802E+00  0.13990494918E+02  0.36820917902E+02  0.00000000000E+00 0. -1.
         11    1    4    4    0    0 -0.32306615120E+02 -0.10384259978E+01 -0.84864574311E+01  0.33418792155E+02  0.51100000000E-03 0. -1.
        -11    1    4    4    0    0 -0.93170335120E+01  0.51907997417E+01 -0.10017149369E+00  0.10665905963E+02  0.51100000000E-03 0.  1.
         12    1    4    4    0    0  0.75650477179E+01 -0.43926877519E+01 -0.54038659930E+01  0.10282383981E+02  0.00000000000E+00 0. -1.
</event>
<event>
 8    1  0.1238315E-006  0.9118800E+02  0.7816164E-02  0.1184000E+00
        -11   -1    0    0    0    0  0.00000000000E+00  0.00000000000E+00  0.45593999997E+02  0.45594000000E+02  0.51100000000E-03 0.  1.
         11   -1    0    0    0    0 -0.00000000000E+00 -0.00000000000E+00 -0.45593999997E+02  0.45594000000E+02  0.51100000000E-03 0. -1.
         23    2    1    2    0    0 -0.35527136788E-14  0.88817841970E-15  0.00000000000E+00  0.91188000000E+02  0.91188000000E+02 0.  0.
    9900012    2    3    3    0    0  0.22104223528E+02 -0.72241647042E+01  0.28548080674E+02  0.54367106969E+02  0.40000051956E+02 0.  0.
         12    1    3    3    0    0 -0.22104223528E+02  0.72241647042E+01 -0.28548080674E+02  0.36820893031E+02  0.00000000000E+00 0. -1.
         11    1    4    4    0    0  0.27749946784E+02 -0.13537504587E+02  0.12879873173E+02  0.33454666493E+02  0.51100000000E-03 0. -1.
        -11    1    4    4    0    0 -0.50972059082E+00  0.32633856818E+01  0.14441558510E+02  0.14814456239E+02  0.51100000000E-03 0.  1.
         12    1    4    4    0    0 -0.51360026653E+01  0.30499542007E+01  0.12266489909E+01  0.60979842367E+01  0.00000000000E+00 0. -1.
</event>
<event>
 8    1  0.1238315E-006  0.9118800E+02  0.7816164E-02  0.1184000E+00
        -11   -1    0    0    0    0  0.00000000000E+00  0.00000000000E+00  0.45593999997E+02  0.45594000000E+02  0.51100000000E-03 0.  1.
         11   -1    0    0    0    0 -0.00000000000E+00 -0.00000000000E+00 -0.45593999997E+02  0.45594000000E+02  0.51100000000E-03 0. -1.
         23    2    1    2    0    0  0.35527136788E-14 -0.71054273576E-14  0.00000000000E+00  0.91188000000E+02  0.91188000000E+02 0.  0.
    9900012    2    3    3    0    0 -0.17352767056E+02  0.26428145025E+02 -0.18873624273E+02  0.54367094699E+02  0.40000023985E+02 0.  0.
        -12    1    3    3    0    0  0.17352767056E+02 -0.26428145025E+02  0.18873624273E+02  0.36820905301E+02  0.00000000000E+00 0.  1.
         11    1    4    4    0    0  0.19108912578E+01 -0.21659342076E+01  0.12687601069E+01  0.31547628850E+01  0.51100000000E-03 0.  1.
        -11    1    4    4    0    0 -0.55935713393E+01 -0.30926512263E+01  0.53280014835E+01  0.83210655570E+01  0.51100000000E-03 0. -1.
         12    1    4    4    0    0 -0.13670086975E+02  0.31686730459E+02 -0.25470385864E+02  0.42891266257E+02  0.00000000000E+00 0. -1.
</event>
<event>
 8    1  0.1238315E-006  0.9118800E+02  0.7816164E-02  0.1184000E+00
        -11   -1    0    0    0    0  0.00000000000E+00  0.00000000000E+00  0.45593999997E+02  0.45594000000E+02  0.51100000000E-03 0.  1.
         11   -1    0    0    0    0 -0.00000000000E+00 -0.00000000000E+00 -0.45593999997E+02  0.45594000000E+02  0.51100000000E-03 0. -1.
         23    2    1    2    0    0 -0.17763568394E-14  0.00000000000E+00  0.35527136788E-14  0.91188000000E+02  0.91188000000E+02 0.  0.
    9900012    2    3    3    0    0  0.14102270450E+02  0.22771469948E+02  0.25266007470E+02  0.54367014015E+02  0.39999840049E+02 0.  0.
         12    1    3    3    0    0 -0.14102270450E+02 -0.22771469948E+02 -0.25266007470E+02  0.36820985985E+02  0.00000000000E+00 0. -1.
         11    1    4    4    0    0  0.12420454031E+02  0.74283755114E+01  0.36910870213E+01  0.14935613973E+02  0.51100000000E-03 0. -1.
        -11    1    4    4    0    0  0.77075218603E+01  0.53684410979E+01 -0.48353267203E+01  0.10564394815E+02  0.51100000000E-03 0.  1.
        -12    1    4    4    0    0 -0.60257054413E+01  0.99746533391E+01  0.26410247169E+02  0.28867005228E+02  0.00000000000E+00 0.  1.
</event>
<event>
 8    1  0.1238315E-006  0.9118800E+02  0.7816164E-02  0.1184000E+00
        -11   -1    0    0    0    0  0.00000000000E+00  0.00000000000E+00  0.45593999997E+02  0.45594000000E+02  0.51100000000E-03 0.  1.
         11   -1    0    0    0    0 -0.00000000000E+00 -0.00000000000E+00 -0.45593999997E+02  0.45594000000E+02  0.51100000000E-03 0. -1.
         23    2    1    2    0    0  0.00000000000E+00  0.00000000000E+00  0.00000000000E+00  0.91188000000E+02  0.91188000000E+02 0.  0.
    9900012    2    3    3    0    0  0.29478542341E+02  0.10144592492E+02 -0.19592944625E+02  0.54367072602E+02  0.39999973611E+02 0.  0.
        -12    1    3    3    0    0 -0.29478542341E+02 -0.10144592492E+02  0.19592944625E+02  0.36820927398E+02  0.00000000000E+00 0.  1.
         11    1    4    4    0    0  0.20192926734E+02 -0.10226009150E+02 -0.74382217497E+01  0.23825463191E+02  0.51100000000E-03 0. -1.
        -11    1    4    4    0    0 -0.20264386951E+01  0.14688566201E+02 -0.94921344910E+01  0.17605710673E+02  0.51100000000E-03 0.  1.
         12    1    4    4    0    0  0.11312054302E+02  0.56820354404E+01 -0.26625883842E+01  0.12935898739E+02  0.00000000000E+00 0. -1.
</event>
<event>
 8    1  0.1238315E-006  0.9118800E+02  0.7816164E-02  0.1184000E+00
        -11   -1    0    0    0    0  0.00000000000E+00  0.00000000000E+00  0.45593999997E+02  0.45594000000E+02  0.51100000000E-03 0.  1.
         11   -1    0    0    0    0 -0.00000000000E+00 -0.00000000000E+00 -0.45593999997E+02  0.45594000000E+02  0.51100000000E-03 0. -1.
         23    2    1    2    0    0  0.13322676296E-14  0.00000000000E+00  0.00000000000E+00  0.91188000000E+02  0.91188000000E+02 0.  0.
    9900012    2    3    3    0    0 -0.28075159898E+01  0.50039257524E+01  0.36371118572E+02  0.54367086308E+02  0.40000004856E+02 0.  0.
         12    1    3    3    0    0  0.28075159898E+01 -0.50039257524E+01 -0.36371118572E+02  0.36820913692E+02  0.00000000000E+00 0. -1.
         11    1    4    4    0    0  0.38319652376E+01 -0.39860499441E+01  0.21094523858E+02  0.21807143068E+02  0.51100000000E-03 0. -1.
        -11    1    4    4    0    0 -0.10373780892E+02  0.39697749779E+01  0.21206658605E+02  0.23939440528E+02  0.51100000000E-03 0.  1.
         12    1    4    4    0    0  0.37342996642E+01  0.50202007186E+01 -0.59300638916E+01  0.86205027113E+01  0.00000000000E+00 0. -1.
</event>
<event>
 8    1  0.1238315E-006  0.9118800E+02  0.7816164E-02  0.1184000E+00
        -11   -1    0    0    0    0  0.00000000000E+00  0.00000000000E+00  0.45593999997E+02  0.45594000000E+02  0.51100000000E-03 0.  1.
         11   -1    0    0    0    0 -0.00000000000E+00 -0.00000000000E+00 -0.45593999997E+02  0.45594000000E+02  0.51100000000E-03 0. -1.
         23    2    1    2    0    0  0.00000000000E+00 -0.35527136788E-14  0.00000000000E+00  0.91188000000E+02  0.91188000000E+02 0.  0.
    9900012    2    3    3    0    0 -0.22618096854E+02 -0.14640410028E+02  0.25096991322E+02  0.54367097180E+02  0.40000029641E+02 0.  0.
         12    1    3    3    0    0  0.22618096854E+02  0.14640410028E+02 -0.25096991322E+02  0.36820902820E+02  0.00000000000E+00 0. -1.
         11    1    4    4    0    0 -0.25015808127E+01 -0.19790644650E+02  0.85088195154E+01  0.21687036036E+02  0.51100000000E-03 0. -1.
        -11    1    4    4    0    0 -0.13256715369E+02  0.64513773186E+01  0.20049874360E+02  0.24886908884E+02  0.51100000000E-03 0.  1.
         12    1    4    4    0    0 -0.68598006722E+01 -0.13011426967E+01 -0.34617025537E+01  0.77931522601E+01  0.00000000000E+00 0. -1.
</event>
<event>
 8    1  0.1238315E-006  0.9118800E+02  0.7816164E-02  0.1184000E+00
        -11   -1    0    0    0    0  0.00000000000E+00  0.00000000000E+00  0.45593999997E+02  0.45594000000E+02  0.51100000000E-03 0.  1.
         11   -1    0    0    0    0 -0.00000000000E+00 -0.00000000000E+00 -0.45593999997E+02  0.45594000000E+02  0.51100000000E-03 0. -1.
         23    2    1    2    0    0  0.00000000000E+00 -0.35527136788E-14  0.35527136788E-14  0.91188000000E+02  0.91188000000E+02 0.  0.
    9900012    2    3    3    0    0  0.23711123065E+02 -0.17367212708E+02  0.22179766256E+02  0.54367089291E+02  0.40000011657E+02 0.  0.
         12    1    3    3    0    0 -0.23711123065E+02  0.17367212708E+02 -0.22179766256E+02  0.36820910709E+02  0.00000000000E+00 0. -1.
         11    1    4    4    0    0  0.43055391470E+01 -0.11768608379E+02  0.65924718868E+01  0.14159749163E+02  0.51100000000E-03 0. -1.
        -11    1    4    4    0    0  0.22937485254E+02 -0.14532921559E+02  0.91973446772E+01  0.28669237663E+02  0.51100000000E-03 0.  1.
        -12    1    4    4    0    0 -0.35319013362E+01  0.89343172298E+01  0.63899496921E+01  0.11538102464E+02  0.00000000000E+00 0.  1.
</event>
<event>
 8    1  0.1238315E-006  0.9118800E+02  0.7816164E-02  0.1184000E+00
        -11   -1    0    0    0    0  0.00000000000E+00  0.00000000000E+00  0.45593999997E+02  0.45594000000E+02  0.51100000000E-03 0.  1.
         11   -1    0    0    0    0 -0.00000000000E+00 -0.00000000000E+00 -0.45593999997E+02  0.45594000000E+02  0.51100000000E-03 0. -1.
         23    2    1    2    0    0  0.00000000000E+00  0.71054273576E-14  0.00000000000E+00  0.91188000000E+02  0.91188000000E+02 0.  0.
    9900012    2    3    3    0    0 -0.41234145652E+01 -0.35602672711E+02 -0.84396276847E+01  0.54367079761E+02  0.39999989930E+02 0.  0.
        -12    1    3    3    0    0  0.41234145652E+01  0.35602672711E+02  0.84396276847E+01  0.36820920239E+02  0.00000000000E+00 0.  1.
         11    1    4    4    0    0 -0.32502754896E+01 -0.20941080790E+01 -0.49824322955E+01  0.63066798908E+01  0.51100000000E-03 0. -1.
        -11    1    4    4    0    0 -0.22375013409E+01  0.68975067616E+00 -0.12453965405E+02  0.12672151467E+02  0.51100000000E-03 0.  1.
        -12    1    4    4    0    0  0.13643622653E+01 -0.34198315308E+02  0.89967700157E+01  0.35388248402E+02  0.00000000000E+00 0.  1.
</event>
<event>
 8    1  0.1238315E-006  0.9118800E+02  0.7816164E-02  0.1184000E+00
        -11   -1    0    0    0    0  0.00000000000E+00  0.00000000000E+00  0.45593999997E+02  0.45594000000E+02  0.51100000000E-03 0. -1.
         11   -1    0    0    0    0 -0.00000000000E+00 -0.00000000000E+00 -0.45593999997E+02  0.45594000000E+02  0.51100000000E-03 0.  1.
         23    2    1    2    0    0  0.00000000000E+00  0.00000000000E+00  0.00000000000E+00  0.91188000000E+02  0.91188000000E+02 0.  0.
    9900012    2    3    3    0    0 -0.10314779795E+02 -0.11142555486E+02  0.33544416714E+02  0.54367094014E+02  0.40000022424E+02 0.  0.
        -12    1    3    3    0    0  0.10314779795E+02  0.11142555486E+02 -0.33544416714E+02  0.36820905986E+02  0.00000000000E+00 0.  1.
         11    1    4    4    0    0  0.43427786747E+01  0.35764052168E+00  0.72370040023E+00  0.44171683113E+01  0.51100000000E-03 0. -1.
        -11    1    4    4    0    0 -0.32388708893E-01  0.41679191655E+01 -0.49809240877E+01  0.64947828468E+01  0.51100000000E-03 0.  1.
         12    1    4    4    0    0 -0.14625169760E+02 -0.15668115173E+02  0.37801640401E+02  0.43455142856E+02  0.00000000000E+00 0. -1.
</event>
<event>
 8    1  0.1238315E-006  0.9118800E+02  0.7816164E-02  0.1184000E+00
        -11   -1    0    0    0    0  0.00000000000E+00  0.00000000000E+00  0.45593999997E+02  0.45594000000E+02  0.51100000000E-03 0.  1.
         11   -1    0    0    0    0 -0.00000000000E+00 -0.00000000000E+00 -0.45593999997E+02  0.45594000000E+02  0.51100000000E-03 0. -1.
         23    2    1    2    0    0 -0.17763568394E-14  0.00000000000E+00 -0.71054273576E-14  0.91188000000E+02  0.91188000000E+02 0.  0.
    9900012    2    3    3    0    0 -0.10424754372E+02 -0.20387334110E+02 -0.28835043378E+02  0.54367100738E+02  0.40000037753E+02 0.  0.
        -12    1    3    3    0    0  0.10424754372E+02  0.20387334110E+02  0.28835043378E+02  0.36820899262E+02  0.00000000000E+00 0.  1.
         11    1    4    4    0    0 -0.23415217337E+02 -0.21301682041E+02 -0.25643823254E+02  0.40738676121E+02  0.51100000000E-03 0. -1.
        -11    1    4    4    0    0  0.24884496783E+01 -0.66115950268E+00 -0.11246111835E+01  0.28096733377E+01  0.51100000000E-03 0.  1.
        -12    1    4    4    0    0  0.10502013287E+02  0.15755074334E+01 -0.20666089401E+01  0.10818751280E+02  0.00000000000E+00 0.  1.
</event>
<event>
 8    1  0.1238315E-006  0.9118800E+02  0.7816164E-02  0.1184000E+00
        -11   -1    0    0    0    0  0.00000000000E+00  0.00000000000E+00  0.45593999997E+02  0.45594000000E+02  0.51100000000E-03 0.  1.
         11   -1    0    0    0    0 -0.00000000000E+00 -0.00000000000E+00 -0.45593999997E+02  0.45594000000E+02  0.51100000000E-03 0. -1.
         23    2    1    2    0    0 -0.71054273576E-14 -0.17763568394E-14 -0.35527136788E-14  0.91188000000E+02  0.91188000000E+02 0.  0.
    9900012    2    3    3    0    0  0.29633735951E+02  0.85900906896E+01  0.20095606647E+02  0.54367063415E+02  0.39999952668E+02 0.  0.
         12    1    3    3    0    0 -0.29633735951E+02 -0.85900906896E+01 -0.20095606647E+02  0.36820936585E+02  0.00000000000E+00 0. -1.
         11    1    4    4    0    0 -0.54187040004E+01 -0.36028801169E+01 -0.48971583386E+01  0.81440320625E+01  0.51100000000E-03 0. -1.
        -11    1    4    4    0    0  0.22340909155E+02  0.26372128065E+01  0.11003306109E+02  0.25042840471E+02  0.51100000000E-03 0.  1.
         12    1    4    4    0    0  0.12711530796E+02  0.95557580000E+01  0.13989458877E+02  0.21180190882E+02  0.00000000000E+00 0. -1.
</event>
<event>
 8    1  0.1238315E-006  0.9118800E+02  0.7816164E-02  0.1184000E+00
        -11   -1    0    0    0    0  0.00000000000E+00  0.00000000000E+00  0.45593999997E+02  0.45594000000E+02  0.51100000000E-03 0.  1.
         11   -1    0    0    0    0 -0.00000000000E+00 -0.00000000000E+00 -0.45593999997E+02  0.45594000000E+02  0.51100000000E-03 0. -1.
         23    2    1    2    0    0  0.00000000000E+00 -0.35527136788E-14  0.35527136788E-14  0.91188000000E+02  0.91188000000E+02 0.  0.
    9900012    2    3    3    0    0  0.20196318215E+02  0.22944667627E+02 -0.20528774754E+02  0.54367086990E+02  0.40000006411E+02 0.  0.
        -12    1    3    3    0    0 -0.20196318215E+02 -0.22944667627E+02  0.20528774754E+02  0.36820913010E+02  0.00000000000E+00 0.  1.
         11    1    4    4    0    0  0.79291251918E+01 -0.31858311865E+01 -0.18379332364E+01  0.87406261503E+01  0.51100000000E-03 0. -1.
        -11    1    4    4    0    0 -0.70944518434E+01  0.31538717716E+01  0.32550647387E+01  0.84186460209E+01  0.51100000000E-03 0.  1.
         12    1    4    4    0    0  0.19361644867E+02  0.22976627042E+02 -0.21945906257E+02  0.37207814819E+02  0.00000000000E+00 0. -1.
</event>
<event>
 8    1  0.1238315E-006  0.9118800E+02  0.7816164E-02  0.1184000E+00
        -11   -1    0    0    0    0  0.00000000000E+00  0.00000000000E+00  0.45593999997E+02  0.45594000000E+02  0.51100000000E-03 0.  1.
         11   -1    0    0    0    0 -0.00000000000E+00 -0.00000000000E+00 -0.45593999997E+02  0.45594000000E+02  0.51100000000E-03 0. -1.
         23    2    1    2    0    0  0.00000000000E+00 -0.71054273576E-14 -0.35527136788E-14  0.91188000000E+02  0.91188000000E+02 0.  0.
    9900012    2    3    3    0    0 -0.22088694154E+02 -0.18839813278E+02 -0.22647973711E+02  0.54367086282E+02  0.40000004798E+02 0.  0.
        -12    1    3    3    0    0  0.22088694154E+02  0.18839813278E+02  0.22647973711E+02  0.36820913718E+02  0.00000000000E+00 0.  1.
         11    1    4    4    0    0 -0.59755741405E+01 -0.53923721306E+01 -0.12606767332E+02  0.14957130283E+02  0.51100000000E-03 0. -1.
        -11    1    4    4    0    0 -0.13350740663E+02  0.71515017492E+01 -0.10817786477E+02  0.18612113207E+02  0.51100000000E-03 0.  1.
        -12    1    4    4    0    0 -0.27623793510E+01 -0.20598942897E+02  0.77658009742E+00  0.20797842792E+02  0.00000000000E+00 0.  1.
</event>
<event>
 8    1  0.1238315E-006  0.9118800E+02  0.7816164E-02  0.1184000E+00
        -11   -1    0    0    0    0  0.00000000000E+00  0.00000000000E+00  0.45593999997E+02  0.45594000000E+02  0.51100000000E-03 0. -1.
         11   -1    0    0    0    0 -0.00000000000E+00 -0.00000000000E+00 -0.45593999997E+02  0.45594000000E+02  0.51100000000E-03 0.  1.
         23    2    1    2    0    0  0.00000000000E+00  0.00000000000E+00  0.00000000000E+00  0.91188000000E+02  0.91188000000E+02 0.  0.
    9900012    2    3    3    0    0  0.63251391539E+01 -0.24854037397E+02  0.26420612361E+02  0.54367091296E+02  0.40000016228E+02 0.  0.
         12    1    3    3    0    0 -0.63251391539E+01  0.24854037397E+02 -0.26420612361E+02  0.36820908704E+02  0.00000000000E+00 0. -1.
         11    1    4    4    0    0  0.67553812163E+00 -0.50154963263E+01  0.15777480903E+01  0.53010229627E+01  0.51100000000E-03 0. -1.
        -11    1    4    4    0    0  0.20031495601E+02 -0.10260387975E+02  0.55781451254E+01  0.23187325863E+02  0.51100000000E-03 0.  1.
         12    1    4    4    0    0 -0.14381894568E+02 -0.95781530964E+01  0.19264719145E+02  0.25878742470E+02  0.00000000000E+00 0. -1.
</event>
<event>
 8    1  0.1238315E-006  0.9118800E+02  0.7816164E-02  0.1184000E+00
        -11   -1    0    0    0    0  0.00000000000E+00  0.00000000000E+00  0.45593999997E+02  0.45594000000E+02  0.51100000000E-03 0.  1.
         11   -1    0    0    0    0 -0.00000000000E+00 -0.00000000000E+00 -0.45593999997E+02  0.45594000000E+02  0.51100000000E-03 0. -1.
         23    2    1    2    0    0 -0.33861802251E-14  0.00000000000E+00 -0.35527136788E-14  0.91188000000E+02  0.91188000000E+02 0.  0.
    9900012    2    3    3    0    0  0.36819484025E+00  0.18246270764E+02  0.31979952758E+02  0.54367090959E+02  0.40000015459E+02 0.  0.
         12    1    3    3    0    0 -0.36819484025E+00 -0.18246270764E+02 -0.31979952758E+02  0.36820909041E+02  0.00000000000E+00 0. -1.
         11    1    4    4    0    0  0.34397798040E+01  0.32698388476E+01  0.63298926935E+01  0.79114772932E+01  0.51100000000E-03 0. -1.
        -11    1    4    4    0    0 -0.16212047576E+02  0.11844395067E+02  0.33099264300E+01  0.20348852409E+02  0.51100000000E-03 0.  1.
        -12    1    4    4    0    0  0.13140462613E+02  0.31320368491E+01  0.22340133634E+02  0.26106761256E+02  0.00000000000E+00 0.  1.
</event>
<event>
 8    1  0.1238315E-006  0.9118800E+02  0.7816164E-02  0.1184000E+00
        -11   -1    0    0    0    0  0.00000000000E+00  0.00000000000E+00  0.45593999997E+02  0.45594000000E+02  0.51100000000E-03 0.  1.
         11   -1    0    0    0    0 -0.00000000000E+00 -0.00000000000E+00 -0.45593999997E+02  0.45594000000E+02  0.51100000000E-03 0. -1.
         23    2    1    2    0    0  0.17763568394E-14 -0.88817841970E-15  0.00000000000E+00  0.91188000000E+02  0.91188000000E+02 0.  0.
    9900012    2    3    3    0    0  0.12206530562E+02  0.26646533658E+01  0.34636405963E+02  0.54367076819E+02  0.39999983223E+02 0.  0.
         12    1    3    3    0    0 -0.12206530562E+02 -0.26646533658E+01 -0.34636405963E+02  0.36820923181E+02  0.00000000000E+00 0. -1.
         11    1    4    4    0    0 -0.47649354351E+01  0.11491959923E+02  0.17246532755E+02  0.21265292025E+02  0.51100000000E-03 0. -1.
        -11    1    4    4    0    0  0.11366692452E+02 -0.10176715433E+02  0.21253032465E+02  0.26162160147E+02  0.51100000000E-03 0.  1.
         12    1    4    4    0    0  0.56047735446E+01  0.13494088759E+01 -0.38631592573E+01  0.69396246475E+01  0.00000000000E+00 0. -1.
</event>
<event>
 8    1  0.1238315E-006  0.9118800E+02  0.7816164E-02  0.1184000E+00
        -11   -1    0    0    0    0  0.00000000000E+00  0.00000000000E+00  0.45593999997E+02  0.45594000000E+02  0.51100000000E-03 0. -1.
         11   -1    0    0    0    0 -0.00000000000E+00 -0.00000000000E+00 -0.45593999997E+02  0.45594000000E+02  0.51100000000E-03 0.  1.
         23    2    1    2    0    0  0.00000000000E+00 -0.17763568394E-14  0.13322676296E-14  0.91188000000E+02  0.91188000000E+02 0.  0.
    9900012    2    3    3    0    0 -0.33385548268E+02 -0.15186888024E+02  0.32465671838E+01  0.54367128208E+02  0.40000100376E+02 0.  0.
        -12    1    3    3    0    0  0.33385548268E+02  0.15186888024E+02 -0.32465671838E+01  0.36820871792E+02  0.00000000000E+00 0.  1.
         11    1    4    4    0    0 -0.24903139381E+02 -0.16791716309E+00  0.15007244564E+02  0.29075968374E+02  0.51100000000E-03 0. -1.
        -11    1    4    4    0    0 -0.11398835809E+02 -0.80894741379E+01 -0.10897278756E+02  0.17723536165E+02  0.51100000000E-03 0.  1.
         12    1    4    4    0    0  0.29164269220E+01 -0.69294967228E+01 -0.86339862430E+00  0.75676236698E+01  0.00000000000E+00 0. -1.
</event>
<event>
 8    1  0.1238315E-006  0.9118800E+02  0.7816164E-02  0.1184000E+00
        -11   -1    0    0    0    0  0.00000000000E+00  0.00000000000E+00  0.45593999997E+02  0.45594000000E+02  0.51100000000E-03 0.  1.
         11   -1    0    0    0    0 -0.00000000000E+00 -0.00000000000E+00 -0.45593999997E+02  0.45594000000E+02  0.51100000000E-03 0. -1.
         23    2    1    2    0    0  0.35527136788E-14  0.17763568394E-14  0.00000000000E+00  0.91188000000E+02  0.91188000000E+02 0.  0.
    9900012    2    3    3    0    0  0.24577037374E+02  0.96627434864E+01  0.25658898742E+02  0.54367102912E+02  0.40000042708E+02 0.  0.
         12    1    3    3    0    0 -0.24577037374E+02 -0.96627434864E+01 -0.25658898742E+02  0.36820897088E+02  0.00000000000E+00 0. -1.
         11    1    4    4    0    0  0.20830469155E+02 -0.14338357568E+01  0.13227656585E+02  0.24717103981E+02  0.51100000000E-03 0.  1.
        -11    1    4    4    0    0  0.11594652334E+02  0.40467476149E+00  0.11529476591E+02  0.16356300166E+02  0.51100000000E-03 0. -1.
         12    1    4    4    0    0 -0.78480841151E+01  0.10691904482E+02  0.90176556569E+00  0.13293698765E+02  0.00000000000E+00 0. -1.
</event>
<event>
 8    1  0.1238315E-006  0.9118800E+02  0.7816164E-02  0.1184000E+00
        -11   -1    0    0    0    0  0.00000000000E+00  0.00000000000E+00  0.45593999997E+02  0.45594000000E+02  0.51100000000E-03 0. -1.
         11   -1    0    0    0    0 -0.00000000000E+00 -0.00000000000E+00 -0.45593999997E+02  0.45594000000E+02  0.51100000000E-03 0.  1.
         23    2    1    2    0    0 -0.71054273576E-14  0.71054273576E-14  0.17763568394E-14  0.91188000000E+02  0.91188000000E+02 0.  0.
    9900012    2    3    3    0    0  0.25168640736E+02 -0.26171599855E+02 -0.61127579033E+01  0.54367096635E+02  0.40000028398E+02 0.  0.
        -12    1    3    3    0    0 -0.25168640736E+02  0.26171599855E+02  0.61127579033E+01  0.36820903365E+02  0.00000000000E+00 0.  1.
         11    1    4    4    0    0  0.21487323491E+02 -0.10215631792E+02  0.81136296948E+01  0.25137525550E+02  0.51100000000E-03 0. -1.
        -11    1    4    4    0    0  0.35235463853E+01 -0.81216028765E+01  0.37538807006E+01  0.96159988035E+01  0.51100000000E-03 0.  1.
        -12    1    4    4    0    0  0.15777085967E+00 -0.78343651870E+01 -0.17980268299E+02  0.19613572281E+02  0.00000000000E+00 0.  1.
</event>
<event>
 8    1  0.1238315E-006  0.9118800E+02  0.7816164E-02  0.1184000E+00
        -11   -1    0    0    0    0  0.00000000000E+00  0.00000000000E+00  0.45593999997E+02  0.45594000000E+02  0.51100000000E-03 0.  1.
         11   -1    0    0    0    0 -0.00000000000E+00 -0.00000000000E+00 -0.45593999997E+02  0.45594000000E+02  0.51100000000E-03 0. -1.
         23    2    1    2    0    0  0.35527136788E-14  0.88817841970E-15  0.35527136788E-14  0.91188000000E+02  0.91188000000E+02 0.  0.
    9900012    2    3    3    0    0 -0.26380500390E+02 -0.58901111046E+01 -0.25003106884E+02  0.54367087959E+02  0.40000008621E+02 0.  0.
        -12    1    3    3    0    0  0.26380500390E+02  0.58901111046E+01  0.25003106884E+02  0.36820912041E+02  0.00000000000E+00 0.  1.
         11    1    4    4    0    0 -0.10357301161E+02  0.12280452189E+01 -0.61771681896E+01  0.12121847611E+02  0.51100000000E-03 0. -1.
        -11    1    4    4    0    0 -0.25560235139E+02 -0.19541492492E+01 -0.78377240382E+01  0.26806235059E+02  0.51100000000E-03 0.  1.
         12    1    4    4    0    0  0.95370359099E+01 -0.51640070742E+01 -0.10988214656E+02  0.15439005290E+02  0.00000000000E+00 0. -1.
</event>
<event>
 8    1  0.1238315E-006  0.9118800E+02  0.7816164E-02  0.1184000E+00
        -11   -1    0    0    0    0  0.00000000000E+00  0.00000000000E+00  0.45593999997E+02  0.45594000000E+02  0.51100000000E-03 0. -1.
         11   -1    0    0    0    0 -0.00000000000E+00 -0.00000000000E+00 -0.45593999997E+02  0.45594000000E+02  0.51100000000E-03 0.  1.
         23    2    1    2    0    0  0.00000000000E+00 -0.17763568394E-14  0.00000000000E+00  0.91188000000E+02  0.91188000000E+02 0.  0.
    9900012    2    3    3    0    0  0.75020785821E+01  0.13680848265E+02  0.33351675936E+02  0.54367067366E+02  0.39999961674E+02 0.  0.
        -12    1    3    3    0    0 -0.75020785821E+01 -0.13680848265E+02 -0.33351675936E+02  0.36820932634E+02  0.00000000000E+00 0.  1.
         11    1    4    4    0    0 -0.74930281588E+01 -0.59895014364E+01  0.17502296669E+01  0.97510462307E+01  0.51100000000E-03 0. -1.
        -11    1    4    4    0    0 -0.18414191766E+01  0.13309159094E+02  0.14888950504E+02  0.20055058906E+02  0.51100000000E-03 0.  1.
         12    1    4    4    0    0  0.16836525917E+02  0.63611906069E+01  0.16712495765E+02  0.24560962229E+02  0.00000000000E+00 0. -1.
</event>
<event>
 8    1  0.1238315E-006  0.9118800E+02  0.7816164E-02  0.1184000E+00
        -11   -1    0    0    0    0  0.00000000000E+00  0.00000000000E+00  0.45593999997E+02  0.45594000000E+02  0.51100000000E-03 0.  1.
         11   -1    0    0    0    0 -0.00000000000E+00 -0.00000000000E+00 -0.45593999997E+02  0.45594000000E+02  0.51100000000E-03 0. -1.
         23    2    1    2    0    0  0.00000000000E+00  0.00000000000E+00  0.00000000000E+00  0.91188000000E+02  0.91188000000E+02 0.  0.
    9900012    2    3    3    0    0  0.16751085964E+02  0.24673276411E+02  0.21596515218E+02  0.54367096706E+02  0.40000028560E+02 0.  0.
         12    1    3    3    0    0 -0.16751085964E+02 -0.24673276411E+02 -0.21596515218E+02  0.36820903294E+02  0.00000000000E+00 0. -1.
         11    1    4    4    0    0 -0.39363698811E+01 -0.21721873177E+01  0.14551830897E+01  0.47255649049E+01  0.51100000000E-03 0. -1.
        -11    1    4    4    0    0  0.22189012355E+02  0.29895790573E+02  0.24156176555E+02  0.44380529845E+02  0.51100000000E-03 0.  1.
        -12    1    4    4    0    0 -0.15015565106E+01 -0.30503268438E+01 -0.40148444271E+01  0.52610019561E+01  0.00000000000E+00 0.  1.
</event>
<event>
 8    1  0.1238315E-006  0.9118800E+02  0.7816164E-02  0.1184000E+00
        -11   -1    0    0    0    0  0.00000000000E+00  0.00000000000E+00  0.45593999997E+02  0.45594000000E+02  0.51100000000E-03 0. -1.
         11   -1    0    0    0    0 -0.00000000000E+00 -0.00000000000E+00 -0.45593999997E+02  0.45594000000E+02  0.51100000000E-03 0.  1.
         23    2    1    2    0    0 -0.88817841970E-15  0.71054273576E-14  0.71054273576E-14  0.91188000000E+02  0.91188000000E+02 0.  0.
    9900012    2    3    3    0    0 -0.28194209189E+01 -0.14666764734E+02 -0.33655853913E+02  0.54367087128E+02  0.40000006726E+02 0.  0.
         12    1    3    3    0    0  0.28194209189E+01  0.14666764734E+02  0.33655853913E+02  0.36820912872E+02  0.00000000000E+00 0. -1.
         11    1    4    4    0    0 -0.58082841055E+01  0.20996488111E+01 -0.41995646057E+01  0.74686700636E+01  0.51100000000E-03 0. -1.
        -11    1    4    4    0    0  0.72577457426E+01  0.68194984708E+01 -0.14963029978E+01  0.10070717729E+02  0.51100000000E-03 0.  1.
        -12    1    4    4    0    0 -0.42688825559E+01 -0.23585912016E+02 -0.27959986310E+02  0.36827699335E+02  0.00000000000E+00 0.  1.
</event>
<event>
 8    1  0.1238315E-006  0.9118800E+02  0.7816164E-02  0.1184000E+00
        -11   -1    0    0    0    0  0.00000000000E+00  0.00000000000E+00  0.45593999997E+02  0.45594000000E+02  0.51100000000E-03 0.  1.
         11   -1    0    0    0    0 -0.00000000000E+00 -0.00000000000E+00 -0.45593999997E+02  0.45594000000E+02  0.51100000000E-03 0. -1.
         23    2    1    2    0    0  0.00000000000E+00  0.00000000000E+00  0.00000000000E+00  0.91188000000E+02  0.91188000000E+02 0.  0.
    9900012    2    3    3    0    0 -0.11222816533E+02  0.33475309959E+02 -0.10451416595E+02  0.54367080720E+02  0.39999992116E+02 0.  0.
        -12    1    3    3    0    0  0.11222816533E+02 -0.33475309959E+02  0.10451416595E+02  0.36820919280E+02  0.00000000000E+00 0.  1.
         11    1    4    4    0    0  0.55371243381E+01  0.18281531643E+02  0.73207762818E+00  0.19115702526E+02  0.51100000000E-03 0. -1.
        -11    1    4    4    0    0 -0.13095292226E+01  0.14123852139E+02 -0.13511755517E+02  0.19589936280E+02  0.51100000000E-03 0.  1.
        -12    1    4    4    0    0 -0.15450411649E+02  0.10699261764E+01  0.23282612939E+01  0.15661441913E+02  0.00000000000E+00 0.  1.
</event>
<event>
 8    1  0.1238315E-006  0.9118800E+02  0.7816164E-02  0.1184000E+00
        -11   -1    0    0    0    0  0.00000000000E+00  0.00000000000E+00  0.45593999997E+02  0.45594000000E+02  0.51100000000E-03 0.  1.
         11   -1    0    0    0    0 -0.00000000000E+00 -0.00000000000E+00 -0.45593999997E+02  0.45594000000E+02  0.51100000000E-03 0. -1.
         23    2    1    2    0    0  0.35527136788E-14  0.00000000000E+00  0.44408920985E-15  0.91188000000E+02  0.91188000000E+02 0.  0.
    9900012    2    3    3    0    0 -0.23939203334E+02  0.27895111385E+02  0.21343687864E+01  0.54367106127E+02  0.40000050039E+02 0.  0.
        -12    1    3    3    0    0  0.23939203334E+02 -0.27895111385E+02 -0.21343687864E+01  0.36820893873E+02  0.00000000000E+00 0.  1.
         11    1    4    4    0    0 -0.38343505355E+01  0.78914751001E+01 -0.13989108863E+02  0.16512806858E+02  0.51100000000E-03 0. -1.
        -11    1    4    4    0    0 -0.86715698562E+01  0.40137001573E+01  0.15474016686E+02  0.18186563870E+02  0.51100000000E-03 0.  1.
        -12    1    4    4    0    0 -0.11433282942E+02  0.15989936128E+02  0.64946096345E+00  0.19667735400E+02  0.00000000000E+00 0.  1.
</event>
<event>
 8    1  0.1238315E-006  0.9118800E+02  0.7816164E-02  0.1184000E+00
        -11   -1    0    0    0    0  0.00000000000E+00  0.00000000000E+00  0.45593999997E+02  0.45594000000E+02  0.51100000000E-03 0. -1.
         11   -1    0    0    0    0 -0.00000000000E+00 -0.00000000000E+00 -0.45593999997E+02  0.45594000000E+02  0.51100000000E-03 0.  1.
         23    2    1    2    0    0 -0.17763568394E-14  0.17763568394E-14 -0.71054273576E-14  0.91188000000E+02  0.91188000000E+02 0.  0.
    9900012    2    3    3    0    0 -0.58669752454E+01  0.13873944866E+02 -0.33598704401E+02  0.54367072769E+02  0.39999973992E+02 0.  0.
         12    1    3    3    0    0  0.58669752454E+01 -0.13873944866E+02  0.33598704401E+02  0.36820927231E+02  0.00000000000E+00 0. -1.
         11    1    4    4    0    0  0.83210565672E+00  0.80011632768E+01  0.51488411460E+01  0.95509988490E+01  0.51100000000E-03 0. -1.
        -11    1    4    4    0    0  0.51018539807E+01  0.76392640563E+01 -0.94374077090E+01  0.13170115181E+02  0.51100000000E-03 0.  1.
        -12    1    4    4    0    0 -0.11800934883E+02 -0.17664824667E+01 -0.29310137838E+02  0.31645958739E+02  0.00000000000E+00 0.  1.
</event>
<event>
 8    1  0.1238315E-006  0.9118800E+02  0.7816164E-02  0.1184000E+00
        -11   -1    0    0    0    0  0.00000000000E+00  0.00000000000E+00  0.45593999997E+02  0.45594000000E+02  0.51100000000E-03 0. -1.
         11   -1    0    0    0    0 -0.00000000000E+00 -0.00000000000E+00 -0.45593999997E+02  0.45594000000E+02  0.51100000000E-03 0.  1.
         23    2    1    2    0    0  0.00000000000E+00  0.00000000000E+00  0.00000000000E+00  0.91188000000E+02  0.91188000000E+02 0.  0.
    9900012    2    3    3    0    0 -0.20255727239E+02 -0.17719204858E+02 -0.25129991292E+02  0.54367066157E+02  0.39999958918E+02 0.  0.
         12    1    3    3    0    0  0.20255727239E+02  0.17719204858E+02  0.25129991292E+02  0.36820933843E+02  0.00000000000E+00 0. -1.
         11    1    4    4    0    0  0.12972603782E+01 -0.43424660723E+01 -0.67403264529E+00  0.45819446031E+01  0.51100000000E-03 0. -1.
        -11    1    4    4    0    0  0.35939019610E+01 -0.14612964340E+02 -0.18619267082E+02  0.23940174708E+02  0.51100000000E-03 0.  1.
        -12    1    4    4    0    0 -0.25146889578E+02  0.12362255548E+01 -0.58366915641E+01  0.25844946846E+02  0.00000000000E+00 0.  1.
</event>
<event>
 8    1  0.1238315E-006  0.9118800E+02  0.7816164E-02  0.1184000E+00
        -11   -1    0    0    0    0  0.00000000000E+00  0.00000000000E+00  0.45593999997E+02  0.45594000000E+02  0.51100000000E-03 0. -1.
         11   -1    0    0    0    0 -0.00000000000E+00 -0.00000000000E+00 -0.45593999997E+02  0.45594000000E+02  0.51100000000E-03 0.  1.
         23    2    1    2    0    0  0.00000000000E+00  0.00000000000E+00 -0.35527136788E-14  0.91188000000E+02  0.91188000000E+02 0.  0.
    9900012    2    3    3    0    0  0.74609422407E+01  0.16785308163E+02 -0.31911880818E+02  0.54367077054E+02  0.39999983760E+02 0.  0.
         12    1    3    3    0    0 -0.74609422407E+01 -0.16785308163E+02  0.31911880818E+02  0.36820922946E+02  0.00000000000E+00 0. -1.
         11    1    4    4    0    0 -0.45378739569E+01  0.27718906703E+01 -0.98984493020E+01  0.11236323989E+02  0.51100000000E-03 0. -1.
        -11    1    4    4    0    0  0.37631266529E+01  0.22317362582E+02 -0.21813974879E+02  0.31433664997E+02  0.51100000000E-03 0.  1.
        -12    1    4    4    0    0  0.82356895447E+01 -0.83039450896E+01 -0.19945663695E+00  0.11697088068E+02  0.00000000000E+00 0.  1.
</event>
<event>
 8    1  0.1238315E-006  0.9118800E+02  0.7816164E-02  0.1184000E+00
        -11   -1    0    0    0    0  0.00000000000E+00  0.00000000000E+00  0.45593999997E+02  0.45594000000E+02  0.51100000000E-03 0.  1.
         11   -1    0    0    0    0 -0.00000000000E+00 -0.00000000000E+00 -0.45593999997E+02  0.45594000000E+02  0.51100000000E-03 0. -1.
         23    2    1    2    0    0 -0.88817841970E-15  0.00000000000E+00  0.17763568394E-14  0.91188000000E+02  0.91188000000E+02 0.  0.
    9900012    2    3    3    0    0 -0.39297800013E+01 -0.35812992703E+02  0.76003877114E+01  0.54367088678E+02  0.40000010259E+02 0.  0.
         12    1    3    3    0    0  0.39297800013E+01  0.35812992703E+02 -0.76003877114E+01  0.36820911322E+02  0.00000000000E+00 0. -1.
         11    1    4    4    0    0 -0.42209325860E+01 -0.26644580470E+02 -0.59873422972E+01  0.27633280811E+02  0.51100000000E-03 0. -1.
        -11    1    4    4    0    0  0.91741409688E+01  0.12700257696E+01  0.63922716850E+01  0.11253397955E+02  0.51100000000E-03 0.  1.
         12    1    4    4    0    0 -0.88829883841E+01 -0.10438438003E+02  0.71954583236E+01  0.15480409912E+02  0.00000000000E+00 0. -1.
</event>
<event>
 8    1  0.1238315E-006  0.9118800E+02  0.7816164E-02  0.1184000E+00
        -11   -1    0    0    0    0  0.00000000000E+00  0.00000000000E+00  0.45593999997E+02  0.45594000000E+02  0.51100000000E-03 0. -1.
         11   -1    0    0    0    0 -0.00000000000E+00 -0.00000000000E+00 -0.45593999997E+02  0.45594000000E+02  0.51100000000E-03 0.  1.
         23    2    1    2    0    0 -0.35527136788E-14  0.00000000000E+00 -0.35527136788E-14  0.91188000000E+02  0.91188000000E+02 0.  0.
    9900012    2    3    3    0    0 -0.28874265281E+02 -0.34288274314E+01  0.22589835622E+02  0.54367072167E+02  0.39999972619E+02 0.  0.
        -12    1    3    3    0    0  0.28874265281E+02  0.34288274314E+01 -0.22589835622E+02  0.36820927833E+02  0.00000000000E+00 0.  1.
         11    1    4    4    0    0 -0.10170907426E+02 -0.13028817533E+02  0.14794161784E-01  0.16528692123E+02  0.51100000000E-03 0. -1.
        -11    1    4    4    0    0 -0.28160927968E+01 -0.65050703290E+01  0.89968780440E+01  0.11453826148E+02  0.51100000000E-03 0.  1.
         12    1    4    4    0    0 -0.15887265058E+02  0.16105060431E+02  0.13578163416E+02  0.26384553896E+02  0.00000000000E+00 0. -1.
</event>
<event>
 8    1  0.1238315E-006  0.9118800E+02  0.7816164E-02  0.1184000E+00
        -11   -1    0    0    0    0  0.00000000000E+00  0.00000000000E+00  0.45593999997E+02  0.45594000000E+02  0.51100000000E-03 0. -1.
         11   -1    0    0    0    0 -0.00000000000E+00 -0.00000000000E+00 -0.45593999997E+02  0.45594000000E+02  0.51100000000E-03 0.  1.
         23    2    1    2    0    0  0.35527136788E-14  0.00000000000E+00  0.71054273576E-14  0.91188000000E+02  0.91188000000E+02 0.  0.
    9900012    2    3    3    0    0  0.20140104521E+02  0.26271912633E+02  0.16122799754E+02  0.54367056565E+02  0.39999937052E+02 0.  0.
        -12    1    3    3    0    0 -0.20140104521E+02 -0.26271912633E+02 -0.16122799754E+02  0.36820943435E+02  0.00000000000E+00 0.  1.
         11    1    4    4    0    0  0.10207317480E+02  0.59478147103E+01  0.23045939409E+02  0.25897512496E+02  0.51100000000E-03 0. -1.
        -11    1    4    4    0    0  0.51132006459E+01 -0.13112787895E+01 -0.10786563195E+00  0.52797640255E+01  0.51100000000E-03 0.  1.
        -12    1    4    4    0    0  0.48195863950E+01  0.21635376712E+02 -0.68152740225E+01  0.23189780044E+02  0.00000000000E+00 0.  1.
</event>
<event>
 8    1  0.1238315E-006  0.9118800E+02  0.7816164E-02  0.1184000E+00
        -11   -1    0    0    0    0  0.00000000000E+00  0.00000000000E+00  0.45593999997E+02  0.45594000000E+02  0.51100000000E-03 0.  1.
         11   -1    0    0    0    0 -0.00000000000E+00 -0.00000000000E+00 -0.45593999997E+02  0.45594000000E+02  0.51100000000E-03 0. -1.
         23    2    1    2    0    0  0.17763568394E-14 -0.35527136788E-14 -0.17763568394E-14  0.91188000000E+02  0.91188000000E+02 0.  0.
    9900012    2    3    3    0    0 -0.13846087067E+02 -0.31044109340E+02 -0.14153777987E+02  0.54367078188E+02  0.39999986344E+02 0.  0.
        -12    1    3    3    0    0  0.13846087067E+02  0.31044109340E+02  0.14153777987E+02  0.36820921812E+02  0.00000000000E+00 0.  1.
         11    1    4    4    0    0 -0.43252704990E+01 -0.57382511879E+01 -0.11149764549E+02  0.13264717915E+02  0.51100000000E-03 0. -1.
        -11    1    4    4    0    0  0.43333847543E+01 -0.19395964529E+02  0.90240982012E+01  0.21826956087E+02  0.51100000000E-03 0.  1.
        -12    1    4    4    0    0 -0.13854201323E+02 -0.59098936235E+01 -0.12028111638E+02  0.19275404186E+02  0.00000000000E+00 0.  1.
</event>
<event>
 8    1  0.1238315E-006  0.9118800E+02  0.7816164E-02  0.1184000E+00
        -11   -1    0    0    0    0  0.00000000000E+00  0.00000000000E+00  0.45593999997E+02  0.45594000000E+02  0.51100000000E-03 0. -1.
         11   -1    0    0    0    0 -0.00000000000E+00 -0.00000000000E+00 -0.45593999997E+02  0.45594000000E+02  0.51100000000E-03 0.  1.
         23    2    1    2    0    0  0.35527136788E-14 -0.35527136788E-14 -0.17763568394E-14  0.91188000000E+02  0.91188000000E+02 0.  0.
    9900012    2    3    3    0    0  0.25982853865E+02 -0.23035935204E+02 -0.12248057919E+02  0.54367110161E+02  0.40000059235E+02 0.  0.
         12    1    3    3    0    0 -0.25982853865E+02  0.23035935204E+02  0.12248057919E+02  0.36820889839E+02  0.00000000000E+00 0. -1.
         11    1    4    4    0    0  0.25351640243E+02 -0.23875934914E+00 -0.12504015844E+02  0.28268588248E+02  0.51100000000E-03 0. -1.
        -11    1    4    4    0    0  0.58618787018E-01  0.13692321202E+01 -0.12817615656E+01  0.18764716180E+01  0.51100000000E-03 0.  1.
         12    1    4    4    0    0  0.57259483472E+00 -0.24166407975E+02  0.15377194905E+01  0.24222050295E+02  0.00000000000E+00 0. -1.
</event>
<event>
 8    1  0.1238315E-006  0.9118800E+02  0.7816164E-02  0.1184000E+00
        -11   -1    0    0    0    0  0.00000000000E+00  0.00000000000E+00  0.45593999997E+02  0.45594000000E+02  0.51100000000E-03 0. -1.
         11   -1    0    0    0    0 -0.00000000000E+00 -0.00000000000E+00 -0.45593999997E+02  0.45594000000E+02  0.51100000000E-03 0.  1.
         23    2    1    2    0    0  0.00000000000E+00  0.00000000000E+00  0.00000000000E+00  0.91188000000E+02  0.91188000000E+02 0.  0.
    9900012    2    3    3    0    0 -0.45016534693E+01  0.11524480105E+02  0.34679985969E+02  0.54367082677E+02  0.39999996579E+02 0.  0.
        -12    1    3    3    0    0  0.45016534693E+01 -0.11524480105E+02 -0.34679985969E+02  0.36820917323E+02  0.00000000000E+00 0.  1.
         11    1    4    4    0    0  0.47121116492E+01  0.14717264832E+02  0.18300120193E+02  0.23951957742E+02  0.51100000000E-03 0. -1.
        -11    1    4    4    0    0 -0.88574618832E+00 -0.14311196177E+01  0.20769539350E+02  0.20837620180E+02  0.51100000000E-03 0.  1.
        -12    1    4    4    0    0 -0.83280189302E+01 -0.17616651090E+01 -0.43896735740E+01  0.95775047557E+01  0.00000000000E+00 0.  1.
</event>
<event>
 8    1  0.1238315E-006  0.9118800E+02  0.7816164E-02  0.1184000E+00
        -11   -1    0    0    0    0  0.00000000000E+00  0.00000000000E+00  0.45593999997E+02  0.45594000000E+02  0.51100000000E-03 0. -1.
         11   -1    0    0    0    0 -0.00000000000E+00 -0.00000000000E+00 -0.45593999997E+02  0.45594000000E+02  0.51100000000E-03 0.  1.
         23    2    1    2    0    0  0.35527136788E-14  0.00000000000E+00  0.35527136788E-14  0.91188000000E+02  0.91188000000E+02 0.  0.
    9900012    2    3    3    0    0 -0.12947105336E+02  0.22399670889E+02  0.26199421230E+02  0.54367048555E+02  0.39999918791E+02 0.  0.
        -12    1    3    3    0    0  0.12947105336E+02 -0.22399670889E+02 -0.26199421230E+02  0.36820951445E+02  0.00000000000E+00 0.  1.
         11    1    4    4    0    0 -0.15702334337E+01  0.60237129622E+01  0.16839127445E+02  0.17952909632E+02  0.51100000000E-03 0. -1.
        -11    1    4    4    0    0  0.72138707049E+01  0.12951822142E+02 -0.99780991340E+00  0.14858844242E+02  0.51100000000E-03 0.  1.
        -12    1    4    4    0    0 -0.18590742607E+02  0.34241357848E+01  0.10358103699E+02  0.21555294681E+02  0.00000000000E+00 0.  1.
</event>
<event>
 8    1  0.1238315E-006  0.9118800E+02  0.7816164E-02  0.1184000E+00
        -11   -1    0    0    0    0  0.00000000000E+00  0.00000000000E+00  0.45593999997E+02  0.45594000000E+02  0.51100000000E-03 0. -1.
         11   -1    0    0    0    0 -0.00000000000E+00 -0.00000000000E+00 -0.45593999997E+02  0.45594000000E+02  0.51100000000E-03 0.  1.
         23    2    1    2    0    0  0.00000000000E+00  0.35527136788E-14  0.00000000000E+00  0.91188000000E+02  0.91188000000E+02 0.  0.
    9900012    2    3    3    0    0 -0.48794400210E+01  0.25923433737E+02  0.25689425046E+02  0.54367083243E+02  0.39999997869E+02 0.  0.
        -12    1    3    3    0    0  0.48794400210E+01 -0.25923433737E+02 -0.25689425046E+02  0.36820916757E+02  0.00000000000E+00 0.  1.
         11    1    4    4    0    0  0.96469070105E+00 -0.98675537069E+00  0.25062765836E+02  0.25100727996E+02  0.51100000000E-03 0. -1.
        -11    1    4    4    0    0 -0.74774841698E+01  0.17106475809E+02  0.33355235965E+01  0.18964967757E+02  0.51100000000E-03 0.  1.
         12    1    4    4    0    0  0.16333534478E+01  0.98037132994E+01 -0.27088643872E+01  0.10301387490E+02  0.00000000000E+00 0. -1.
</event>
<event>
 8    1  0.1238315E-006  0.9118800E+02  0.7816164E-02  0.1184000E+00
        -11   -1    0    0    0    0  0.00000000000E+00  0.00000000000E+00  0.45593999997E+02  0.45594000000E+02  0.51100000000E-03 0. -1.
         11   -1    0    0    0    0 -0.00000000000E+00 -0.00000000000E+00 -0.45593999997E+02  0.45594000000E+02  0.51100000000E-03 0.  1.
         23    2    1    2    0    0  0.00000000000E+00 -0.17763568394E-14  0.00000000000E+00  0.91188000000E+02  0.91188000000E+02 0.  0.
    9900012    2    3    3    0    0  0.59392367420E+01 -0.10800994585E+02 -0.34696452637E+02  0.54367084168E+02  0.39999999978E+02 0.  0.
         12    1    3    3    0    0 -0.59392367420E+01  0.10800994585E+02  0.34696452637E+02  0.36820915832E+02  0.00000000000E+00 0. -1.
         11    1    4    4    0    0  0.25603570447E+01  0.38279545207E+01  0.20314030582E+01  0.50334146119E+01  0.51100000000E-03 0. -1.
        -11    1    4    4    0    0  0.99031484181E+01  0.37078707595E+01 -0.23589763874E+02  0.25851452842E+02  0.51100000000E-03 0.  1.
         12    1    4    4    0    0 -0.65242687209E+01 -0.18336819865E+02 -0.13138091822E+02  0.23482216714E+02  0.00000000000E+00 0. -1.
</event>
<event>
 8    1  0.1238315E-006  0.9118800E+02  0.7816164E-02  0.1184000E+00
        -11   -1    0    0    0    0  0.00000000000E+00  0.00000000000E+00  0.45593999997E+02  0.45594000000E+02  0.51100000000E-03 0.  1.
         11   -1    0    0    0    0 -0.00000000000E+00 -0.00000000000E+00 -0.45593999997E+02  0.45594000000E+02  0.51100000000E-03 0. -1.
         23    2    1    2    0    0  0.35527136788E-14  0.00000000000E+00 -0.17763568394E-14  0.91188000000E+02  0.91188000000E+02 0.  0.
    9900012    2    3    3    0    0  0.99750888448E+01 -0.31875391281E+02 -0.15499567681E+02  0.54367087938E+02  0.40000008572E+02 0.  0.
        -12    1    3    3    0    0 -0.99750888448E+01  0.31875391281E+02  0.15499567681E+02  0.36820912062E+02  0.00000000000E+00 0.  1.
         11    1    4    4    0    0  0.19812118062E+02 -0.32600769559E+02 -0.19762332320E+02  0.42963705345E+02  0.51100000000E-03 0. -1.
        -11    1    4    4    0    0 -0.27603377823E+01 -0.13204788556E+01  0.40116293074E+00  0.30861077490E+01  0.51100000000E-03 0.  1.
         12    1    4    4    0    0 -0.70766914349E+01  0.20458571337E+01  0.38616017087E+01  0.83172748441E+01  0.00000000000E+00 0. -1.
</event>
<event>
 8    1  0.1238315E-006  0.9118800E+02  0.7816164E-02  0.1184000E+00
        -11   -1    0    0    0    0  0.00000000000E+00  0.00000000000E+00  0.45593999997E+02  0.45594000000E+02  0.51100000000E-03 0.  1.
         11   -1    0    0    0    0 -0.00000000000E+00 -0.00000000000E+00 -0.45593999997E+02  0.45594000000E+02  0.51100000000E-03 0. -1.
         23    2    1    2    0    0  0.88817841970E-15  0.00000000000E+00  0.00000000000E+00  0.91188000000E+02  0.91188000000E+02 0.  0.
    9900012    2    3    3    0    0  0.77178064859E+01  0.29193582271E+02  0.21070100001E+02  0.54367097012E+02  0.40000029259E+02 0.  0.
         12    1    3    3    0    0 -0.77178064859E+01 -0.29193582271E+02 -0.21070100001E+02  0.36820902988E+02  0.00000000000E+00 0. -1.
         11    1    4    4    0    0 -0.14180855550E+01  0.27535946805E+02 -0.26906807447E+01  0.27703413079E+02  0.51100000000E-03 0. -1.
        -11    1    4    4    0    0  0.68740298569E+01  0.46209530876E+01  0.14834532413E+02  0.16990257387E+02  0.51100000000E-03 0.  1.
        -12    1    4    4    0    0  0.22618621840E+01 -0.29633176210E+01  0.89262483323E+01  0.96734265466E+01  0.00000000000E+00 0.  1.
</event>
<event>
 8    1  0.1238315E-006  0.9118800E+02  0.7816164E-02  0.1184000E+00
        -11   -1    0    0    0    0  0.00000000000E+00  0.00000000000E+00  0.45593999997E+02  0.45594000000E+02  0.51100000000E-03 0.  1.
         11   -1    0    0    0    0 -0.00000000000E+00 -0.00000000000E+00 -0.45593999997E+02  0.45594000000E+02  0.51100000000E-03 0. -1.
         23    2    1    2    0    0  0.00000000000E+00  0.00000000000E+00  0.00000000000E+00  0.91188000000E+02  0.91188000000E+02 0.  0.
    9900012    2    3    3    0    0  0.11061456164E+02 -0.34385990232E+02  0.71435025782E+01  0.54367058054E+02  0.39999940446E+02 0.  0.
        -12    1    3    3    0    0 -0.11061456164E+02  0.34385990232E+02 -0.71435025782E+01  0.36820941946E+02  0.00000000000E+00 0.  1.
         11    1    4    4    0    0  0.13688893779E+02 -0.21603548677E+02 -0.18887495828E+01  0.25645009330E+02  0.51100000000E-03 0. -1.
        -11    1    4    4    0    0 -0.17988055655E+01  0.27047034260E+01 -0.61900659750E+01  0.69905678683E+01  0.51100000000E-03 0.  1.
        -12    1    4    4    0    0 -0.82863204966E+00 -0.15487144981E+02  0.15222318136E+02  0.21731480856E+02  0.00000000000E+00 0.  1.
</event>
<event>
 8    1  0.1238315E-006  0.9118800E+02  0.7816164E-02  0.1184000E+00
        -11   -1    0    0    0    0  0.00000000000E+00  0.00000000000E+00  0.45593999997E+02  0.45594000000E+02  0.51100000000E-03 0.  1.
         11   -1    0    0    0    0 -0.00000000000E+00 -0.00000000000E+00 -0.45593999997E+02  0.45594000000E+02  0.51100000000E-03 0. -1.
         23    2    1    2    0    0  0.00000000000E+00  0.00000000000E+00  0.00000000000E+00  0.91188000000E+02  0.91188000000E+02 0.  0.
    9900012    2    3    3    0    0 -0.11550339671E+02 -0.15442328396E+02  0.31367244984E+02  0.54367083245E+02  0.39999997873E+02 0.  0.
         12    1    3    3    0    0  0.11550339671E+02  0.15442328396E+02 -0.31367244984E+02  0.36820916755E+02  0.00000000000E+00 0. -1.
         11    1    4    4    0    0 -0.15403030832E+02 -0.10404873258E+02 -0.84211226935E-01  0.18588217723E+02  0.51100000000E-03 0. -1.
        -11    1    4    4    0    0 -0.44740484568E+01 -0.71786018433E+01  0.15467701824E+02  0.17629498972E+02  0.51100000000E-03 0.  1.
        -12    1    4    4    0    0  0.83267396174E+01  0.21411467057E+01  0.15983754387E+02  0.18149366550E+02  0.00000000000E+00 0.  1.
</event>
<event>
 8    1  0.1238315E-006  0.9118800E+02  0.7816164E-02  0.1184000E+00
        -11   -1    0    0    0    0  0.00000000000E+00  0.00000000000E+00  0.45593999997E+02  0.45594000000E+02  0.51100000000E-03 0.  1.
         11   -1    0    0    0    0 -0.00000000000E+00 -0.00000000000E+00 -0.45593999997E+02  0.45594000000E+02  0.51100000000E-03 0. -1.
         23    2    1    2    0    0 -0.35527136788E-14  0.00000000000E+00  0.00000000000E+00  0.91188000000E+02  0.91188000000E+02 0.  0.
    9900012    2    3    3    0    0 -0.22827728596E+02 -0.23901889619E+02 -0.16228799102E+02  0.54367089630E+02  0.40000012429E+02 0.  0.
        -12    1    3    3    0    0  0.22827728596E+02  0.23901889619E+02  0.16228799102E+02  0.36820910370E+02  0.00000000000E+00 0.  1.
         11    1    4    4    0    0 -0.26407952714E+02 -0.16046346161E+02 -0.11509583005E+02  0.32974773583E+02  0.51100000000E-03 0. -1.
        -11    1    4    4    0    0  0.46284909829E+01 -0.10372480603E+01 -0.11052651932E+02  0.12027465539E+02  0.51100000000E-03 0.  1.
        -12    1    4    4    0    0 -0.10482668650E+01 -0.68182953976E+01  0.63334358343E+01  0.93648505069E+01  0.00000000000E+00 0.  1.
</event>
<event>
 8    1  0.1238315E-006  0.9118800E+02  0.7816164E-02  0.1184000E+00
        -11   -1    0    0    0    0  0.00000000000E+00  0.00000000000E+00  0.45593999997E+02  0.45594000000E+02  0.51100000000E-03 0.  1.
         11   -1    0    0    0    0 -0.00000000000E+00 -0.00000000000E+00 -0.45593999997E+02  0.45594000000E+02  0.51100000000E-03 0. -1.
         23    2    1    2    0    0  0.17763568394E-14  0.17763568394E-14  0.00000000000E+00  0.91188000000E+02  0.91188000000E+02 0.  0.
    9900012    2    3    3    0    0  0.66111201000E+01  0.98313052354E+01  0.34862858167E+02  0.54367077263E+02  0.39999984237E+02 0.  0.
         12    1    3    3    0    0 -0.66111201000E+01 -0.98313052354E+01 -0.34862858167E+02  0.36820922737E+02  0.00000000000E+00 0. -1.
         11    1    4    4    0    0 -0.16343465871E+01  0.29513772861E+01 -0.52234558790E-01  0.33740843738E+01  0.51100000000E-03 0. -1.
        -11    1    4    4    0    0  0.19755606870E+02  0.99691810030E+01  0.31681933580E+02  0.38644708412E+02  0.51100000000E-03 0.  1.
         12    1    4    4    0    0 -0.11510140183E+02 -0.30892530536E+01  0.32331591463E+01  0.12348284477E+02  0.00000000000E+00 0. -1.
</event>
<event>
 8    1  0.1238315E-006  0.9118800E+02  0.7816164E-02  0.1184000E+00
        -11   -1    0    0    0    0  0.00000000000E+00  0.00000000000E+00  0.45593999997E+02  0.45594000000E+02  0.51100000000E-03 0.  1.
         11   -1    0    0    0    0 -0.00000000000E+00 -0.00000000000E+00 -0.45593999997E+02  0.45594000000E+02  0.51100000000E-03 0. -1.
         23    2    1    2    0    0 -0.99920072216E-15  0.00000000000E+00  0.88817841970E-15  0.91188000000E+02  0.91188000000E+02 0.  0.
    9900012    2    3    3    0    0  0.78638066181E+00 -0.36491256170E+02  0.48522766301E+01  0.54367153188E+02  0.40000157323E+02 0.  0.
         12    1    3    3    0    0 -0.78638066181E+00  0.36491256170E+02 -0.48522766301E+01  0.36820846812E+02  0.00000000000E+00 0. -1.
         11    1    4    4    0    0  0.46530642016E+01 -0.52349580322E-02 -0.86992042673E+00  0.47336873238E+01  0.51100000000E-03 0. -1.
        -11    1    4    4    0    0 -0.95721009023E+01 -0.31889825694E+02  0.16057137250E+02  0.36965088332E+02  0.51100000000E-03 0.  1.
        -12    1    4    4    0    0  0.57054173625E+01 -0.45961955190E+01 -0.10334940193E+02  0.12668377533E+02  0.00000000000E+00 0.  1.
</event>
<event>
 8    1  0.1238315E-006  0.9118800E+02  0.7816164E-02  0.1184000E+00
        -11   -1    0    0    0    0  0.00000000000E+00  0.00000000000E+00  0.45593999997E+02  0.45594000000E+02  0.51100000000E-03 0.  1.
         11   -1    0    0    0    0 -0.00000000000E+00 -0.00000000000E+00 -0.45593999997E+02  0.45594000000E+02  0.51100000000E-03 0. -1.
         23    2    1    2    0    0  0.17763568394E-14  0.00000000000E+00  0.00000000000E+00  0.91188000000E+02  0.91188000000E+02 0.  0.
    9900012    2    3    3    0    0 -0.15059720763E+02 -0.33192405877E+02 -0.52202187392E+01  0.54367059205E+02  0.39999943070E+02 0.  0.
        -12    1    3    3    0    0  0.15059720763E+02  0.33192405877E+02  0.52202187392E+01  0.36820940795E+02  0.00000000000E+00 0.  1.
         11    1    4    4    0    0 -0.22434227481E+01 -0.79217951956E+01 -0.10235200905E+02  0.13135719340E+02  0.51100000000E-03 0. -1.
        -11    1    4    4    0    0 -0.17750245908E+02 -0.73790523435E+01 -0.53767090812E+01  0.19960727544E+02  0.51100000000E-03 0.  1.
        -12    1    4    4    0    0  0.49339478928E+01 -0.17891558338E+02  0.10391691247E+02  0.21270612322E+02  0.00000000000E+00 0.  1.
</event>
<event>
 8    1  0.1238315E-006  0.9118800E+02  0.7816164E-02  0.1184000E+00
        -11   -1    0    0    0    0  0.00000000000E+00  0.00000000000E+00  0.45593999997E+02  0.45594000000E+02  0.51100000000E-03 0.  1.
         11   -1    0    0    0    0 -0.00000000000E+00 -0.00000000000E+00 -0.45593999997E+02  0.45594000000E+02  0.51100000000E-03 0. -1.
         23    2    1    2    0    0 -0.71054273576E-14 -0.28449465006E-15 -0.11102230246E-14  0.91188000000E+02  0.91188000000E+02 0.  0.
    9900012    2    3    3    0    0 -0.36804023080E+02  0.34879518132E-01  0.11145609765E+01  0.54367087768E+02  0.40000008184E+02 0.  0.
         12    1    3    3    0    0  0.36804023080E+02 -0.34879518132E-01 -0.11145609765E+01  0.36820912232E+02  0.00000000000E+00 0. -1.
         11    1    4    4    0    0 -0.10546593611E+02 -0.65762394258E+01  0.88192906596E+01  0.15239995071E+02  0.51100000000E-03 0. -1.
        -11    1    4    4    0    0 -0.21409209575E+02  0.78585621329E+01  0.67875073691E+01  0.23794568917E+02  0.51100000000E-03 0.  1.
         12    1    4    4    0    0 -0.48482198942E+01 -0.12474431890E+01 -0.14492237052E+02  0.15332523779E+02  0.00000000000E+00 0. -1.
</event>
<event>
 8    1  0.1238315E-006  0.9118800E+02  0.7816164E-02  0.1184000E+00
        -11   -1    0    0    0    0  0.00000000000E+00  0.00000000000E+00  0.45593999997E+02  0.45594000000E+02  0.51100000000E-03 0.  1.
         11   -1    0    0    0    0 -0.00000000000E+00 -0.00000000000E+00 -0.45593999997E+02  0.45594000000E+02  0.51100000000E-03 0. -1.
         23    2    1    2    0    0  0.00000000000E+00  0.17763568394E-14  0.00000000000E+00  0.91188000000E+02  0.91188000000E+02 0.  0.
    9900012    2    3    3    0    0  0.96230418233E+01  0.11666458018E+02 -0.33571890755E+02  0.54367068106E+02  0.39999963362E+02 0.  0.
        -12    1    3    3    0    0 -0.96230418233E+01 -0.11666458018E+02  0.33571890755E+02  0.36820931894E+02  0.00000000000E+00 0.  1.
         11    1    4    4    0    0  0.15464228892E+02 -0.52180112783E+01 -0.19056638892E+02  0.25090346810E+02  0.51100000000E-03 0. -1.
        -11    1    4    4    0    0 -0.98776091811E+00  0.19758229144E+02 -0.11437007414E+02  0.22851004998E+02  0.51100000000E-03 0.  1.
         12    1    4    4    0    0 -0.48534261505E+01 -0.28737598481E+01 -0.30782444497E+01  0.64257162990E+01  0.00000000000E+00 0. -1.
</event>
<event>
 8    1  0.1238315E-006  0.9118800E+02  0.7816164E-02  0.1184000E+00
        -11   -1    0    0    0    0  0.00000000000E+00  0.00000000000E+00  0.45593999997E+02  0.45594000000E+02  0.51100000000E-03 0.  1.
         11   -1    0    0    0    0 -0.00000000000E+00 -0.00000000000E+00 -0.45593999997E+02  0.45594000000E+02  0.51100000000E-03 0. -1.
         23    2    1    2    0    0  0.00000000000E+00  0.00000000000E+00  0.00000000000E+00  0.91188000000E+02  0.91188000000E+02 0.  0.
    9900012    2    3    3    0    0 -0.26036422569E+02  0.21900719963E+02 -0.14079892658E+02  0.54367079149E+02  0.39999988535E+02 0.  0.
        -12    1    3    3    0    0  0.26036422569E+02 -0.21900719963E+02  0.14079892658E+02  0.36820920851E+02  0.00000000000E+00 0.  1.
         11    1    4    4    0    0  0.13893356191E+01 -0.40631790723E+01 -0.98989181762E+01  0.10790192721E+02  0.51100000000E-03 0. -1.
        -11    1    4    4    0    0 -0.32568264662E+01  0.17302214406E+02 -0.28168379921E+00  0.17608318716E+02  0.51100000000E-03 0.  1.
        -12    1    4    4    0    0 -0.24168931722E+02  0.86616846294E+01 -0.38992906830E+01  0.25968567712E+02  0.00000000000E+00 0.  1.
</event>
<event>
 8    1  0.1238315E-006  0.9118800E+02  0.7816164E-02  0.1184000E+00
        -11   -1    0    0    0    0  0.00000000000E+00  0.00000000000E+00  0.45593999997E+02  0.45594000000E+02  0.51100000000E-03 0.  1.
         11   -1    0    0    0    0 -0.00000000000E+00 -0.00000000000E+00 -0.45593999997E+02  0.45594000000E+02  0.51100000000E-03 0. -1.
         23    2    1    2    0    0  0.00000000000E+00  0.71054273576E-14  0.17763568394E-14  0.91188000000E+02  0.91188000000E+02 0.  0.
    9900012    2    3    3    0    0  0.35546543858E+01  0.34971046421E+02  0.10962292736E+02  0.54367061424E+02  0.39999948128E+02 0.  0.
         12    1    3    3    0    0 -0.35546543858E+01 -0.34971046421E+02 -0.10962292736E+02  0.36820938576E+02  0.00000000000E+00 0. -1.
         11    1    4    4    0    0  0.35042394548E+01 -0.64057679933E+00 -0.76569345729E+01  0.84450387866E+01  0.51100000000E-03 0. -1.
        -11    1    4    4    0    0 -0.39961387489E+01  0.25485118973E+01  0.10672204904E+02  0.11677328272E+02  0.51100000000E-03 0.  1.
        -12    1    4    4    0    0  0.40465536798E+01  0.33063111323E+02  0.79470224044E+01  0.34244694365E+02  0.00000000000E+00 0.  1.
</event>
<event>
 8    1  0.1238315E-006  0.9118800E+02  0.7816164E-02  0.1184000E+00
        -11   -1    0    0    0    0  0.00000000000E+00  0.00000000000E+00  0.45593999997E+02  0.45594000000E+02  0.51100000000E-03 0.  1.
         11   -1    0    0    0    0 -0.00000000000E+00 -0.00000000000E+00 -0.45593999997E+02  0.45594000000E+02  0.51100000000E-03 0. -1.
         23    2    1    2    0    0  0.66613381478E-15  0.71054273576E-14  0.00000000000E+00  0.91188000000E+02  0.91188000000E+02 0.  0.
    9900012    2    3    3    0    0  0.46598989197E+00  0.34923760827E+02  0.11657319256E+02  0.54367091414E+02  0.40000016496E+02 0.  0.
         12    1    3    3    0    0 -0.46598989197E+00 -0.34923760827E+02 -0.11657319256E+02  0.36820908586E+02  0.00000000000E+00 0. -1.
         11    1    4    4    0    0 -0.21123386286E+01  0.12386784742E+01  0.76938743177E+01  0.80741563722E+01  0.51100000000E-03 0. -1.
        -11    1    4    4    0    0 -0.40581716365E+01 -0.42059434100E+01  0.51745360406E+01  0.78060579358E+01  0.51100000000E-03 0.  1.
        -12    1    4    4    0    0  0.66365001571E+01  0.37891025763E+02 -0.12110911025E+01  0.38486877106E+02  0.00000000000E+00 0.  1.
</event>
<event>
 8    1  0.1238315E-006  0.9118800E+02  0.7816164E-02  0.1184000E+00
        -11   -1    0    0    0    0  0.00000000000E+00  0.00000000000E+00  0.45593999997E+02  0.45594000000E+02  0.51100000000E-03 0. -1.
         11   -1    0    0    0    0 -0.00000000000E+00 -0.00000000000E+00 -0.45593999997E+02  0.45594000000E+02  0.51100000000E-03 0.  1.
         23    2    1    2    0    0  0.35527136788E-14  0.44408920985E-15  0.00000000000E+00  0.91188000000E+02  0.91188000000E+02 0.  0.
    9900012    2    3    3    0    0 -0.22557260641E+02 -0.31347649915E+01  0.28933067757E+02  0.54367093317E+02  0.40000020834E+02 0.  0.
        -12    1    3    3    0    0  0.22557260641E+02  0.31347649915E+01 -0.28933067757E+02  0.36820906683E+02  0.00000000000E+00 0.  1.
         11    1    4    4    0    0  0.25823623829E+01 -0.51151880522E+01  0.61372670137E+01  0.83964153628E+01  0.51100000000E-03 0. -1.
        -11    1    4    4    0    0 -0.26260145407E+02  0.12462647741E+02  0.14108294281E+02  0.32310320229E+02  0.51100000000E-03 0.  1.
        -12    1    4    4    0    0  0.11205223832E+01 -0.10482224680E+02  0.86875064621E+01  0.13660357725E+02  0.00000000000E+00 0.  1.
</event>
<event>
 8    1  0.1238315E-006  0.9118800E+02  0.7816164E-02  0.1184000E+00
        -11   -1    0    0    0    0  0.00000000000E+00  0.00000000000E+00  0.45593999997E+02  0.45594000000E+02  0.51100000000E-03 0. -1.
         11   -1    0    0    0    0 -0.00000000000E+00 -0.00000000000E+00 -0.45593999997E+02  0.45594000000E+02  0.51100000000E-03 0.  1.
         23    2    1    2    0    0 -0.35527136788E-14 -0.14210854715E-13  0.00000000000E+00  0.91188000000E+02  0.91188000000E+02 0.  0.
    9900012    2    3    3    0    0  0.12742402340E+02  0.32782672848E+02 -0.10895251835E+02  0.54367096033E+02  0.40000027026E+02 0.  0.
         12    1    3    3    0    0 -0.12742402340E+02 -0.32782672848E+02  0.10895251835E+02  0.36820903967E+02  0.00000000000E+00 0. -1.
         11    1    4    4    0    0 -0.20426845899E+00  0.53151852536E+00 -0.38994240212E+01  0.39407798092E+01  0.51100000000E-03 0. -1.
        -11    1    4    4    0    0 -0.11490029530E+02  0.18759975823E+02 -0.22740197938E+01  0.22116252797E+02  0.51100000000E-03 0.  1.
         12    1    4    4    0    0  0.24436700329E+02  0.13491178499E+02 -0.47218080205E+01  0.28310063427E+02  0.00000000000E+00 0. -1.
</event>
<event>
 8    1  0.1238315E-006  0.9118800E+02  0.7816164E-02  0.1184000E+00
        -11   -1    0    0    0    0  0.00000000000E+00  0.00000000000E+00  0.45593999997E+02  0.45594000000E+02  0.51100000000E-03 0. -1.
         11   -1    0    0    0    0 -0.00000000000E+00 -0.00000000000E+00 -0.45593999997E+02  0.45594000000E+02  0.51100000000E-03 0.  1.
         23    2    1    2    0    0  0.00000000000E+00 -0.35527136788E-14 -0.35527136788E-14  0.91188000000E+02  0.91188000000E+02 0.  0.
    9900012    2    3    3    0    0  0.20698540916E+02 -0.19468944551E+02  0.23416393624E+02  0.54366852702E+02  0.39999472300E+02 0.  0.
        -12    1    3    3    0    0 -0.20698540916E+02  0.19468944551E+02 -0.23416393624E+02  0.36821147298E+02  0.00000000000E+00 0.  1.
         11    1    4    4    0    0  0.63779104973E+01 -0.18762921472E+02  0.26090087712E+02  0.32763052995E+02  0.51100000000E-03 0. -1.
        -11    1    4    4    0    0  0.93867739509E+01  0.56064467251E+01  0.35099063090E+01  0.11483170845E+02  0.51100000000E-03 0.  1.
         12    1    4    4    0    0  0.49338564683E+01 -0.63124698047E+01 -0.61836003973E+01  0.10120628862E+02  0.00000000000E+00 0. -1.
</event>
<event>
 8    1  0.1238315E-006  0.9118800E+02  0.7816164E-02  0.1184000E+00
        -11   -1    0    0    0    0  0.00000000000E+00  0.00000000000E+00  0.45593999997E+02  0.45594000000E+02  0.51100000000E-03 0. -1.
         11   -1    0    0    0    0 -0.00000000000E+00 -0.00000000000E+00 -0.45593999997E+02  0.45594000000E+02  0.51100000000E-03 0.  1.
         23    2    1    2    0    0 -0.71054273576E-14  0.17763568394E-14  0.88817841970E-15  0.91188000000E+02  0.91188000000E+02 0.  0.
    9900012    2    3    3    0    0  0.33229913863E+02  0.14248881452E+02 -0.69657633871E+01  0.54367086683E+02  0.40000005710E+02 0.  0.
         12    1    3    3    0    0 -0.33229913863E+02 -0.14248881452E+02  0.69657633871E+01  0.36820913317E+02  0.00000000000E+00 0. -1.
         11    1    4    4    0    0  0.18484328795E+01  0.68643985955E+01  0.38681497667E+01  0.80931610059E+01  0.51100000000E-03 0. -1.
        -11    1    4    4    0    0  0.17918808748E+02  0.16688449779E+02 -0.15836777339E+02  0.29161474238E+02  0.51100000000E-03 0.  1.
         12    1    4    4    0    0  0.13462672235E+02 -0.93039669221E+01  0.50028641851E+01  0.17112451439E+02  0.00000000000E+00 0. -1.
</event>
<event>
 8    1  0.1238315E-006  0.9118800E+02  0.7816164E-02  0.1184000E+00
        -11   -1    0    0    0    0  0.00000000000E+00  0.00000000000E+00  0.45593999997E+02  0.45594000000E+02  0.51100000000E-03 0. -1.
         11   -1    0    0    0    0 -0.00000000000E+00 -0.00000000000E+00 -0.45593999997E+02  0.45594000000E+02  0.51100000000E-03 0.  1.
         23    2    1    2    0    0  0.35527136788E-14 -0.71054273576E-14 -0.17763568394E-14  0.91188000000E+02  0.91188000000E+02 0.  0.
    9900012    2    3    3    0    0 -0.15010227433E+02  0.32473829216E+02  0.87133665427E+01  0.54367091972E+02  0.40000017768E+02 0.  0.
        -12    1    3    3    0    0  0.15010227433E+02 -0.32473829216E+02 -0.87133665427E+01  0.36820908028E+02  0.00000000000E+00 0.  1.
         11    1    4    4    0    0 -0.32598959007E+01  0.23367812312E+02 -0.33612949963E+00  0.23596494587E+02  0.51100000000E-03 0. -1.
        -11    1    4    4    0    0  0.78448841120E+01  0.14583945923E+01  0.28898795333E+00  0.79845247708E+01  0.51100000000E-03 0.  1.
         12    1    4    4    0    0 -0.19595215644E+02  0.76476223123E+01  0.87605080890E+01  0.22786072613E+02  0.00000000000E+00 0. -1.
</event>
<event>
 8    1  0.1238315E-006  0.9118800E+02  0.7816164E-02  0.1184000E+00
        -11   -1    0    0    0    0  0.00000000000E+00  0.00000000000E+00  0.45593999997E+02  0.45594000000E+02  0.51100000000E-03 0. -1.
         11   -1    0    0    0    0 -0.00000000000E+00 -0.00000000000E+00 -0.45593999997E+02  0.45594000000E+02  0.51100000000E-03 0.  1.
         23    2    1    2    0    0  0.00000000000E+00  0.00000000000E+00  0.00000000000E+00  0.91188000000E+02  0.91188000000E+02 0.  0.
    9900012    2    3    3    0    0 -0.37060739666E+01  0.90018239777E+01 -0.35510743909E+02  0.54367071819E+02  0.39999971825E+02 0.  0.
         12    1    3    3    0    0  0.37060739666E+01 -0.90018239777E+01  0.35510743909E+02  0.36820928181E+02  0.00000000000E+00 0. -1.
         11    1    4    4    0    0 -0.33076462332E+01  0.81745065115E+01 -0.50451143810E+01  0.10159540329E+02  0.51100000000E-03 0. -1.
        -11    1    4    4    0    0 -0.86159462431E+01  0.13980194466E+02 -0.17433893073E+02  0.23950386112E+02  0.51100000000E-03 0.  1.
         12    1    4    4    0    0  0.82175185097E+01 -0.13152877000E+02 -0.13031736455E+02  0.20257145378E+02  0.00000000000E+00 0. -1.
</event>
<event>
 8    1  0.1238315E-006  0.9118800E+02  0.7816164E-02  0.1184000E+00
        -11   -1    0    0    0    0  0.00000000000E+00  0.00000000000E+00  0.45593999997E+02  0.45594000000E+02  0.51100000000E-03 0.  1.
         11   -1    0    0    0    0 -0.00000000000E+00 -0.00000000000E+00 -0.45593999997E+02  0.45594000000E+02  0.51100000000E-03 0. -1.
         23    2    1    2    0    0  0.00000000000E+00  0.00000000000E+00  0.00000000000E+00  0.91188000000E+02  0.91188000000E+02 0.  0.
    9900012    2    3    3    0    0  0.15559531126E+02  0.22220768310E+02  0.24898229319E+02  0.54367036184E+02  0.39999890588E+02 0.  0.
         12    1    3    3    0    0 -0.15559531126E+02 -0.22220768310E+02 -0.24898229319E+02  0.36820963816E+02  0.00000000000E+00 0. -1.
         11    1    4    4    0    0  0.96015396791E+01  0.10907181423E+01 -0.22421176575E+01  0.99199960749E+01  0.51100000000E-03 0. -1.
        -11    1    4    4    0    0  0.17023700841E+02  0.13848975587E+02  0.17350066420E+02  0.27975441376E+02  0.51100000000E-03 0.  1.
        -12    1    4    4    0    0 -0.11065709394E+02  0.72810745808E+01  0.97902805564E+01  0.16471598733E+02  0.00000000000E+00 0.  1.
</event>
<event>
 8    1  0.1238315E-006  0.9118800E+02  0.7816164E-02  0.1184000E+00
        -11   -1    0    0    0    0  0.00000000000E+00  0.00000000000E+00  0.45593999997E+02  0.45594000000E+02  0.51100000000E-03 0.  1.
         11   -1    0    0    0    0 -0.00000000000E+00 -0.00000000000E+00 -0.45593999997E+02  0.45594000000E+02  0.51100000000E-03 0. -1.
         23    2    1    2    0    0 -0.22204460493E-15  0.00000000000E+00  0.17763568394E-14  0.91188000000E+02  0.91188000000E+02 0.  0.
    9900012    2    3    3    0    0 -0.10453357098E+01  0.36024999602E+02 -0.75425018897E+01  0.54367045940E+02  0.39999912830E+02 0.  0.
         12    1    3    3    0    0  0.10453357098E+01 -0.36024999602E+02  0.75425018897E+01  0.36820954060E+02  0.00000000000E+00 0. -1.
         11    1    4    4    0    0 -0.44149428572E+01  0.10841703987E+02 -0.20541548063E+02  0.23642957997E+02  0.51100000000E-03 0. -1.
        -11    1    4    4    0    0 -0.42148759277E+01  0.87491285683E+01  0.51923336854E+01  0.11012391164E+02  0.51100000000E-03 0.  1.
         12    1    4    4    0    0  0.75844830752E+01  0.16434167047E+02  0.78067124878E+01  0.19711696779E+02  0.00000000000E+00 0. -1.
</event>
<event>
 8    1  0.1238315E-006  0.9118800E+02  0.7816164E-02  0.1184000E+00
        -11   -1    0    0    0    0  0.00000000000E+00  0.00000000000E+00  0.45593999997E+02  0.45594000000E+02  0.51100000000E-03 0. -1.
         11   -1    0    0    0    0 -0.00000000000E+00 -0.00000000000E+00 -0.45593999997E+02  0.45594000000E+02  0.51100000000E-03 0.  1.
         23    2    1    2    0    0 -0.44408920985E-15  0.00000000000E+00 -0.35527136788E-14  0.91188000000E+02  0.91188000000E+02 0.  0.
    9900012    2    3    3    0    0  0.16088398962E+01 -0.21509051959E+02  0.29842105508E+02  0.54367096383E+02  0.40000027825E+02 0.  0.
        -12    1    3    3    0    0 -0.16088398962E+01  0.21509051959E+02 -0.29842105508E+02  0.36820903617E+02  0.00000000000E+00 0.  1.
         11    1    4    4    0    0 -0.49442128690E+01 -0.18611766701E+02  0.82168548420E+01  0.20937043831E+02  0.51100000000E-03 0. -1.
        -11    1    4    4    0    0  0.12496530900E+02 -0.74428192641E+01  0.53156230363E+01  0.15485951428E+02  0.51100000000E-03 0.  1.
        -12    1    4    4    0    0 -0.59434781343E+01  0.45455340055E+01  0.16309627630E+02  0.17944101124E+02  0.00000000000E+00 0.  1.
</event>
<event>
 8    1  0.1238315E-006  0.9118800E+02  0.7816164E-02  0.1184000E+00
        -11   -1    0    0    0    0  0.00000000000E+00  0.00000000000E+00  0.45593999997E+02  0.45594000000E+02  0.51100000000E-03 0.  1.
         11   -1    0    0    0    0 -0.00000000000E+00 -0.00000000000E+00 -0.45593999997E+02  0.45594000000E+02  0.51100000000E-03 0. -1.
         23    2    1    2    0    0 -0.17763568394E-14  0.00000000000E+00  0.00000000000E+00  0.91188000000E+02  0.91188000000E+02 0.  0.
    9900012    2    3    3    0    0  0.90507136875E+01 -0.13106063809E+02 -0.33197838546E+02  0.54367071020E+02  0.39999970004E+02 0.  0.
        -12    1    3    3    0    0 -0.90507136875E+01  0.13106063809E+02  0.33197838546E+02  0.36820928980E+02  0.00000000000E+00 0.  1.
         11    1    4    4    0    0  0.59816690959E+00 -0.22603099587E+01  0.17757245207E+01  0.29359840932E+01  0.51100000000E-03 0. -1.
        -11    1    4    4    0    0 -0.98071999340E-01 -0.11309184830E+02  0.36388028191E+01  0.11880579357E+02  0.51100000000E-03 0.  1.
         12    1    4    4    0    0  0.85506187772E+01  0.46343097925E+00 -0.38612365886E+02  0.39550507570E+02  0.00000000000E+00 0. -1.
</event>
<event>
 8    1  0.1238315E-006  0.9118800E+02  0.7816164E-02  0.1184000E+00
        -11   -1    0    0    0    0  0.00000000000E+00  0.00000000000E+00  0.45593999997E+02  0.45594000000E+02  0.51100000000E-03 0.  1.
         11   -1    0    0    0    0 -0.00000000000E+00 -0.00000000000E+00 -0.45593999997E+02  0.45594000000E+02  0.51100000000E-03 0. -1.
         23    2    1    2    0    0  0.88817841970E-15  0.17763568394E-14  0.71054273576E-14  0.91188000000E+02  0.91188000000E+02 0.  0.
    9900012    2    3    3    0    0 -0.58121250340E+01  0.17611982412E+01  0.36316624730E+02  0.54367084091E+02  0.39999999801E+02 0.  0.
         12    1    3    3    0    0  0.58121250340E+01 -0.17611982412E+01 -0.36316624730E+02  0.36820915909E+02  0.00000000000E+00 0. -1.
         11    1    4    4    0    0 -0.98760463081E+01  0.94147660073E+01  0.12557752737E+02  0.18543766169E+02  0.51100000000E-03 0. -1.
        -11    1    4    4    0    0 -0.46407945761E+01  0.72823471360E+01  0.12500405541E+02  0.15193080433E+02  0.51100000000E-03 0.  1.
         12    1    4    4    0    0  0.87047158501E+01 -0.14935914902E+02  0.11258466452E+02  0.20630237489E+02  0.00000000000E+00 0. -1.
</event>
<event>
 8    1  0.1238315E-006  0.9118800E+02  0.7816164E-02  0.1184000E+00
        -11   -1    0    0    0    0  0.00000000000E+00  0.00000000000E+00  0.45593999997E+02  0.45594000000E+02  0.51100000000E-03 0. -1.
         11   -1    0    0    0    0 -0.00000000000E+00 -0.00000000000E+00 -0.45593999997E+02  0.45594000000E+02  0.51100000000E-03 0.  1.
         23    2    1    2    0    0  0.00000000000E+00  0.00000000000E+00  0.35527136788E-14  0.91188000000E+02  0.91188000000E+02 0.  0.
    9900012    2    3    3    0    0  0.30040626189E+02  0.17577958893E+02  0.12014848994E+02  0.54367075826E+02  0.39999980961E+02 0.  0.
         12    1    3    3    0    0 -0.30040626189E+02 -0.17577958893E+02 -0.12014848994E+02  0.36820924174E+02  0.00000000000E+00 0. -1.
         11    1    4    4    0    0 -0.53994699014E+01 -0.20240703766E+01  0.27435046071E+01  0.63857618101E+01  0.51100000000E-03 0. -1.
        -11    1    4    4    0    0  0.32800360211E+01  0.48382976316E+01 -0.69265127431E+01  0.90633514394E+01  0.51100000000E-03 0.  1.
        -12    1    4    4    0    0  0.32160060069E+02  0.14763731638E+02  0.16197857130E+02  0.38917962577E+02  0.00000000000E+00 0.  1.
</event>
<event>
 8    1  0.1238315E-006  0.9118800E+02  0.7816164E-02  0.1184000E+00
        -11   -1    0    0    0    0  0.00000000000E+00  0.00000000000E+00  0.45593999997E+02  0.45594000000E+02  0.51100000000E-03 0.  1.
         11   -1    0    0    0    0 -0.00000000000E+00 -0.00000000000E+00 -0.45593999997E+02  0.45594000000E+02  0.51100000000E-03 0. -1.
         23    2    1    2    0    0  0.88817841970E-15  0.00000000000E+00  0.00000000000E+00  0.91188000000E+02  0.91188000000E+02 0.  0.
    9900012    2    3    3    0    0 -0.66147407600E+01  0.64807382384E+01  0.35637409096E+02  0.54367086234E+02  0.40000004688E+02 0.  0.
         12    1    3    3    0    0  0.66147407600E+01 -0.64807382384E+01 -0.35637409096E+02  0.36820913766E+02  0.00000000000E+00 0. -1.
         11    1    4    4    0    0  0.10057727822E+02  0.65025251469E+01  0.16197770178E+02  0.20144688660E+02  0.51100000000E-03 0. -1.
        -11    1    4    4    0    0  0.52196046281E+01 -0.16185411237E+01  0.73627186927E+01  0.91691643377E+01  0.51100000000E-03 0.  1.
         12    1    4    4    0    0 -0.21892073210E+02  0.15967542152E+01  0.12076920226E+02  0.25053233236E+02  0.00000000000E+00 0. -1.
</event>
<event>
 8    1  0.1238315E-006  0.9118800E+02  0.7816164E-02  0.1184000E+00
        -11   -1    0    0    0    0  0.00000000000E+00  0.00000000000E+00  0.45593999997E+02  0.45594000000E+02  0.51100000000E-03 0. -1.
         11   -1    0    0    0    0 -0.00000000000E+00 -0.00000000000E+00 -0.45593999997E+02  0.45594000000E+02  0.51100000000E-03 0.  1.
         23    2    1    2    0    0  0.00000000000E+00  0.17763568394E-14  0.88817841970E-15  0.91188000000E+02  0.91188000000E+02 0.  0.
    9900012    2    3    3    0    0  0.34128871626E+02  0.13571143472E+02  0.26123401011E+01  0.54367080207E+02  0.39999990948E+02 0.  0.
        -12    1    3    3    0    0 -0.34128871626E+02 -0.13571143472E+02 -0.26123401011E+01  0.36820919793E+02  0.00000000000E+00 0.  1.
         11    1    4    4    0    0  0.38598743545E+02  0.16228583018E+02  0.73953741290E+01  0.42519659791E+02  0.51100000000E-03 0. -1.
        -11    1    4    4    0    0 -0.82895562928E-01 -0.38235170164E+01 -0.60294896715E+01  0.71400910364E+01  0.51100000000E-03 0.  1.
         12    1    4    4    0    0 -0.43869763556E+01  0.11660774701E+01  0.12464556435E+01  0.47073293790E+01  0.00000000000E+00 0. -1.
</event>
<event>
 8    1  0.1238315E-006  0.9118800E+02  0.7816164E-02  0.1184000E+00
        -11   -1    0    0    0    0  0.00000000000E+00  0.00000000000E+00  0.45593999997E+02  0.45594000000E+02  0.51100000000E-03 0.  1.
         11   -1    0    0    0    0 -0.00000000000E+00 -0.00000000000E+00 -0.45593999997E+02  0.45594000000E+02  0.51100000000E-03 0. -1.
         23    2    1    2    0    0 -0.17763568394E-14  0.00000000000E+00 -0.35527136788E-14  0.91188000000E+02  0.91188000000E+02 0.  0.
    9900012    2    3    3    0    0 -0.13019894187E+02 -0.17607258136E+02 -0.29601477214E+02  0.54367073382E+02  0.39999975390E+02 0.  0.
        -12    1    3    3    0    0  0.13019894187E+02  0.17607258136E+02  0.29601477214E+02  0.36820926618E+02  0.00000000000E+00 0.  1.
         11    1    4    4    0    0 -0.14998529701E+02 -0.47656371432E+01 -0.28158475116E+02  0.32257819389E+02  0.51100000000E-03 0. -1.
        -11    1    4    4    0    0 -0.52099624547E+01 -0.98794924520E+01 -0.64152084202E+01  0.12880333040E+02  0.51100000000E-03 0.  1.
        -12    1    4    4    0    0  0.71885979691E+01 -0.29621285410E+01  0.49722063223E+01  0.92289209535E+01  0.00000000000E+00 0.  1.
</event>
<event>
 8    1  0.1238315E-006  0.9118800E+02  0.7816164E-02  0.1184000E+00
        -11   -1    0    0    0    0  0.00000000000E+00  0.00000000000E+00  0.45593999997E+02  0.45594000000E+02  0.51100000000E-03 0.  1.
         11   -1    0    0    0    0 -0.00000000000E+00 -0.00000000000E+00 -0.45593999997E+02  0.45594000000E+02  0.51100000000E-03 0. -1.
         23    2    1    2    0    0 -0.17763568394E-14  0.71054273576E-14  0.00000000000E+00  0.91188000000E+02  0.91188000000E+02 0.  0.
    9900012    2    3    3    0    0  0.87203729199E+01 -0.27841554474E+02 -0.22462913234E+02  0.54367088409E+02  0.40000009647E+02 0.  0.
        -12    1    3    3    0    0 -0.87203729199E+01  0.27841554474E+02  0.22462913234E+02  0.36820911591E+02  0.00000000000E+00 0.  1.
         11    1    4    4    0    0  0.43601941708E+01 -0.78346561071E+01 -0.11456268005E+02  0.14547824799E+02  0.51100000000E-03 0. -1.
        -11    1    4    4    0    0  0.71991936723E+01  0.54534317983E+01 -0.10959139066E+02  0.14201092819E+02  0.51100000000E-03 0.  1.
        -12    1    4    4    0    0 -0.28390149232E+01 -0.25460330166E+02 -0.47506162932E-01  0.25618170792E+02  0.00000000000E+00 0.  1.
</event>
<event>
 8    1  0.1238315E-006  0.9118800E+02  0.7816164E-02  0.1184000E+00
        -11   -1    0    0    0    0  0.00000000000E+00  0.00000000000E+00  0.45593999997E+02  0.45594000000E+02  0.51100000000E-03 0.  1.
         11   -1    0    0    0    0 -0.00000000000E+00 -0.00000000000E+00 -0.45593999997E+02  0.45594000000E+02  0.51100000000E-03 0. -1.
         23    2    1    2    0    0 -0.88817841970E-15  0.00000000000E+00  0.00000000000E+00  0.91188000000E+02  0.91188000000E+02 0.  0.
    9900012    2    3    3    0    0  0.19200382616E+01  0.74971818027E+01 -0.35998413259E+02  0.54367081501E+02  0.39999993898E+02 0.  0.
        -12    1    3    3    0    0 -0.19200382616E+01 -0.74971818027E+01  0.35998413259E+02  0.36820918499E+02  0.00000000000E+00 0.  1.
         11    1    4    4    0    0 -0.78782180901E+01  0.11305940384E+02  0.15595759500E+01  0.13868052698E+02  0.51100000000E-03 0. -1.
        -11    1    4    4    0    0  0.19582374925E+01 -0.65574259961E+01 -0.16907586531E+02  0.18240093540E+02  0.51100000000E-03 0.  1.
         12    1    4    4    0    0  0.78400188592E+01  0.27486674151E+01 -0.20650402678E+02  0.22258935263E+02  0.00000000000E+00 0. -1.
</event>
<event>
 8    1  0.1238315E-006  0.9118800E+02  0.7816164E-02  0.1184000E+00
        -11   -1    0    0    0    0  0.00000000000E+00  0.00000000000E+00  0.45593999997E+02  0.45594000000E+02  0.51100000000E-03 0. -1.
         11   -1    0    0    0    0 -0.00000000000E+00 -0.00000000000E+00 -0.45593999997E+02  0.45594000000E+02  0.51100000000E-03 0.  1.
         23    2    1    2    0    0  0.00000000000E+00  0.17763568394E-14  0.00000000000E+00  0.91188000000E+02  0.91188000000E+02 0.  0.
    9900012    2    3    3    0    0  0.28374567462E+02  0.10297101682E+02 -0.21086346641E+02  0.54367076649E+02  0.39999982837E+02 0.  0.
         12    1    3    3    0    0 -0.28374567462E+02 -0.10297101682E+02  0.21086346641E+02  0.36820923351E+02  0.00000000000E+00 0. -1.
         11    1    4    4    0    0  0.96617341887E+01 -0.41260768499E+01 -0.21215346267E+02  0.23674132195E+02  0.51100000000E-03 0. -1.
        -11    1    4    4    0    0  0.12390541537E+02  0.60041144442E+01 -0.92544209184E+01  0.16589732265E+02  0.51100000000E-03 0.  1.
         12    1    4    4    0    0  0.63222917365E+01  0.84190640881E+01  0.93834205445E+01  0.14103212189E+02  0.00000000000E+00 0. -1.
</event>
<event>
 8    1  0.1238315E-006  0.9118800E+02  0.7816164E-02  0.1184000E+00
        -11   -1    0    0    0    0  0.00000000000E+00  0.00000000000E+00  0.45593999997E+02  0.45594000000E+02  0.51100000000E-03 0. -1.
         11   -1    0    0    0    0 -0.00000000000E+00 -0.00000000000E+00 -0.45593999997E+02  0.45594000000E+02  0.51100000000E-03 0.  1.
         23    2    1    2    0    0  0.00000000000E+00 -0.66613381478E-15 -0.35527136788E-14  0.91188000000E+02  0.91188000000E+02 0.  0.
    9900012    2    3    3    0    0  0.29174674575E+02  0.10488447823E+01 -0.22439216491E+02  0.54367080014E+02  0.39999990507E+02 0.  0.
         12    1    3    3    0    0 -0.29174674575E+02 -0.10488447823E+01  0.22439216491E+02  0.36820919986E+02  0.00000000000E+00 0. -1.
         11    1    4    4    0    0 -0.37731347995E+01 -0.83712806418E+00 -0.55908479229E+01  0.67966837773E+01  0.51100000000E-03 0. -1.
        -11    1    4    4    0    0  0.32926420094E+02 -0.85676431763E+01 -0.13320759969E+02  0.36537601129E+02  0.51100000000E-03 0.  1.
        -12    1    4    4    0    0  0.21389279764E-01  0.10453616023E+02 -0.35276085996E+01  0.11032795108E+02  0.00000000000E+00 0.  1.
</event>
<event>
 8    1  0.1238315E-006  0.9118800E+02  0.7816164E-02  0.1184000E+00
        -11   -1    0    0    0    0  0.00000000000E+00  0.00000000000E+00  0.45593999997E+02  0.45594000000E+02  0.51100000000E-03 0.  1.
         11   -1    0    0    0    0 -0.00000000000E+00 -0.00000000000E+00 -0.45593999997E+02  0.45594000000E+02  0.51100000000E-03 0. -1.
         23    2    1    2    0    0 -0.35527136788E-14 -0.17763568394E-14  0.35527136788E-14  0.91188000000E+02  0.91188000000E+02 0.  0.
    9900012    2    3    3    0    0  0.30555664771E+02  0.99058535914E+01  0.18000212461E+02  0.54367051701E+02  0.39999925964E+02 0.  0.
         12    1    3    3    0    0 -0.30555664771E+02 -0.99058535914E+01 -0.18000212461E+02  0.36820948299E+02  0.00000000000E+00 0. -1.
         11    1    4    4    0    0  0.15814350331E+02  0.34431259614E+01 -0.56972404823E+01  0.17158302426E+02  0.51100000000E-03 0. -1.
        -11    1    4    4    0    0  0.98552919378E+01  0.10487201917E+02  0.26601138806E+02  0.30244483287E+02  0.51100000000E-03 0.  1.
         12    1    4    4    0    0  0.48860225022E+01 -0.40244742866E+01 -0.29036858627E+01  0.69642659890E+01  0.00000000000E+00 0. -1.
</event>
<event>
 8    1  0.1238315E-006  0.9118800E+02  0.7816164E-02  0.1184000E+00
        -11   -1    0    0    0    0  0.00000000000E+00  0.00000000000E+00  0.45593999997E+02  0.45594000000E+02  0.51100000000E-03 0.  1.
         11   -1    0    0    0    0 -0.00000000000E+00 -0.00000000000E+00 -0.45593999997E+02  0.45594000000E+02  0.51100000000E-03 0. -1.
         23    2    1    2    0    0  0.71054273576E-14  0.00000000000E+00  0.17763568394E-14  0.91188000000E+02  0.91188000000E+02 0.  0.
    9900012    2    3    3    0    0  0.31323234436E+02  0.15174179731E+02  0.12015674112E+02  0.54367120455E+02  0.40000082702E+02 0.  0.
         12    1    3    3    0    0 -0.31323234436E+02 -0.15174179731E+02 -0.12015674112E+02  0.36820879545E+02  0.00000000000E+00 0. -1.
         11    1    4    4    0    0  0.46812897206E+01 -0.24430709733E+01 -0.89217159822E+00  0.53552814726E+01  0.51100000000E-03 0. -1.
        -11    1    4    4    0    0 -0.77393761708E+01  0.86201187147E+01  0.14699378771E+01  0.11677547165E+02  0.51100000000E-03 0.  1.
         12    1    4    4    0    0  0.34381320886E+02  0.89971319897E+01  0.11437907833E+02  0.37334291818E+02  0.00000000000E+00 0. -1.
</event>
<event>
 8    1  0.1238315E-006  0.9118800E+02  0.7816164E-02  0.1184000E+00
        -11   -1    0    0    0    0  0.00000000000E+00  0.00000000000E+00  0.45593999997E+02  0.45594000000E+02  0.51100000000E-03 0.  1.
         11   -1    0    0    0    0 -0.00000000000E+00 -0.00000000000E+00 -0.45593999997E+02  0.45594000000E+02  0.51100000000E-03 0. -1.
         23    2    1    2    0    0  0.17763568394E-14 -0.35527136788E-14  0.00000000000E+00  0.91188000000E+02  0.91188000000E+02 0.  0.
    9900012    2    3    3    0    0 -0.55417580581E+01 -0.29567908695E+02 -0.21232367038E+02  0.54367004400E+02  0.39999818129E+02 0.  0.
        -12    1    3    3    0    0  0.55417580581E+01  0.29567908695E+02  0.21232367038E+02  0.36820995600E+02  0.00000000000E+00 0.  1.
         11    1    4    4    0    0 -0.89692383179E+01 -0.16905948302E+02 -0.55618267817E+01  0.19929682421E+02  0.51100000000E-03 0. -1.
        -11    1    4    4    0    0  0.36739321870E+01 -0.27754183031E+01  0.77498678922E+01  0.90144981602E+01  0.51100000000E-03 0.  1.
        -12    1    4    4    0    0 -0.24645192712E+00 -0.98865420900E+01 -0.23420408149E+02  0.25422823819E+02  0.00000000000E+00 0.  1.
</event>
<event>
 8    1  0.1238315E-006  0.9118800E+02  0.7816164E-02  0.1184000E+00
        -11   -1    0    0    0    0  0.00000000000E+00  0.00000000000E+00  0.45593999997E+02  0.45594000000E+02  0.51100000000E-03 0. -1.
         11   -1    0    0    0    0 -0.00000000000E+00 -0.00000000000E+00 -0.45593999997E+02  0.45594000000E+02  0.51100000000E-03 0.  1.
         23    2    1    2    0    0  0.00000000000E+00  0.00000000000E+00  0.00000000000E+00  0.91188000000E+02  0.91188000000E+02 0.  0.
    9900012    2    3    3    0    0  0.97119442358E+01  0.10146109558E+02 -0.34036955090E+02  0.54367085946E+02  0.40000004030E+02 0.  0.
         12    1    3    3    0    0 -0.97119442358E+01 -0.10146109558E+02  0.34036955090E+02  0.36820914054E+02  0.00000000000E+00 0. -1.
         11    1    4    4    0    0  0.11142642405E+02  0.90011730089E+01  0.39680100656E+01  0.14863535900E+02  0.51100000000E-03 0. -1.
        -11    1    4    4    0    0 -0.52932689958E+01  0.74087326440E+00 -0.11100800944E+02  0.12320526438E+02  0.51100000000E-03 0.  1.
         12    1    4    4    0    0  0.38625708265E+01  0.40406328516E+00 -0.26904164212E+02  0.27183023608E+02  0.00000000000E+00 0. -1.
</event>
<event>
 8    1  0.1238315E-006  0.9118800E+02  0.7816164E-02  0.1184000E+00
        -11   -1    0    0    0    0  0.00000000000E+00  0.00000000000E+00  0.45593999997E+02  0.45594000000E+02  0.51100000000E-03 0. -1.
         11   -1    0    0    0    0 -0.00000000000E+00 -0.00000000000E+00 -0.45593999997E+02  0.45594000000E+02  0.51100000000E-03 0.  1.
         23    2    1    2    0    0  0.00000000000E+00 -0.88817841970E-15  0.00000000000E+00  0.91188000000E+02  0.91188000000E+02 0.  0.
    9900012    2    3    3    0    0 -0.20578398709E+02  0.64828181582E+01  0.29837554068E+02  0.54367121989E+02  0.40000086199E+02 0.  0.
        -12    1    3    3    0    0  0.20578398709E+02 -0.64828181582E+01 -0.29837554068E+02  0.36820878011E+02  0.00000000000E+00 0.  1.
         11    1    4    4    0    0 -0.15766655619E+02 -0.85470043412E+01  0.18235108104E+02  0.25576510326E+02  0.51100000000E-03 0. -1.
        -11    1    4    4    0    0  0.22500351961E+01 -0.14764866786E+01 -0.41232494439E+01  0.49238051884E+01  0.51100000000E-03 0.  1.
         12    1    4    4    0    0 -0.70617782862E+01  0.16506309178E+02  0.15725695408E+02  0.23866806475E+02  0.00000000000E+00 0. -1.
</event>
<event>
 8    1  0.1238315E-006  0.9118800E+02  0.7816164E-02  0.1184000E+00
        -11   -1    0    0    0    0  0.00000000000E+00  0.00000000000E+00  0.45593999997E+02  0.45594000000E+02  0.51100000000E-03 0.  1.
         11   -1    0    0    0    0 -0.00000000000E+00 -0.00000000000E+00 -0.45593999997E+02  0.45594000000E+02  0.51100000000E-03 0. -1.
         23    2    1    2    0    0 -0.35527136788E-14  0.00000000000E+00 -0.35527136788E-14  0.91188000000E+02  0.91188000000E+02 0.  0.
    9900012    2    3    3    0    0  0.17978973256E+02  0.10664953457E+02  0.30311599163E+02  0.54367112512E+02  0.40000064595E+02 0.  0.
         12    1    3    3    0    0 -0.17978973256E+02 -0.10664953457E+02 -0.30311599163E+02  0.36820887488E+02  0.00000000000E+00 0. -1.
         11    1    4    4    0    0  0.14885599937E+01 -0.83594891276E+01 -0.37315024296E+01  0.92747495908E+01  0.51100000000E-03 0. -1.
        -11    1    4    4    0    0  0.86952894656E+01  0.12820585627E+00  0.68322936939E+01  0.11059147029E+02  0.51100000000E-03 0.  1.
        -12    1    4    4    0    0  0.77951237963E+01  0.18896236729E+02  0.27210807898E+02  0.34033215892E+02  0.00000000000E+00 0.  1.
</event>
<event>
 8    1  0.1238315E-006  0.9118800E+02  0.7816164E-02  0.1184000E+00
        -11   -1    0    0    0    0  0.00000000000E+00  0.00000000000E+00  0.45593999997E+02  0.45594000000E+02  0.51100000000E-03 0.  1.
         11   -1    0    0    0    0 -0.00000000000E+00 -0.00000000000E+00 -0.45593999997E+02  0.45594000000E+02  0.51100000000E-03 0. -1.
         23    2    1    2    0    0  0.88817841970E-15 -0.35527136788E-14  0.00000000000E+00  0.91188000000E+02  0.91188000000E+02 0.  0.
    9900012    2    3    3    0    0 -0.11869805916E+01 -0.28024399813E+02 -0.23853761947E+02  0.54367110999E+02  0.40000061144E+02 0.  0.
        -12    1    3    3    0    0  0.11869805916E+01  0.28024399813E+02  0.23853761947E+02  0.36820889001E+02  0.00000000000E+00 0.  1.
         11    1    4    4    0    0 -0.63530760911E+01 -0.20556223086E+02 -0.22637662000E+00  0.21516763930E+02  0.51100000000E-03 0. -1.
        -11    1    4    4    0    0  0.49861560935E+01 -0.13545382878E+02 -0.22400215876E+02  0.26647867109E+02  0.51100000000E-03 0.  1.
        -12    1    4    4    0    0  0.17993940597E+00  0.60772061511E+01 -0.12271694518E+01  0.62024799602E+01  0.00000000000E+00 0.  1.
</event>
<event>
 8    1  0.1238315E-006  0.9118800E+02  0.7816164E-02  0.1184000E+00
        -11   -1    0    0    0    0  0.00000000000E+00  0.00000000000E+00  0.45593999997E+02  0.45594000000E+02  0.51100000000E-03 0.  1.
         11   -1    0    0    0    0 -0.00000000000E+00 -0.00000000000E+00 -0.45593999997E+02  0.45594000000E+02  0.51100000000E-03 0. -1.
         23    2    1    2    0    0  0.00000000000E+00  0.71054273576E-14 -0.15543122345E-14  0.91188000000E+02  0.91188000000E+02 0.  0.
    9900012    2    3    3    0    0 -0.88866098687E+01  0.35726240882E+02  0.67014546694E+00  0.54367011183E+02  0.39999833595E+02 0.  0.
         12    1    3    3    0    0  0.88866098687E+01 -0.35726240882E+02 -0.67014546694E+00  0.36820988817E+02  0.00000000000E+00 0. -1.
         11    1    4    4    0    0 -0.48063722751E+01  0.29386236563E+02 -0.86926050981E+01  0.31019566364E+02  0.51100000000E-03 0. -1.
        -11    1    4    4    0    0  0.68367809634E+01 -0.25607235365E+01  0.30575073698E+01  0.79150003506E+01  0.51100000000E-03 0.  1.
         12    1    4    4    0    0 -0.10917018557E+02  0.89007278551E+01  0.63052431953E+01  0.15432444469E+02  0.00000000000E+00 0. -1.
</event>
<event>
 8    1  0.1238315E-006  0.9118800E+02  0.7816164E-02  0.1184000E+00
        -11   -1    0    0    0    0  0.00000000000E+00  0.00000000000E+00  0.45593999997E+02  0.45594000000E+02  0.51100000000E-03 0.  1.
         11   -1    0    0    0    0 -0.00000000000E+00 -0.00000000000E+00 -0.45593999997E+02  0.45594000000E+02  0.51100000000E-03 0. -1.
         23    2    1    2    0    0  0.44408920985E-15 -0.26645352591E-14  0.00000000000E+00  0.91188000000E+02  0.91188000000E+02 0.  0.
    9900012    2    3    3    0    0  0.25121673504E+01 -0.29539937695E+01 -0.36616152379E+02  0.54367086391E+02  0.40000005045E+02 0.  0.
        -12    1    3    3    0    0 -0.25121673504E+01  0.29539937695E+01  0.36616152379E+02  0.36820913609E+02  0.00000000000E+00 0.  1.
         11    1    4    4    0    0 -0.91247562808E+01  0.14570731675E+02 -0.13499245271E+02  0.21858568614E+02  0.51100000000E-03 0. -1.
        -11    1    4    4    0    0  0.11971768051E+02 -0.12258679573E+02 -0.20166795960E+02  0.26463146349E+02  0.51100000000E-03 0.  1.
         12    1    4    4    0    0 -0.33484442007E+00 -0.52660458712E+01 -0.29501111481E+01  0.60453714269E+01  0.00000000000E+00 0. -1.
</event>
<event>
 8    1  0.1238315E-006  0.9118800E+02  0.7816164E-02  0.1184000E+00
        -11   -1    0    0    0    0  0.00000000000E+00  0.00000000000E+00  0.45593999997E+02  0.45594000000E+02  0.51100000000E-03 0. -1.
         11   -1    0    0    0    0 -0.00000000000E+00 -0.00000000000E+00 -0.45593999997E+02  0.45594000000E+02  0.51100000000E-03 0.  1.
         23    2    1    2    0    0  0.35527136788E-14  0.00000000000E+00  0.00000000000E+00  0.91188000000E+02  0.91188000000E+02 0.  0.
    9900012    2    3    3    0    0 -0.24768699162E+02  0.26678554882E+02  0.55268427638E+01  0.54367085566E+02  0.40000003166E+02 0.  0.
         12    1    3    3    0    0  0.24768699162E+02 -0.26678554882E+02 -0.55268427638E+01  0.36820914434E+02  0.00000000000E+00 0. -1.
         11    1    4    4    0    0 -0.15209460120E+02  0.10278756900E+02  0.11034214570E+02  0.21418086096E+02  0.51100000000E-03 0. -1.
        -11    1    4    4    0    0 -0.16867208080E+02  0.36022153518E+01 -0.58359444966E+01  0.18208155103E+02  0.51100000000E-03 0.  1.
         12    1    4    4    0    0  0.73079690381E+01  0.12797582631E+02  0.32857269046E+00  0.14740844367E+02  0.00000000000E+00 0. -1.
</event>
<event>
 8    1  0.1238315E-006  0.9118800E+02  0.7816164E-02  0.1184000E+00
        -11   -1    0    0    0    0  0.00000000000E+00  0.00000000000E+00  0.45593999997E+02  0.45594000000E+02  0.51100000000E-03 0. -1.
         11   -1    0    0    0    0 -0.00000000000E+00 -0.00000000000E+00 -0.45593999997E+02  0.45594000000E+02  0.51100000000E-03 0.  1.
         23    2    1    2    0    0  0.00000000000E+00  0.00000000000E+00 -0.35527136788E-14  0.91188000000E+02  0.91188000000E+02 0.  0.
    9900012    2    3    3    0    0 -0.31636090240E+02  0.64849403924E+01  0.17688507464E+02  0.54367082659E+02  0.39999996537E+02 0.  0.
        -12    1    3    3    0    0  0.31636090240E+02 -0.64849403924E+01 -0.17688507464E+02  0.36820917341E+02  0.00000000000E+00 0.  1.
         11    1    4    4    0    0 -0.25903422326E+02 -0.19953157275E+01  0.24068538443E+02  0.35415577309E+02  0.51100000000E-03 0. -1.
        -11    1    4    4    0    0 -0.91366599088E+01  0.43596141107E+01  0.62213905713E+00  0.10142575943E+02  0.51100000000E-03 0.  1.
        -12    1    4    4    0    0  0.34039919953E+01  0.41206420092E+01 -0.70021700368E+01  0.88089294070E+01  0.00000000000E+00 0.  1.
</event>
<event>
 8    1  0.1238315E-006  0.9118800E+02  0.7816164E-02  0.1184000E+00
        -11   -1    0    0    0    0  0.00000000000E+00  0.00000000000E+00  0.45593999997E+02  0.45594000000E+02  0.51100000000E-03 0.  1.
         11   -1    0    0    0    0 -0.00000000000E+00 -0.00000000000E+00 -0.45593999997E+02  0.45594000000E+02  0.51100000000E-03 0. -1.
         23    2    1    2    0    0  0.00000000000E+00  0.00000000000E+00  0.35527136788E-14  0.91188000000E+02  0.91188000000E+02 0.  0.
    9900012    2    3    3    0    0  0.16989761007E+02  0.26377167760E+02  0.19271001969E+02  0.54367102741E+02  0.40000042319E+02 0.  0.
        -12    1    3    3    0    0 -0.16989761007E+02 -0.26377167760E+02 -0.19271001969E+02  0.36820897259E+02  0.00000000000E+00 0.  1.
         11    1    4    4    0    0 -0.68772059261E+01  0.51597976932E-01  0.91803417574E+01  0.11470714831E+02  0.51100000000E-03 0. -1.
        -11    1    4    4    0    0  0.79879737808E+01  0.86928919493E+01 -0.69346046336E+01  0.13691706879E+02  0.51100000000E-03 0.  1.
         12    1    4    4    0    0  0.15878993152E+02  0.17632677833E+02  0.17025264845E+02  0.29204681031E+02  0.00000000000E+00 0. -1.
</event>
<event>
 8    1  0.1238315E-006  0.9118800E+02  0.7816164E-02  0.1184000E+00
        -11   -1    0    0    0    0  0.00000000000E+00  0.00000000000E+00  0.45593999997E+02  0.45594000000E+02  0.51100000000E-03 0.  1.
         11   -1    0    0    0    0 -0.00000000000E+00 -0.00000000000E+00 -0.45593999997E+02  0.45594000000E+02  0.51100000000E-03 0. -1.
         23    2    1    2    0    0 -0.17763568394E-14  0.00000000000E+00 -0.17763568394E-14  0.91188000000E+02  0.91188000000E+02 0.  0.
    9900012    2    3    3    0    0 -0.11229904591E+02  0.31738331872E+02 -0.14911312509E+02  0.54367085999E+02  0.40000004151E+02 0.  0.
         12    1    3    3    0    0  0.11229904591E+02 -0.31738331872E+02  0.14911312509E+02  0.36820914001E+02  0.00000000000E+00 0. -1.
         11    1    4    4    0    0 -0.25839217139E+01  0.81077861576E+01 -0.10296734897E+02  0.13357978800E+02  0.51100000000E-03 0. -1.
        -11    1    4    4    0    0 -0.12773461457E+02  0.28775439518E+02 -0.94041648528E+01  0.32857655940E+02  0.51100000000E-03 0.  1.
        -12    1    4    4    0    0  0.41274785804E+01 -0.51448938036E+01  0.47895872411E+01  0.81514512586E+01  0.00000000000E+00 0.  1.
</event>
<event>
 8    1  0.1238315E-006  0.9118800E+02  0.7816164E-02  0.1184000E+00
        -11   -1    0    0    0    0  0.00000000000E+00  0.00000000000E+00  0.45593999997E+02  0.45594000000E+02  0.51100000000E-03 0. -1.
         11   -1    0    0    0    0 -0.00000000000E+00 -0.00000000000E+00 -0.45593999997E+02  0.45594000000E+02  0.51100000000E-03 0.  1.
         23    2    1    2    0    0  0.00000000000E+00  0.00000000000E+00  0.00000000000E+00  0.91188000000E+02  0.91188000000E+02 0.  0.
    9900012    2    3    3    0    0 -0.82962935161E+01  0.23280212416E+02  0.27294341896E+02  0.54367110878E+02  0.40000060868E+02 0.  0.
        -12    1    3    3    0    0  0.82962935161E+01 -0.23280212416E+02 -0.27294341896E+02  0.36820889122E+02  0.00000000000E+00 0.  1.
         11    1    4    4    0    0 -0.29479684172E+01  0.28574001255E+02  0.30225880205E+02  0.41698535945E+02  0.51100000000E-03 0. -1.
        -11    1    4    4    0    0 -0.26158017154E+01  0.10010799653E+01 -0.47991104767E+01  0.55566213961E+01  0.51100000000E-03 0.  1.
         12    1    4    4    0    0 -0.27325233835E+01 -0.62948688045E+01  0.18675721673E+01  0.71119535367E+01  0.00000000000E+00 0. -1.
</event>
<event>
 8    1  0.1238315E-006  0.9118800E+02  0.7816164E-02  0.1184000E+00
        -11   -1    0    0    0    0  0.00000000000E+00  0.00000000000E+00  0.45593999997E+02  0.45594000000E+02  0.51100000000E-03 0. -1.
         11   -1    0    0    0    0 -0.00000000000E+00 -0.00000000000E+00 -0.45593999997E+02  0.45594000000E+02  0.51100000000E-03 0.  1.
         23    2    1    2    0    0  0.35527136788E-14 -0.35527136788E-14  0.17763568394E-14  0.91188000000E+02  0.91188000000E+02 0.  0.
    9900012    2    3    3    0    0 -0.31867141521E+02  0.99060168275E+01 -0.15560861753E+02  0.54367023688E+02  0.39999862100E+02 0.  0.
         12    1    3    3    0    0  0.31867141521E+02 -0.99060168275E+01  0.15560861753E+02  0.36820976312E+02  0.00000000000E+00 0. -1.
         11    1    4    4    0    0 -0.13990262968E+01  0.11514673650E+02 -0.67867223042E+01  0.13438920482E+02  0.51100000000E-03 0.  1.
        -11    1    4    4    0    0 -0.32713170411E+02  0.40601244241E+01 -0.40440570082E+01  0.33211301179E+02  0.51100000000E-03 0. -1.
         12    1    4    4    0    0  0.22450551866E+01 -0.56687812464E+01 -0.47300824411E+01  0.77168020261E+01  0.00000000000E+00 0. -1.
</event>
<event>
 8    1  0.1238315E-006  0.9118800E+02  0.7816164E-02  0.1184000E+00
        -11   -1    0    0    0    0  0.00000000000E+00  0.00000000000E+00  0.45593999997E+02  0.45594000000E+02  0.51100000000E-03 0. -1.
         11   -1    0    0    0    0 -0.00000000000E+00 -0.00000000000E+00 -0.45593999997E+02  0.45594000000E+02  0.51100000000E-03 0.  1.
         23    2    1    2    0    0 -0.35527136788E-14  0.26645352591E-14  0.00000000000E+00  0.91188000000E+02  0.91188000000E+02 0.  0.
    9900012    2    3    3    0    0 -0.16196520931E+02  0.48157559587E+01  0.32714764816E+02  0.54367154916E+02  0.40000161262E+02 0.  0.
        -12    1    3    3    0    0  0.16196520931E+02 -0.48157559587E+01 -0.32714764816E+02  0.36820845084E+02  0.00000000000E+00 0.  1.
         11    1    4    4    0    0 -0.59340163298E+00 -0.56894167132E+01 -0.47182629841E+01  0.74150923044E+01  0.51100000000E-03 0. -1.
        -11    1    4    4    0    0  0.14002910403E+01 -0.24127503382E+01 -0.10178793817E+01  0.29695551668E+01  0.51100000000E-03 0.  1.
         12    1    4    4    0    0 -0.17003410338E+02  0.12917923010E+02  0.38450907182E+02  0.43982507445E+02  0.00000000000E+00 0. -1.
</event>
<event>
 8    1  0.1238315E-006  0.9118800E+02  0.7816164E-02  0.1184000E+00
        -11   -1    0    0    0    0  0.00000000000E+00  0.00000000000E+00  0.45593999997E+02  0.45594000000E+02  0.51100000000E-03 0. -1.
         11   -1    0    0    0    0 -0.00000000000E+00 -0.00000000000E+00 -0.45593999997E+02  0.45594000000E+02  0.51100000000E-03 0.  1.
         23    2    1    2    0    0 -0.35527136788E-14  0.00000000000E+00  0.00000000000E+00  0.91188000000E+02  0.91188000000E+02 0.  0.
    9900012    2    3    3    0    0  0.31551316923E+02  0.38118928216E+01  0.18594749714E+02  0.54367070580E+02  0.39999969001E+02 0.  0.
        -12    1    3    3    0    0 -0.31551316923E+02 -0.38118928216E+01 -0.18594749714E+02  0.36820929420E+02  0.00000000000E+00 0.  1.
         11    1    4    4    0    0  0.36186210489E+02  0.18267449031E+01  0.98367688917E+01  0.37543852346E+02  0.51100000000E-03 0. -1.
        -11    1    4    4    0    0  0.11107344713E+01 -0.47872848123E+01  0.96647844031E+00  0.50085834101E+01  0.51100000000E-03 0.  1.
         12    1    4    4    0    0 -0.57456280378E+01  0.67724327307E+01  0.77915023818E+01  0.11814634823E+02  0.00000000000E+00 0. -1.
</event>
<event>
 8    1  0.1238315E-006  0.9118800E+02  0.7816164E-02  0.1184000E+00
        -11   -1    0    0    0    0  0.00000000000E+00  0.00000000000E+00  0.45593999997E+02  0.45594000000E+02  0.51100000000E-03 0.  1.
         11   -1    0    0    0    0 -0.00000000000E+00 -0.00000000000E+00 -0.45593999997E+02  0.45594000000E+02  0.51100000000E-03 0. -1.
         23    2    1    2    0    0  0.35527136788E-14  0.35527136788E-14  0.00000000000E+00  0.91188000000E+02  0.91188000000E+02 0.  0.
    9900012    2    3    3    0    0 -0.12271296638E+02  0.17679463651E+02 -0.29876955150E+02  0.54367073814E+02  0.39999976374E+02 0.  0.
        -12    1    3    3    0    0  0.12271296638E+02 -0.17679463651E+02  0.29876955150E+02  0.36820926186E+02  0.00000000000E+00 0.  1.
         11    1    4    4    0    0 -0.13883259437E+02  0.64596036075E+01 -0.24250141895E+02  0.28679971296E+02  0.51100000000E-03 0. -1.
        -11    1    4    4    0    0  0.52885321514E+01 -0.48104703244E+01  0.21906529494E+01  0.74771757813E+01  0.51100000000E-03 0.  1.
        -12    1    4    4    0    0 -0.36765693521E+01  0.16030330368E+02 -0.78174662051E+01  0.18209926737E+02  0.00000000000E+00 0.  1.
</event>
<event>
 8    1  0.1238315E-006  0.9118800E+02  0.7816164E-02  0.1184000E+00
        -11   -1    0    0    0    0  0.00000000000E+00  0.00000000000E+00  0.45593999997E+02  0.45594000000E+02  0.51100000000E-03 0.  1.
         11   -1    0    0    0    0 -0.00000000000E+00 -0.00000000000E+00 -0.45593999997E+02  0.45594000000E+02  0.51100000000E-03 0. -1.
         23    2    1    2    0    0 -0.17763568394E-14  0.00000000000E+00  0.00000000000E+00  0.91188000000E+02  0.91188000000E+02 0.  0.
    9900012    2    3    3    0    0 -0.15560287598E+02  0.25967231554E+02  0.20960925925E+02  0.54367080941E+02  0.39999992621E+02 0.  0.
         12    1    3    3    0    0  0.15560287598E+02 -0.25967231554E+02 -0.20960925925E+02  0.36820919059E+02  0.00000000000E+00 0. -1.
         11    1    4    4    0    0 -0.36099415595E+01 -0.17111096472E+01 -0.10550877588E+01  0.41319226430E+01  0.51100000000E-03 0. -1.
        -11    1    4    4    0    0  0.11574571621E+02  0.87182649075E+01  0.10524387669E+02  0.17909259819E+02  0.51100000000E-03 0.  1.
        -12    1    4    4    0    0 -0.23524917660E+02  0.18960076294E+02  0.11491626015E+02  0.32325898479E+02  0.00000000000E+00 0.  1.
</event>
<event>
 8    1  0.1238315E-006  0.9118800E+02  0.7816164E-02  0.1184000E+00
        -11   -1    0    0    0    0  0.00000000000E+00  0.00000000000E+00  0.45593999997E+02  0.45594000000E+02  0.51100000000E-03 0. -1.
         11   -1    0    0    0    0 -0.00000000000E+00 -0.00000000000E+00 -0.45593999997E+02  0.45594000000E+02  0.51100000000E-03 0.  1.
         23    2    1    2    0    0 -0.17763568394E-14  0.00000000000E+00  0.00000000000E+00  0.91188000000E+02  0.91188000000E+02 0.  0.
    9900012    2    3    3    0    0  0.10412822670E+02  0.17367535594E+02  0.30752591159E+02  0.54367081603E+02  0.39999994131E+02 0.  0.
        -12    1    3    3    0    0 -0.10412822670E+02 -0.17367535594E+02 -0.30752591159E+02  0.36820918397E+02  0.00000000000E+00 0.  1.
         11    1    4    4    0    0  0.76415338630E+01  0.15755723951E+02  0.54357616436E+01  0.18335304249E+02  0.51100000000E-03 0.  1.
        -11    1    4    4    0    0 -0.79572444907E+01  0.78568377008E+01  0.50604420513E+01  0.12274188876E+02  0.51100000000E-03 0. -1.
        -12    1    4    4    0    0  0.10728533298E+02 -0.62450260586E+01  0.20256387464E+02  0.23757588478E+02  0.00000000000E+00 0.  1.
</event>
<event>
 8    1  0.1238315E-006  0.9118800E+02  0.7816164E-02  0.1184000E+00
        -11   -1    0    0    0    0  0.00000000000E+00  0.00000000000E+00  0.45593999997E+02  0.45594000000E+02  0.51100000000E-03 0. -1.
         11   -1    0    0    0    0 -0.00000000000E+00 -0.00000000000E+00 -0.45593999997E+02  0.45594000000E+02  0.51100000000E-03 0.  1.
         23    2    1    2    0    0 -0.17763568394E-14 -0.35527136788E-14  0.00000000000E+00  0.91188000000E+02  0.91188000000E+02 0.  0.
    9900012    2    3    3    0    0 -0.14907060991E+02 -0.29796681813E+02 -0.15675387853E+02  0.54367075259E+02  0.39999979669E+02 0.  0.
         12    1    3    3    0    0  0.14907060991E+02  0.29796681813E+02  0.15675387853E+02  0.36820924741E+02  0.00000000000E+00 0. -1.
         11    1    4    4    0    0 -0.13022188541E+01  0.28567527443E+00  0.84014062661E+01  0.85065276003E+01  0.51100000000E-03 0. -1.
        -11    1    4    4    0    0 -0.49407208989E+01 -0.66638762339E+00 -0.11834552109E+02  0.12841784119E+02  0.51100000000E-03 0.  1.
         12    1    4    4    0    0 -0.86641212378E+01 -0.29415969464E+02 -0.12242242010E+02  0.33018763540E+02  0.00000000000E+00 0. -1.
</event>
<event>
 8    1  0.1238315E-006  0.9118800E+02  0.7816164E-02  0.1184000E+00
        -11   -1    0    0    0    0  0.00000000000E+00  0.00000000000E+00  0.45593999997E+02  0.45594000000E+02  0.51100000000E-03 0.  1.
         11   -1    0    0    0    0 -0.00000000000E+00 -0.00000000000E+00 -0.45593999997E+02  0.45594000000E+02  0.51100000000E-03 0. -1.
         23    2    1    2    0    0 -0.17763568394E-14  0.00000000000E+00 -0.35527136788E-14  0.91188000000E+02  0.91188000000E+02 0.  0.
    9900012    2    3    3    0    0 -0.11831069621E+02 -0.31410873084E+02 -0.15138121013E+02  0.54367083878E+02  0.39999999316E+02 0.  0.
        -12    1    3    3    0    0  0.11831069621E+02  0.31410873084E+02  0.15138121013E+02  0.36820916122E+02  0.00000000000E+00 0.  1.
         11    1    4    4    0    0  0.28765958457E+01  0.61471557410E+01 -0.79321548697E+01  0.10439416100E+02  0.51100000000E-03 0.  1.
        -11    1    4    4    0    0  0.16514044807E+01 -0.47627466374E+00 -0.26278402099E+01  0.31399870611E+01  0.51100000000E-03 0. -1.
         12    1    4    4    0    0 -0.16359069948E+02 -0.37081754161E+02 -0.45781259330E+01  0.40787680717E+02  0.00000000000E+00 0. -1.
</event>
<event>
 8    1  0.1238315E-006  0.9118800E+02  0.7816164E-02  0.1184000E+00
        -11   -1    0    0    0    0  0.00000000000E+00  0.00000000000E+00  0.45593999997E+02  0.45594000000E+02  0.51100000000E-03 0. -1.
         11   -1    0    0    0    0 -0.00000000000E+00 -0.00000000000E+00 -0.45593999997E+02  0.45594000000E+02  0.51100000000E-03 0.  1.
         23    2    1    2    0    0  0.71054273576E-14 -0.35527136788E-14 -0.10658141036E-13  0.91188000000E+02  0.91188000000E+02 0.  0.
    9900012    2    3    3    0    0  0.21939679330E+02 -0.98777690061E+01 -0.27872213995E+02  0.54367079823E+02  0.39999990073E+02 0.  0.
         12    1    3    3    0    0 -0.21939679330E+02  0.98777690061E+01  0.27872213995E+02  0.36820920177E+02  0.00000000000E+00 0. -1.
         11    1    4    4    0    0  0.37251698893E+01 -0.39496974378E+01 -0.82193190128E+01  0.98505941876E+01  0.51100000000E-03 0. -1.
        -11    1    4    4    0    0  0.60678160190E+00 -0.17823266994E+02 -0.13583207678E+02  0.22417416474E+02  0.51100000000E-03 0.  1.
         12    1    4    4    0    0  0.17607727839E+02  0.11895195426E+02 -0.60696873042E+01  0.22099069162E+02  0.00000000000E+00 0. -1.
</event>
<event>
 8    1  0.1238315E-006  0.9118800E+02  0.7816164E-02  0.1184000E+00
        -11   -1    0    0    0    0  0.00000000000E+00  0.00000000000E+00  0.45593999997E+02  0.45594000000E+02  0.51100000000E-03 0.  1.
         11   -1    0    0    0    0 -0.00000000000E+00 -0.00000000000E+00 -0.45593999997E+02  0.45594000000E+02  0.51100000000E-03 0. -1.
         23    2    1    2    0    0  0.00000000000E+00  0.17763568394E-14  0.00000000000E+00  0.91188000000E+02  0.91188000000E+02 0.  0.
    9900012    2    3    3    0    0 -0.19330253853E+02 -0.12378387338E+02 -0.28790592946E+02  0.54367062624E+02  0.39999950863E+02 0.  0.
        -12    1    3    3    0    0  0.19330253853E+02  0.12378387338E+02  0.28790592946E+02  0.36820937376E+02  0.00000000000E+00 0.  1.
         11    1    4    4    0    0 -0.75912015422E+01 -0.57409186431E+01 -0.13949296433E+02  0.16886899033E+02  0.51100000000E-03 0. -1.
        -11    1    4    4    0    0 -0.10991083339E+02 -0.17322917054E+02 -0.16890909939E+02  0.26574239538E+02  0.51100000000E-03 0.  1.
        -12    1    4    4    0    0 -0.74796897208E+00  0.10685448360E+02  0.20496134259E+01  0.10905924052E+02  0.00000000000E+00 0.  1.
</event>
<event>
 8    1  0.1238315E-006  0.9118800E+02  0.7816164E-02  0.1184000E+00
        -11   -1    0    0    0    0  0.00000000000E+00  0.00000000000E+00  0.45593999997E+02  0.45594000000E+02  0.51100000000E-03 0.  1.
         11   -1    0    0    0    0 -0.00000000000E+00 -0.00000000000E+00 -0.45593999997E+02  0.45594000000E+02  0.51100000000E-03 0. -1.
         23    2    1    2    0    0 -0.35527136788E-14  0.88817841970E-15  0.00000000000E+00  0.91188000000E+02  0.91188000000E+02 0.  0.
    9900012    2    3    3    0    0  0.27637403736E+02 -0.74331043158E+01  0.23166846448E+02  0.54367083399E+02  0.39999998225E+02 0.  0.
         12    1    3    3    0    0 -0.27637403736E+02  0.74331043158E+01 -0.23166846448E+02  0.36820916601E+02  0.00000000000E+00 0. -1.
         11    1    4    4    0    0  0.93520112663E+01 -0.57694276035E+00 -0.21474888721E+01  0.96127356351E+01  0.51100000000E-03 0.  1.
        -11    1    4    4    0    0  0.15834535167E+02  0.52939383955E+01  0.14288735039E+00  0.16696667475E+02  0.51100000000E-03 0. -1.
         12    1    4    4    0    0  0.24508573018E+01 -0.12150099951E+02  0.25171447969E+02  0.28057680289E+02  0.00000000000E+00 0. -1.
</event>
<event>
 8    1  0.1238315E-006  0.9118800E+02  0.7816164E-02  0.1184000E+00
        -11   -1    0    0    0    0  0.00000000000E+00  0.00000000000E+00  0.45593999997E+02  0.45594000000E+02  0.51100000000E-03 0.  1.
         11   -1    0    0    0    0 -0.00000000000E+00 -0.00000000000E+00 -0.45593999997E+02  0.45594000000E+02  0.51100000000E-03 0. -1.
         23    2    1    2    0    0  0.13322676296E-14  0.35527136788E-14 -0.35527136788E-14  0.91188000000E+02  0.91188000000E+02 0.  0.
    9900012    2    3    3    0    0 -0.26667608572E+01 -0.22568269581E+02 -0.28971391270E+02  0.54367083153E+02  0.39999997664E+02 0.  0.
        -12    1    3    3    0    0  0.26667608572E+01  0.22568269581E+02  0.28971391270E+02  0.36820916847E+02  0.00000000000E+00 0.  1.
         11    1    4    4    0    0 -0.84822637763E+01  0.42211735175E+01  0.17422582094E+00  0.94761521481E+01  0.51100000000E-03 0. -1.
        -11    1    4    4    0    0  0.99713453867E+01 -0.18969523219E+02 -0.96996274014E+01  0.23523463009E+02  0.51100000000E-03 0.  1.
         12    1    4    4    0    0 -0.41558424676E+01 -0.78199198793E+01 -0.19445989690E+02  0.21367467996E+02  0.00000000000E+00 0. -1.
</event>
<event>
 8    1  0.1238315E-006  0.9118800E+02  0.7816164E-02  0.1184000E+00
        -11   -1    0    0    0    0  0.00000000000E+00  0.00000000000E+00  0.45593999997E+02  0.45594000000E+02  0.51100000000E-03 0.  1.
         11   -1    0    0    0    0 -0.00000000000E+00 -0.00000000000E+00 -0.45593999997E+02  0.45594000000E+02  0.51100000000E-03 0. -1.
         23    2    1    2    0    0  0.00000000000E+00  0.00000000000E+00  0.00000000000E+00  0.91188000000E+02  0.91188000000E+02 0.  0.
    9900012    2    3    3    0    0 -0.24267644062E+02 -0.26810474666E+02 -0.69324371939E+01  0.54367098522E+02  0.40000032702E+02 0.  0.
        -12    1    3    3    0    0  0.24267644062E+02  0.26810474666E+02  0.69324371939E+01  0.36820901478E+02  0.00000000000E+00 0.  1.
         11    1    4    4    0    0 -0.26389313553E+02 -0.16071662459E+02 -0.40305375691E+01  0.31159901113E+02  0.51100000000E-03 0. -1.
        -11    1    4    4    0    0 -0.84924773350E+01 -0.10114469004E+01 -0.17704975849E+00  0.85543289038E+01  0.51100000000E-03 0.  1.
         12    1    4    4    0    0  0.10614146826E+02 -0.97273653065E+01 -0.27248498664E+01  0.14652868506E+02  0.00000000000E+00 0. -1.
</event>
<event>
 8    1  0.1238315E-006  0.9118800E+02  0.7816164E-02  0.1184000E+00
        -11   -1    0    0    0    0  0.00000000000E+00  0.00000000000E+00  0.45593999997E+02  0.45594000000E+02  0.51100000000E-03 0. -1.
         11   -1    0    0    0    0 -0.00000000000E+00 -0.00000000000E+00 -0.45593999997E+02  0.45594000000E+02  0.51100000000E-03 0.  1.
         23    2    1    2    0    0  0.00000000000E+00  0.00000000000E+00  0.35527136788E-14  0.91188000000E+02  0.91188000000E+02 0.  0.
    9900012    2    3    3    0    0  0.29850569542E+02 -0.11098916182E+02  0.18480719560E+02  0.54367089666E+02  0.40000012511E+02 0.  0.
        -12    1    3    3    0    0 -0.29850569542E+02  0.11098916182E+02 -0.18480719560E+02  0.36820910334E+02  0.00000000000E+00 0.  1.
         11    1    4    4    0    0  0.26107190637E+02 -0.68568564590E+01 -0.43488484794E+00  0.26996129510E+02  0.51100000000E-03 0. -1.
        -11    1    4    4    0    0  0.14798958329E+01  0.51538475730E+01 -0.79278529534E+00  0.54204008401E+01  0.51100000000E-03 0.  1.
         12    1    4    4    0    0  0.22634830721E+01 -0.93959072963E+01  0.19708389704E+02  0.21950559315E+02  0.00000000000E+00 0. -1.
</event>
<event>
 8    1  0.1238315E-006  0.9118800E+02  0.7816164E-02  0.1184000E+00
        -11   -1    0    0    0    0  0.00000000000E+00  0.00000000000E+00  0.45593999997E+02  0.45594000000E+02  0.51100000000E-03 0.  1.
         11   -1    0    0    0    0 -0.00000000000E+00 -0.00000000000E+00 -0.45593999997E+02  0.45594000000E+02  0.51100000000E-03 0. -1.
         23    2    1    2    0    0 -0.26645352591E-14 -0.71054273576E-14 -0.35527136788E-14  0.91188000000E+02  0.91188000000E+02 0.  0.
    9900012    2    3    3    0    0  0.48674067064E+01  0.35490500060E+02 -0.85154361964E+01  0.54367083442E+02  0.39999998322E+02 0.  0.
        -12    1    3    3    0    0 -0.48674067064E+01 -0.35490500060E+02  0.85154361964E+01  0.36820916558E+02  0.00000000000E+00 0.  1.
         11    1    4    4    0    0 -0.75983668856E+01  0.54874919448E+01 -0.29403199542E+01  0.98230967045E+01  0.51100000000E-03 0. -1.
        -11    1    4    4    0    0  0.99314209635E+01  0.16917955183E+01  0.81697622867E+01  0.12970748263E+02  0.51100000000E-03 0.  1.
        -12    1    4    4    0    0  0.25343526285E+01  0.28311212597E+02 -0.13744878529E+02  0.31573238474E+02  0.00000000000E+00 0.  1.
</event>
<event>
 8    1  0.1238315E-006  0.9118800E+02  0.7816164E-02  0.1184000E+00
        -11   -1    0    0    0    0  0.00000000000E+00  0.00000000000E+00  0.45593999997E+02  0.45594000000E+02  0.51100000000E-03 0.  1.
         11   -1    0    0    0    0 -0.00000000000E+00 -0.00000000000E+00 -0.45593999997E+02  0.45594000000E+02  0.51100000000E-03 0. -1.
         23    2    1    2    0    0 -0.71054273576E-14  0.88817841970E-15  0.88817841970E-15  0.91188000000E+02  0.91188000000E+02 0.  0.
    9900012    2    3    3    0    0 -0.36176561695E+02  0.56359179777E+01 -0.39078165363E+01  0.54367106236E+02  0.40000050285E+02 0.  0.
         12    1    3    3    0    0  0.36176561695E+02 -0.56359179777E+01  0.39078165363E+01  0.36820893764E+02  0.00000000000E+00 0. -1.
         11    1    4    4    0    0  0.92840920386E+00  0.85775969995E+01  0.88467053003E+01  0.12357237105E+02  0.51100000000E-03 0. -1.
        -11    1    4    4    0    0 -0.21907998655E+02  0.20077356427E+01 -0.13838866212E+02  0.25990491064E+02  0.51100000000E-03 0.  1.
         12    1    4    4    0    0 -0.15196972244E+02 -0.49494146645E+01  0.10843443754E+01  0.16019378066E+02  0.00000000000E+00 0. -1.
</event>
<event>
 8    1  0.1238315E-006  0.9118800E+02  0.7816164E-02  0.1184000E+00
        -11   -1    0    0    0    0  0.00000000000E+00  0.00000000000E+00  0.45593999997E+02  0.45594000000E+02  0.51100000000E-03 0.  1.
         11   -1    0    0    0    0 -0.00000000000E+00 -0.00000000000E+00 -0.45593999997E+02  0.45594000000E+02  0.51100000000E-03 0. -1.
         23    2    1    2    0    0  0.17763568394E-14  0.35527136788E-14  0.00000000000E+00  0.91188000000E+02  0.91188000000E+02 0.  0.
    9900012    2    3    3    0    0 -0.68462738682E+01  0.11759016218E+02  0.34214524871E+02  0.54367086915E+02  0.40000006239E+02 0.  0.
         12    1    3    3    0    0  0.68462738682E+01 -0.11759016218E+02 -0.34214524871E+02  0.36820913085E+02  0.00000000000E+00 0. -1.
         11    1    4    4    0    0 -0.41838049501E+01 -0.98283165415E+01  0.16348273006E+02  0.19528595967E+02  0.51100000000E-03 0.  1.
        -11    1    4    4    0    0  0.41859342639E+01 -0.18929460623E+01  0.76837769378E-01  0.45946920202E+01  0.51100000000E-03 0. -1.
        -12    1    4    4    0    0 -0.68484031820E+01  0.23480278822E+02  0.17789414095E+02  0.30243798927E+02  0.00000000000E+00 0.  1.
</event>
<event>
 8    1  0.1238315E-006  0.9118800E+02  0.7816164E-02  0.1184000E+00
        -11   -1    0    0    0    0  0.00000000000E+00  0.00000000000E+00  0.45593999997E+02  0.45594000000E+02  0.51100000000E-03 0.  1.
         11   -1    0    0    0    0 -0.00000000000E+00 -0.00000000000E+00 -0.45593999997E+02  0.45594000000E+02  0.51100000000E-03 0. -1.
         23    2    1    2    0    0 -0.35527136788E-14  0.00000000000E+00 -0.35527136788E-14  0.91188000000E+02  0.91188000000E+02 0.  0.
    9900012    2    3    3    0    0  0.14059408077E+02  0.25957229275E+02 -0.22007596524E+02  0.54367095450E+02  0.40000025697E+02 0.  0.
        -12    1    3    3    0    0 -0.14059408077E+02 -0.25957229275E+02  0.22007596524E+02  0.36820904550E+02  0.00000000000E+00 0.  1.
         11    1    4    4    0    0 -0.32380601398E+01  0.19033433665E+02 -0.16502714549E+02  0.25398744423E+02  0.51100000000E-03 0. -1.
        -11    1    4    4    0    0 -0.41244182669E+01 -0.62533001633E+00  0.25265948212E+01  0.48770426819E+01  0.51100000000E-03 0.  1.
         12    1    4    4    0    0  0.21421886483E+02  0.75491256265E+01 -0.80314767970E+01  0.24091308345E+02  0.00000000000E+00 0. -1.
</event>
<event>
 8    1  0.1238315E-006  0.9118800E+02  0.7816164E-02  0.1184000E+00
        -11   -1    0    0    0    0  0.00000000000E+00  0.00000000000E+00  0.45593999997E+02  0.45594000000E+02  0.51100000000E-03 0. -1.
         11   -1    0    0    0    0 -0.00000000000E+00 -0.00000000000E+00 -0.45593999997E+02  0.45594000000E+02  0.51100000000E-03 0.  1.
         23    2    1    2    0    0  0.00000000000E+00  0.00000000000E+00 -0.35527136788E-14  0.91188000000E+02  0.91188000000E+02 0.  0.
    9900012    2    3    3    0    0  0.23730490973E+02 -0.85694703045E+01  0.26818041651E+02  0.54367090436E+02  0.40000014266E+02 0.  0.
        -12    1    3    3    0    0 -0.23730490973E+02  0.85694703045E+01 -0.26818041651E+02  0.36820909564E+02  0.00000000000E+00 0.  1.
         11    1    4    4    0    0  0.14054105642E+02 -0.71532812537E+01  0.30197256536E+02  0.34067016609E+02  0.51100000000E-03 0. -1.
        -11    1    4    4    0    0  0.66352006804E+01 -0.40964642523E+01  0.61585933656E+01  0.99365577513E+01  0.51100000000E-03 0.  1.
        -12    1    4    4    0    0  0.30411846511E+01  0.26802752015E+01 -0.95378082499E+01  0.10363516076E+02  0.00000000000E+00 0.  1.
</event>
<event>
 8    1  0.1238315E-006  0.9118800E+02  0.7816164E-02  0.1184000E+00
        -11   -1    0    0    0    0  0.00000000000E+00  0.00000000000E+00  0.45593999997E+02  0.45594000000E+02  0.51100000000E-03 0.  1.
         11   -1    0    0    0    0 -0.00000000000E+00 -0.00000000000E+00 -0.45593999997E+02  0.45594000000E+02  0.51100000000E-03 0. -1.
         23    2    1    2    0    0  0.71054273576E-14  0.22204460493E-14  0.00000000000E+00  0.91188000000E+02  0.91188000000E+02 0.  0.
    9900012    2    3    3    0    0 -0.35639805023E+02 -0.22193305716E+01  0.89801015631E+01  0.54367308068E+02  0.40000510399E+02 0.  0.
        -12    1    3    3    0    0  0.35639805023E+02  0.22193305716E+01 -0.89801015631E+01  0.36820691932E+02  0.00000000000E+00 0.  1.
         11    1    4    4    0    0 -0.25129375281E+02  0.61453003613E+01  0.11258350480E+02  0.28213483910E+02  0.51100000000E-03 0. -1.
        -11    1    4    4    0    0 -0.17018173073E+02 -0.46824000144E+01  0.16138955190E+01  0.17724213485E+02  0.51100000000E-03 0.  1.
         12    1    4    4    0    0  0.65077433308E+01 -0.36822309184E+01 -0.38921444354E+01  0.84296106733E+01  0.00000000000E+00 0. -1.
</event>
<event>
 8    1  0.1238315E-006  0.9118800E+02  0.7816164E-02  0.1184000E+00
        -11   -1    0    0    0    0  0.00000000000E+00  0.00000000000E+00  0.45593999997E+02  0.45594000000E+02  0.51100000000E-03 0. -1.
         11   -1    0    0    0    0 -0.00000000000E+00 -0.00000000000E+00 -0.45593999997E+02  0.45594000000E+02  0.51100000000E-03 0.  1.
         23    2    1    2    0    0  0.00000000000E+00  0.35527136788E-14 -0.17763568394E-14  0.91188000000E+02  0.91188000000E+02 0.  0.
    9900012    2    3    3    0    0  0.31607324205E+02  0.16419762505E+02 -0.93353581615E+01  0.54367075838E+02  0.39999980988E+02 0.  0.
         12    1    3    3    0    0 -0.31607324205E+02 -0.16419762505E+02  0.93353581615E+01  0.36820924162E+02  0.00000000000E+00 0. -1.
         11    1    4    4    0    0 -0.28688210504E+01 -0.41207774745E+01 -0.43759243218E+01  0.66603044333E+01  0.51100000000E-03 0. -1.
        -11    1    4    4    0    0  0.35468006130E+02  0.13169630197E+02  0.14887005093E+01  0.37863370793E+02  0.51100000000E-03 0.  1.
         12    1    4    4    0    0 -0.99186087387E+00  0.73709097829E+01 -0.64481343490E+01  0.98434006118E+01  0.00000000000E+00 0. -1.
</event>
<event>
 8    1  0.1238315E-006  0.9118800E+02  0.7816164E-02  0.1184000E+00
        -11   -1    0    0    0    0  0.00000000000E+00  0.00000000000E+00  0.45593999997E+02  0.45594000000E+02  0.51100000000E-03 0. -1.
         11   -1    0    0    0    0 -0.00000000000E+00 -0.00000000000E+00 -0.45593999997E+02  0.45594000000E+02  0.51100000000E-03 0.  1.
         23    2    1    2    0    0  0.00000000000E+00  0.00000000000E+00  0.22204460493E-15  0.91188000000E+02  0.91188000000E+02 0.  0.
    9900012    2    3    3    0    0  0.36557878940E+01 -0.36618590362E+02  0.12222920194E+01  0.54367082806E+02  0.39999996874E+02 0.  0.
         12    1    3    3    0    0 -0.36557878940E+01  0.36618590362E+02 -0.12222920194E+01  0.36820917194E+02  0.00000000000E+00 0. -1.
         11    1    4    4    0    0  0.13075746964E+02 -0.22703430224E+02  0.12287990506E+02  0.28938134244E+02  0.51100000000E-03 0. -1.
        -11    1    4    4    0    0 -0.18990791580E+01 -0.13862659743E+02 -0.11175151028E+02  0.17907089031E+02  0.51100000000E-03 0.  1.
        -12    1    4    4    0    0 -0.75208799121E+01 -0.52500394766E-01  0.10945254169E+00  0.75218595309E+01  0.00000000000E+00 0.  1.
</event>
<event>
 8    1  0.1238315E-006  0.9118800E+02  0.7816164E-02  0.1184000E+00
        -11   -1    0    0    0    0  0.00000000000E+00  0.00000000000E+00  0.45593999997E+02  0.45594000000E+02  0.51100000000E-03 0. -1.
         11   -1    0    0    0    0 -0.00000000000E+00 -0.00000000000E+00 -0.45593999997E+02  0.45594000000E+02  0.51100000000E-03 0.  1.
         23    2    1    2    0    0  0.00000000000E+00 -0.88817841970E-15  0.00000000000E+00  0.91188000000E+02  0.91188000000E+02 0.  0.
    9900012    2    3    3    0    0 -0.17936481563E+02  0.21446009545E+01 -0.32085258140E+02  0.54367075595E+02  0.39999980435E+02 0.  0.
         12    1    3    3    0    0  0.17936481563E+02 -0.21446009545E+01  0.32085258140E+02  0.36820924405E+02  0.00000000000E+00 0. -1.
         11    1    4    4    0    0  0.12718101218E+01  0.38204128875E+01 -0.15289390377E+00  0.40294456720E+01  0.51100000000E-03 0. -1.
        -11    1    4    4    0    0  0.39009400983E+01 -0.93500651639E+01 -0.21654416597E+02  0.23907212524E+02  0.51100000000E-03 0.  1.
         12    1    4    4    0    0 -0.23109231783E+02  0.76742532309E+01 -0.10277947638E+02  0.26430417400E+02  0.00000000000E+00 0. -1.
</event>
<event>
 8    1  0.1238315E-006  0.9118800E+02  0.7816164E-02  0.1184000E+00
        -11   -1    0    0    0    0  0.00000000000E+00  0.00000000000E+00  0.45593999997E+02  0.45594000000E+02  0.51100000000E-03 0. -1.
         11   -1    0    0    0    0 -0.00000000000E+00 -0.00000000000E+00 -0.45593999997E+02  0.45594000000E+02  0.51100000000E-03 0.  1.
         23    2    1    2    0    0  0.00000000000E+00  0.00000000000E+00  0.00000000000E+00  0.91188000000E+02  0.91188000000E+02 0.  0.
    9900012    2    3    3    0    0 -0.17715327292E+02  0.27639170341E+02  0.16674002847E+02  0.54367096573E+02  0.40000028258E+02 0.  0.
        -12    1    3    3    0    0  0.17715327292E+02 -0.27639170341E+02 -0.16674002847E+02  0.36820903427E+02  0.00000000000E+00 0.  1.
         11    1    4    4    0    0 -0.94288077027E+01  0.21301489443E+02 -0.78384560520E+01  0.24578390116E+02  0.51100000000E-03 0. -1.
        -11    1    4    4    0    0 -0.24188270403E+01  0.50276702931E+01  0.22891885088E+02  0.23561973516E+02  0.51100000000E-03 0.  1.
        -12    1    4    4    0    0 -0.58676925493E+01  0.13100106055E+01  0.16205738102E+01  0.62267329406E+01  0.00000000000E+00 0.  1.
</event>
<event>
 8    1  0.1238315E-006  0.9118800E+02  0.7816164E-02  0.1184000E+00
        -11   -1    0    0    0    0  0.00000000000E+00  0.00000000000E+00  0.45593999997E+02  0.45594000000E+02  0.51100000000E-03 0. -1.
         11   -1    0    0    0    0 -0.00000000000E+00 -0.00000000000E+00 -0.45593999997E+02  0.45594000000E+02  0.51100000000E-03 0.  1.
         23    2    1    2    0    0  0.35527136788E-14  0.35527136788E-14 -0.17763568394E-14  0.91188000000E+02  0.91188000000E+02 0.  0.
    9900012    2    3    3    0    0 -0.31324484437E+02 -0.17871616462E+02  0.74271919306E+01  0.54367066006E+02  0.39999958575E+02 0.  0.
        -12    1    3    3    0    0  0.31324484437E+02  0.17871616462E+02 -0.74271919306E+01  0.36820933994E+02  0.00000000000E+00 0.  1.
         11    1    4    4    0    0  0.16081516061E+00 -0.79518210550E+01  0.15898552737E+02  0.17776987906E+02  0.51100000000E-03 0. -1.
        -11    1    4    4    0    0 -0.21813816178E+02 -0.90112142907E+01  0.14955393194E+00  0.23602265270E+02  0.51100000000E-03 0.  1.
        -12    1    4    4    0    0 -0.96714834189E+01 -0.90858111638E+00 -0.86209147388E+01  0.12987812830E+02  0.00000000000E+00 0.  1.
</event>
<event>
 8    1  0.1238315E-006  0.9118800E+02  0.7816164E-02  0.1184000E+00
        -11   -1    0    0    0    0  0.00000000000E+00  0.00000000000E+00  0.45593999997E+02  0.45594000000E+02  0.51100000000E-03 0.  1.
         11   -1    0    0    0    0 -0.00000000000E+00 -0.00000000000E+00 -0.45593999997E+02  0.45594000000E+02  0.51100000000E-03 0. -1.
         23    2    1    2    0    0 -0.44408920985E-15  0.35527136788E-14  0.00000000000E+00  0.91188000000E+02  0.91188000000E+02 0.  0.
    9900012    2    3    3    0    0  0.27259125187E+01  0.23354276487E+02  0.28335961384E+02  0.54367088322E+02  0.40000009447E+02 0.  0.
         12    1    3    3    0    0 -0.27259125187E+01 -0.23354276487E+02 -0.28335961384E+02  0.36820911678E+02  0.00000000000E+00 0. -1.
         11    1    4    4    0    0 -0.81209997398E+01  0.62451341337E+01  0.13719368869E+02  0.17122307658E+02  0.51100000000E-03 0. -1.
        -11    1    4    4    0    0  0.12509161154E+02  0.53808750138E+01 -0.48517942694E+01  0.14455892798E+02  0.51100000000E-03 0.  1.
        -12    1    4    4    0    0 -0.16622488954E+01  0.11728267339E+02  0.19468386784E+02  0.22788887866E+02  0.00000000000E+00 0.  1.
</event>
<event>
 8    1  0.1238315E-006  0.9118800E+02  0.7816164E-02  0.1184000E+00
        -11   -1    0    0    0    0  0.00000000000E+00  0.00000000000E+00  0.45593999997E+02  0.45594000000E+02  0.51100000000E-03 0. -1.
         11   -1    0    0    0    0 -0.00000000000E+00 -0.00000000000E+00 -0.45593999997E+02  0.45594000000E+02  0.51100000000E-03 0.  1.
         23    2    1    2    0    0  0.71054273576E-14  0.00000000000E+00  0.35527136788E-14  0.91188000000E+02  0.91188000000E+02 0.  0.
    9900012    2    3    3    0    0 -0.29634884253E+02 -0.14782702660E+02 -0.16094310664E+02  0.54367061685E+02  0.39999948723E+02 0.  0.
         12    1    3    3    0    0  0.29634884253E+02  0.14782702660E+02  0.16094310664E+02  0.36820938315E+02  0.00000000000E+00 0. -1.
         11    1    4    4    0    0  0.85524976509E-02  0.56819759622E+01 -0.21550515282E+01  0.60769376606E+01  0.51100000000E-03 0. -1.
        -11    1    4    4    0    0 -0.69869912828E+01  0.11273845067E+01 -0.15410633102E+02  0.16958085266E+02  0.51100000000E-03 0.  1.
         12    1    4    4    0    0 -0.22656445468E+02 -0.21592063129E+02  0.14713739665E+01  0.31332038758E+02  0.00000000000E+00 0. -1.
</event>
<event>
 8    1  0.1238315E-006  0.9118800E+02  0.7816164E-02  0.1184000E+00
        -11   -1    0    0    0    0  0.00000000000E+00  0.00000000000E+00  0.45593999997E+02  0.45594000000E+02  0.51100000000E-03 0.  1.
         11   -1    0    0    0    0 -0.00000000000E+00 -0.00000000000E+00 -0.45593999997E+02  0.45594000000E+02  0.51100000000E-03 0. -1.
         23    2    1    2    0    0 -0.71054273576E-14  0.00000000000E+00  0.17763568394E-14  0.91188000000E+02  0.91188000000E+02 0.  0.
    9900012    2    3    3    0    0 -0.35215089334E+02 -0.41645564080E+01  0.99163634166E+01  0.54367077818E+02  0.39999985502E+02 0.  0.
         12    1    3    3    0    0  0.35215089334E+02  0.41645564080E+01 -0.99163634166E+01  0.36820922182E+02  0.00000000000E+00 0. -1.
         11    1    4    4    0    0 -0.25904856191E+02 -0.41914818545E+01 -0.28226097168E+01  0.26393128278E+02  0.51100000000E-03 0.  1.
        -11    1    4    4    0    0 -0.99285814031E+01 -0.10285148450E+02  0.94330626067E+01  0.17127278760E+02  0.51100000000E-03 0. -1.
         12    1    4    4    0    0  0.61834826009E+00  0.10312073896E+02  0.33059105267E+01  0.10846670781E+02  0.00000000000E+00 0. -1.
</event>
<event>
 8    1  0.1238315E-006  0.9118800E+02  0.7816164E-02  0.1184000E+00
        -11   -1    0    0    0    0  0.00000000000E+00  0.00000000000E+00  0.45593999997E+02  0.45594000000E+02  0.51100000000E-03 0. -1.
         11   -1    0    0    0    0 -0.00000000000E+00 -0.00000000000E+00 -0.45593999997E+02  0.45594000000E+02  0.51100000000E-03 0.  1.
         23    2    1    2    0    0  0.00000000000E+00  0.00000000000E+00  0.00000000000E+00  0.91188000000E+02  0.91188000000E+02 0.  0.
    9900012    2    3    3    0    0 -0.90771804442E+01 -0.21750977724E+02  0.28289247018E+02  0.54367058491E+02  0.39999941441E+02 0.  0.
        -12    1    3    3    0    0  0.90771804442E+01  0.21750977724E+02 -0.28289247018E+02  0.36820941509E+02  0.00000000000E+00 0.  1.
         11    1    4    4    0    0 -0.21678136341E+02 -0.10966702378E+02  0.22037061983E+02  0.32800034412E+02  0.51100000000E-03 0. -1.
        -11    1    4    4    0    0  0.59518252539E+01 -0.63922400187E+00 -0.26244869558E+01  0.65361122404E+01  0.51100000000E-03 0.  1.
         12    1    4    4    0    0  0.66491306429E+01 -0.10145051344E+02  0.88766719905E+01  0.15030911839E+02  0.00000000000E+00 0. -1.
</event>
<event>
 8    1  0.1238315E-006  0.9118800E+02  0.7816164E-02  0.1184000E+00
        -11   -1    0    0    0    0  0.00000000000E+00  0.00000000000E+00  0.45593999997E+02  0.45594000000E+02  0.51100000000E-03 0.  1.
         11   -1    0    0    0    0 -0.00000000000E+00 -0.00000000000E+00 -0.45593999997E+02  0.45594000000E+02  0.51100000000E-03 0. -1.
         23    2    1    2    0    0 -0.35527136788E-14  0.00000000000E+00  0.00000000000E+00  0.91188000000E+02  0.91188000000E+02 0.  0.
    9900012    2    3    3    0    0 -0.29573728146E+02  0.10017417162E+02 -0.19514767122E+02  0.54367079604E+02  0.39999989573E+02 0.  0.
        -12    1    3    3    0    0  0.29573728146E+02 -0.10017417162E+02  0.19514767122E+02  0.36820920396E+02  0.00000000000E+00 0.  1.
         11    1    4    4    0    0 -0.19996244279E+02 -0.29865118171E+01 -0.30632746415E+00  0.20220357932E+02  0.51100000000E-03 0. -1.
        -11    1    4    4    0    0  0.44913944366E+01  0.69259113761E+00 -0.14030200873E+02  0.14747841986E+02  0.51100000000E-03 0.  1.
        -12    1    4    4    0    0 -0.14068878303E+02  0.12311337841E+02 -0.51782387847E+01  0.19398879686E+02  0.00000000000E+00 0.  1.
</event>
<event>
 8    1  0.1238315E-006  0.9118800E+02  0.7816164E-02  0.1184000E+00
        -11   -1    0    0    0    0  0.00000000000E+00  0.00000000000E+00  0.45593999997E+02  0.45594000000E+02  0.51100000000E-03 0.  1.
         11   -1    0    0    0    0 -0.00000000000E+00 -0.00000000000E+00 -0.45593999997E+02  0.45594000000E+02  0.51100000000E-03 0. -1.
         23    2    1    2    0    0  0.00000000000E+00  0.00000000000E+00  0.22204460493E-15  0.91188000000E+02  0.91188000000E+02 0.  0.
    9900012    2    3    3    0    0  0.10621197021E+02 -0.35228340743E+02  0.13911822570E+01  0.54367065659E+02  0.39999957783E+02 0.  0.
         12    1    3    3    0    0 -0.10621197021E+02  0.35228340743E+02 -0.13911822570E+01  0.36820934341E+02  0.00000000000E+00 0. -1.
         11    1    4    4    0    0  0.19122513401E+00 -0.13412952091E+02 -0.15942514401E+02  0.20835249376E+02  0.51100000000E-03 0. -1.
        -11    1    4    4    0    0  0.83382094752E+01 -0.77991025936E+01  0.15486904315E+02  0.19240476710E+02  0.51100000000E-03 0.  1.
         12    1    4    4    0    0  0.20917624113E+01 -0.14016286058E+02  0.18467923434E+01  0.14291339574E+02  0.00000000000E+00 0. -1.
</event>
<event>
 8    1  0.1238315E-006  0.9118800E+02  0.7816164E-02  0.1184000E+00
        -11   -1    0    0    0    0  0.00000000000E+00  0.00000000000E+00  0.45593999997E+02  0.45594000000E+02  0.51100000000E-03 0. -1.
         11   -1    0    0    0    0 -0.00000000000E+00 -0.00000000000E+00 -0.45593999997E+02  0.45594000000E+02  0.51100000000E-03 0.  1.
         23    2    1    2    0    0  0.66613381478E-15  0.00000000000E+00 -0.17763568394E-14  0.91188000000E+02  0.91188000000E+02 0.  0.
    9900012    2    3    3    0    0  0.14866943038E+01  0.33259780562E+02 -0.15727621299E+02  0.54367063907E+02  0.39999953790E+02 0.  0.
         12    1    3    3    0    0 -0.14866943038E+01 -0.33259780562E+02  0.15727621299E+02  0.36820936093E+02  0.00000000000E+00 0. -1.
         11    1    4    4    0    0  0.46858423971E+01  0.22696078061E+01 -0.29471843573E+01  0.59828199423E+01  0.51100000000E-03 0. -1.
        -11    1    4    4    0    0  0.31660348743E+01  0.26066482602E+02 -0.23323612533E+02  0.35120879743E+02  0.51100000000E-03 0.  1.
         12    1    4    4    0    0 -0.63651829676E+01  0.49236901539E+01  0.10543175591E+02  0.13263364222E+02  0.00000000000E+00 0. -1.
</event>
<event>
 8    1  0.1238315E-006  0.9118800E+02  0.7816164E-02  0.1184000E+00
        -11   -1    0    0    0    0  0.00000000000E+00  0.00000000000E+00  0.45593999997E+02  0.45594000000E+02  0.51100000000E-03 0. -1.
         11   -1    0    0    0    0 -0.00000000000E+00 -0.00000000000E+00 -0.45593999997E+02  0.45594000000E+02  0.51100000000E-03 0.  1.
         23    2    1    2    0    0 -0.44408920985E-15 -0.31086244690E-14  0.00000000000E+00  0.91188000000E+02  0.91188000000E+02 0.  0.
    9900012    2    3    3    0    0  0.34731574185E+01  0.38237536416E+01  0.36456752048E+02  0.54367099899E+02  0.40000035840E+02 0.  0.
        -12    1    3    3    0    0 -0.34731574185E+01 -0.38237536416E+01 -0.36456752048E+02  0.36820900101E+02  0.00000000000E+00 0.  1.
         11    1    4    4    0    0 -0.16368965367E+01  0.15841476650E+02  0.92453233619E+01  0.18414880316E+02  0.51100000000E-03 0. -1.
        -11    1    4    4    0    0 -0.34183755550E+01 -0.23619186171E+01 -0.15520911791E+01  0.44354186136E+01  0.51100000000E-03 0.  1.
         12    1    4    4    0    0  0.85284295102E+01 -0.96558043913E+01  0.28763519865E+02  0.31516800970E+02  0.00000000000E+00 0. -1.
</event>
<event>
 8    1  0.1238315E-006  0.9118800E+02  0.7816164E-02  0.1184000E+00
        -11   -1    0    0    0    0  0.00000000000E+00  0.00000000000E+00  0.45593999997E+02  0.45594000000E+02  0.51100000000E-03 0.  1.
         11   -1    0    0    0    0 -0.00000000000E+00 -0.00000000000E+00 -0.45593999997E+02  0.45594000000E+02  0.51100000000E-03 0. -1.
         23    2    1    2    0    0 -0.35527136788E-14  0.71054273576E-14  0.71054273576E-14  0.91188000000E+02  0.91188000000E+02 0.  0.
    9900012    2    3    3    0    0 -0.18942129844E+02  0.25849337980E+02  0.18132518226E+02  0.54367071519E+02  0.39999971141E+02 0.  0.
        -12    1    3    3    0    0  0.18942129844E+02 -0.25849337980E+02 -0.18132518226E+02  0.36820928481E+02  0.00000000000E+00 0.  1.
         11    1    4    4    0    0 -0.37061202533E+01  0.61850458297E+01  0.39951371890E+00  0.72214770456E+01  0.51100000000E-03 0. -1.
        -11    1    4    4    0    0 -0.65187860696E+01  0.23923563676E+02  0.24856243594E+02  0.35109319512E+02  0.51100000000E-03 0.  1.
         12    1    4    4    0    0 -0.87172235209E+01 -0.42592715256E+01 -0.71232390869E+01  0.12036274961E+02  0.00000000000E+00 0. -1.
</event>
<event>
 8    1  0.1238315E-006  0.9118800E+02  0.7816164E-02  0.1184000E+00
        -11   -1    0    0    0    0  0.00000000000E+00  0.00000000000E+00  0.45593999997E+02  0.45594000000E+02  0.51100000000E-03 0.  1.
         11   -1    0    0    0    0 -0.00000000000E+00 -0.00000000000E+00 -0.45593999997E+02  0.45594000000E+02  0.51100000000E-03 0. -1.
         23    2    1    2    0    0  0.00000000000E+00  0.00000000000E+00  0.00000000000E+00  0.91188000000E+02  0.91188000000E+02 0.  0.
    9900012    2    3    3    0    0 -0.18959076579E+02  0.31011460256E+02  0.58841696355E+01  0.54367072469E+02  0.39999973308E+02 0.  0.
         12    1    3    3    0    0  0.18959076579E+02 -0.31011460256E+02 -0.58841696355E+01  0.36820927531E+02  0.00000000000E+00 0. -1.
         11    1    4    4    0    0 -0.22541334937E+02  0.31377395304E+02  0.53126461389E+01  0.38998422097E+02  0.51100000000E-03 0. -1.
        -11    1    4    4    0    0 -0.26649905735E+01 -0.49355653561E+01  0.40141037365E+01  0.68974639695E+01  0.51100000000E-03 0.  1.
         12    1    4    4    0    0  0.62472489311E+01  0.45696303078E+01 -0.34425802400E+01  0.84711864025E+01  0.00000000000E+00 0. -1.
</event>
<event>
 8    1  0.1238315E-006  0.9118800E+02  0.7816164E-02  0.1184000E+00
        -11   -1    0    0    0    0  0.00000000000E+00  0.00000000000E+00  0.45593999997E+02  0.45594000000E+02  0.51100000000E-03 0.  1.
         11   -1    0    0    0    0 -0.00000000000E+00 -0.00000000000E+00 -0.45593999997E+02  0.45594000000E+02  0.51100000000E-03 0. -1.
         23    2    1    2    0    0  0.00000000000E+00 -0.26645352591E-14  0.71054273576E-14  0.91188000000E+02  0.91188000000E+02 0.  0.
    9900012    2    3    3    0    0  0.62156593473E+01  0.78364431186E+01 -0.35436339737E+02  0.54367103272E+02  0.40000043529E+02 0.  0.
        -12    1    3    3    0    0 -0.62156593473E+01 -0.78364431186E+01  0.35436339737E+02  0.36820896728E+02  0.00000000000E+00 0.  1.
         11    1    4    4    0    0  0.65873429741E+01  0.57243392467E+01 -0.15101656427E+02  0.17441937231E+02  0.51100000000E-03 0. -1.
        -11    1    4    4    0    0  0.36638031262E+01 -0.12705053359E+02 -0.26184897432E+01  0.13479552032E+02  0.51100000000E-03 0.  1.
        -12    1    4    4    0    0 -0.40354867530E+01  0.14817157231E+02 -0.17716193568E+02  0.23445614009E+02  0.00000000000E+00 0.  1.
</event>
<event>
 8    1  0.1238315E-006  0.9118800E+02  0.7816164E-02  0.1184000E+00
        -11   -1    0    0    0    0  0.00000000000E+00  0.00000000000E+00  0.45593999997E+02  0.45594000000E+02  0.51100000000E-03 0.  1.
         11   -1    0    0    0    0 -0.00000000000E+00 -0.00000000000E+00 -0.45593999997E+02  0.45594000000E+02  0.51100000000E-03 0. -1.
         23    2    1    2    0    0 -0.35527136788E-14  0.00000000000E+00  0.00000000000E+00  0.91188000000E+02  0.91188000000E+02 0.  0.
    9900012    2    3    3    0    0  0.22803328642E+02  0.16753941781E+02  0.23560399409E+02  0.54367098562E+02  0.40000032793E+02 0.  0.
         12    1    3    3    0    0 -0.22803328642E+02 -0.16753941781E+02 -0.23560399409E+02  0.36820901438E+02  0.00000000000E+00 0. -1.
         11    1    4    4    0    0  0.22437287671E+01 -0.16442513845E+01 -0.93748620511E+01  0.97788506551E+01  0.51100000000E-03 0. -1.
        -11    1    4    4    0    0  0.19998878451E+02  0.11668593046E+02  0.27268833354E+02  0.35772901416E+02  0.51100000000E-03 0.  1.
        -12    1    4    4    0    0  0.56072142433E+00  0.67296001197E+01  0.56664281062E+01  0.88153464918E+01  0.00000000000E+00 0.  1.
</event>
<event>
 8    1  0.1238315E-006  0.9118800E+02  0.7816164E-02  0.1184000E+00
        -11   -1    0    0    0    0  0.00000000000E+00  0.00000000000E+00  0.45593999997E+02  0.45594000000E+02  0.51100000000E-03 0.  1.
         11   -1    0    0    0    0 -0.00000000000E+00 -0.00000000000E+00 -0.45593999997E+02  0.45594000000E+02  0.51100000000E-03 0. -1.
         23    2    1    2    0    0  0.35527136788E-14  0.35527136788E-14 -0.66613381478E-15  0.91188000000E+02  0.91188000000E+02 0.  0.
    9900012    2    3    3    0    0 -0.20332004468E+02 -0.30657668193E+02  0.15800747693E+01  0.54367086635E+02  0.40000005603E+02 0.  0.
        -12    1    3    3    0    0  0.20332004468E+02  0.30657668193E+02 -0.15800747693E+01  0.36820913365E+02  0.00000000000E+00 0.  1.
         11    1    4    4    0    0 -0.20527089661E+02  0.18783363250E+00 -0.43790108567E+01  0.20989817240E+02  0.51100000000E-03 0. -1.
        -11    1    4    4    0    0  0.46286426075E+01 -0.62553439378E+01  0.47648196568E+00  0.77961975022E+01  0.51100000000E-03 0.  1.
        -12    1    4    4    0    0 -0.44335574144E+01 -0.24590157888E+02  0.54826036603E+01  0.25581071893E+02  0.00000000000E+00 0.  1.
</event>
<event>
 8    1  0.1238315E-006  0.9118800E+02  0.7816164E-02  0.1184000E+00
        -11   -1    0    0    0    0  0.00000000000E+00  0.00000000000E+00  0.45593999997E+02  0.45594000000E+02  0.51100000000E-03 0.  1.
         11   -1    0    0    0    0 -0.00000000000E+00 -0.00000000000E+00 -0.45593999997E+02  0.45594000000E+02  0.51100000000E-03 0. -1.
         23    2    1    2    0    0  0.00000000000E+00  0.00000000000E+00 -0.44408920985E-15  0.91188000000E+02  0.91188000000E+02 0.  0.
    9900012    2    3    3    0    0  0.36981937626E+01 -0.36566196901E+02 -0.22397675866E+01  0.54367082688E+02  0.39999996603E+02 0.  0.
        -12    1    3    3    0    0 -0.36981937626E+01  0.36566196901E+02  0.22397675866E+01  0.36820917312E+02  0.00000000000E+00 0.  1.
         11    1    4    4    0    0 -0.94286677479E+01 -0.10943133467E+02 -0.59016661248E+01  0.15603897234E+02  0.51100000000E-03 0. -1.
        -11    1    4    4    0    0  0.96713527676E+00 -0.25220009075E+02 -0.20520066865E+01  0.25321827345E+02  0.51100000000E-03 0.  1.
        -12    1    4    4    0    0  0.12159726234E+02 -0.40305435881E+00  0.57139052247E+01  0.13441358109E+02  0.00000000000E+00 0.  1.
</event>
<event>
 8    1  0.1238315E-006  0.9118800E+02  0.7816164E-02  0.1184000E+00
        -11   -1    0    0    0    0  0.00000000000E+00  0.00000000000E+00  0.45593999997E+02  0.45594000000E+02  0.51100000000E-03 0. -1.
         11   -1    0    0    0    0 -0.00000000000E+00 -0.00000000000E+00 -0.45593999997E+02  0.45594000000E+02  0.51100000000E-03 0.  1.
         23    2    1    2    0    0  0.35527136788E-14  0.00000000000E+00  0.00000000000E+00  0.91188000000E+02  0.91188000000E+02 0.  0.
    9900012    2    3    3    0    0 -0.25225113316E+02 -0.19910405168E+02  0.17973309766E+02  0.54367211854E+02  0.40000291062E+02 0.  0.
        -12    1    3    3    0    0  0.25225113316E+02  0.19910405168E+02 -0.17973309766E+02  0.36820788146E+02  0.00000000000E+00 0.  1.
         11    1    4    4    0    0 -0.19465911589E+02 -0.72792370390E+01  0.40138722326E+01  0.21166487106E+02  0.51100000000E-03 0. -1.
        -11    1    4    4    0    0  0.94169271647E+00 -0.10202450958E+02 -0.60920541303E+01  0.11920147420E+02  0.51100000000E-03 0.  1.
        -12    1    4    4    0    0 -0.67008944433E+01 -0.24287171712E+01  0.20051491664E+02  0.21280577328E+02  0.00000000000E+00 0.  1.
</event>
<event>
 8    1  0.1238315E-006  0.9118800E+02  0.7816164E-02  0.1184000E+00
        -11   -1    0    0    0    0  0.00000000000E+00  0.00000000000E+00  0.45593999997E+02  0.45594000000E+02  0.51100000000E-03 0.  1.
         11   -1    0    0    0    0 -0.00000000000E+00 -0.00000000000E+00 -0.45593999997E+02  0.45594000000E+02  0.51100000000E-03 0. -1.
         23    2    1    2    0    0  0.17763568394E-14  0.35527136788E-14  0.00000000000E+00  0.91188000000E+02  0.91188000000E+02 0.  0.
    9900012    2    3    3    0    0 -0.15024767233E+02 -0.31892623610E+02 -0.10625344329E+02  0.54367068273E+02  0.39999963741E+02 0.  0.
         12    1    3    3    0    0  0.15024767233E+02  0.31892623610E+02  0.10625344329E+02  0.36820931727E+02  0.00000000000E+00 0. -1.
         11    1    4    4    0    0 -0.65380629629E+01 -0.77063278006E+01  0.11810902282E+02  0.15544489971E+02  0.51100000000E-03 0. -1.
        -11    1    4    4    0    0 -0.83748046027E+01 -0.17272574213E+02 -0.46664604563E+01  0.19754873463E+02  0.51100000000E-03 0.  1.
         12    1    4    4    0    0 -0.11189966758E+00 -0.69137215967E+01 -0.17769786155E+02  0.19067704839E+02  0.00000000000E+00 0. -1.
</event>
<event>
 8    1  0.1238315E-006  0.9118800E+02  0.7816164E-02  0.1184000E+00
        -11   -1    0    0    0    0  0.00000000000E+00  0.00000000000E+00  0.45593999997E+02  0.45594000000E+02  0.51100000000E-03 0.  1.
         11   -1    0    0    0    0 -0.00000000000E+00 -0.00000000000E+00 -0.45593999997E+02  0.45594000000E+02  0.51100000000E-03 0. -1.
         23    2    1    2    0    0  0.00000000000E+00 -0.35527136788E-14  0.00000000000E+00  0.91188000000E+02  0.91188000000E+02 0.  0.
    9900012    2    3    3    0    0 -0.11957723194E+02 -0.30495274930E+02 -0.16817579557E+02  0.54367083130E+02  0.39999997611E+02 0.  0.
         12    1    3    3    0    0  0.11957723194E+02  0.30495274930E+02  0.16817579557E+02  0.36820916870E+02  0.00000000000E+00 0. -1.
         11    1    4    4    0    0  0.46827887074E+01 -0.23854912867E+01 -0.52242291757E+01  0.74102395035E+01  0.51100000000E-03 0. -1.
        -11    1    4    4    0    0  0.41875691288E+01 -0.18523864464E+02 -0.14433311577E+02  0.23853506519E+02  0.51100000000E-03 0.  1.
        -12    1    4    4    0    0 -0.20828081030E+02 -0.95859191787E+01  0.28399611963E+01  0.23103337108E+02  0.00000000000E+00 0.  1.
</event>
<event>
 8    1  0.1238315E-006  0.9118800E+02  0.7816164E-02  0.1184000E+00
        -11   -1    0    0    0    0  0.00000000000E+00  0.00000000000E+00  0.45593999997E+02  0.45594000000E+02  0.51100000000E-03 0. -1.
         11   -1    0    0    0    0 -0.00000000000E+00 -0.00000000000E+00 -0.45593999997E+02  0.45594000000E+02  0.51100000000E-03 0.  1.
         23    2    1    2    0    0  0.13322676296E-14  0.00000000000E+00  0.00000000000E+00  0.91188000000E+02  0.91188000000E+02 0.  0.
    9900012    2    3    3    0    0 -0.25036434278E+01  0.56520063147E+01  0.36298246769E+02  0.54367134661E+02  0.40000115086E+02 0.  0.
        -12    1    3    3    0    0  0.25036434278E+01 -0.56520063147E+01 -0.36298246769E+02  0.36820865339E+02  0.00000000000E+00 0.  1.
         11    1    4    4    0    0 -0.80663833052E+01 -0.44108651593E+01  0.98141047759E+01  0.13447636368E+02  0.51100000000E-03 0. -1.
        -11    1    4    4    0    0  0.13755611278E+02  0.27505185003E+01  0.21099232575E+01  0.14185695967E+02  0.51100000000E-03 0.  1.
        -12    1    4    4    0    0 -0.81928714006E+01  0.73123529737E+01  0.24374218736E+02  0.26733802326E+02  0.00000000000E+00 0.  1.
</event>
<event>
 8    1  0.1238315E-006  0.9118800E+02  0.7816164E-02  0.1184000E+00
        -11   -1    0    0    0    0  0.00000000000E+00  0.00000000000E+00  0.45593999997E+02  0.45594000000E+02  0.51100000000E-03 0.  1.
         11   -1    0    0    0    0 -0.00000000000E+00 -0.00000000000E+00 -0.45593999997E+02  0.45594000000E+02  0.51100000000E-03 0. -1.
         23    2    1    2    0    0 -0.44408920985E-15  0.17763568394E-14 -0.71054273576E-14  0.91188000000E+02  0.91188000000E+02 0.  0.
    9900012    2    3    3    0    0 -0.33773801495E+01  0.14358699835E+02 -0.33737221498E+02  0.54367094633E+02  0.40000023835E+02 0.  0.
        -12    1    3    3    0    0  0.33773801495E+01 -0.14358699835E+02  0.33737221498E+02  0.36820905367E+02  0.00000000000E+00 0.  1.
         11    1    4    4    0    0 -0.94395355805E+01  0.11037763582E+02 -0.15773943096E+02  0.21441882798E+02  0.51100000000E-03 0. -1.
        -11    1    4    4    0    0  0.52426400983E+01 -0.55035130150E+01 -0.21934189518E+02  0.23213845023E+02  0.51100000000E-03 0.  1.
        -12    1    4    4    0    0  0.81951533269E+00  0.88244492682E+01  0.39709111157E+01  0.97113668120E+01  0.00000000000E+00 0.  1.
</event>
<event>
 8    1  0.1238315E-006  0.9118800E+02  0.7816164E-02  0.1184000E+00
        -11   -1    0    0    0    0  0.00000000000E+00  0.00000000000E+00  0.45593999997E+02  0.45594000000E+02  0.51100000000E-03 0. -1.
         11   -1    0    0    0    0 -0.00000000000E+00 -0.00000000000E+00 -0.45593999997E+02  0.45594000000E+02  0.51100000000E-03 0.  1.
         23    2    1    2    0    0  0.00000000000E+00  0.00000000000E+00  0.35527136788E-14  0.91188000000E+02  0.91188000000E+02 0.  0.
    9900012    2    3    3    0    0 -0.22816023961E+02 -0.20866221094E+02 -0.19995242149E+02  0.54367084195E+02  0.40000000040E+02 0.  0.
         12    1    3    3    0    0  0.22816023961E+02  0.20866221094E+02  0.19995242149E+02  0.36820915805E+02  0.00000000000E+00 0. -1.
         11    1    4    4    0    0 -0.21430995281E+02 -0.40358208887E+00 -0.16281350193E+02  0.26917146981E+02  0.51100000000E-03 0. -1.
        -11    1    4    4    0    0  0.80005107709E+01 -0.63976363970E+01 -0.21649136206E+01  0.10470185066E+02  0.51100000000E-03 0.  1.
        -12    1    4    4    0    0 -0.93855394509E+01 -0.14065002608E+02 -0.15489783346E+01  0.16979752149E+02  0.00000000000E+00 0.  1.
</event>
<event>
 8    1  0.1238315E-006  0.9118800E+02  0.7816164E-02  0.1184000E+00
        -11   -1    0    0    0    0  0.00000000000E+00  0.00000000000E+00  0.45593999997E+02  0.45594000000E+02  0.51100000000E-03 0. -1.
         11   -1    0    0    0    0 -0.00000000000E+00 -0.00000000000E+00 -0.45593999997E+02  0.45594000000E+02  0.51100000000E-03 0.  1.
         23    2    1    2    0    0  0.00000000000E+00  0.00000000000E+00  0.00000000000E+00  0.91188000000E+02  0.91188000000E+02 0.  0.
    9900012    2    3    3    0    0 -0.88338213033E+01 -0.35451281038E+02  0.45773544622E+01  0.54367056232E+02  0.39999936293E+02 0.  0.
         12    1    3    3    0    0  0.88338213033E+01  0.35451281038E+02 -0.45773544622E+01  0.36820943768E+02  0.00000000000E+00 0. -1.
         11    1    4    4    0    0  0.90387043893E+01  0.18803605416E+01  0.92721377352E+00  0.92786668464E+01  0.51100000000E-03 0. -1.
        -11    1    4    4    0    0 -0.86027567847E+01 -0.30822431400E+02  0.79493412296E+01  0.32973045475E+02  0.51100000000E-03 0.  1.
        -12    1    4    4    0    0 -0.92697689079E+01 -0.65092101802E+01 -0.42992005409E+01  0.12115343910E+02  0.00000000000E+00 0.  1.
</event>
<event>
 8    1  0.1238315E-006  0.9118800E+02  0.7816164E-02  0.1184000E+00
        -11   -1    0    0    0    0  0.00000000000E+00  0.00000000000E+00  0.45593999997E+02  0.45594000000E+02  0.51100000000E-03 0.  1.
         11   -1    0    0    0    0 -0.00000000000E+00 -0.00000000000E+00 -0.45593999997E+02  0.45594000000E+02  0.51100000000E-03 0. -1.
         23    2    1    2    0    0  0.00000000000E+00  0.35527136788E-14  0.00000000000E+00  0.91188000000E+02  0.91188000000E+02 0.  0.
    9900012    2    3    3    0    0  0.17785740314E+02  0.25434603137E+02  0.19812073248E+02  0.54367219975E+02  0.40000309577E+02 0.  0.
         12    1    3    3    0    0 -0.17785740314E+02 -0.25434603137E+02 -0.19812073248E+02  0.36820780025E+02  0.00000000000E+00 0. -1.
         11    1    4    4    0    0 -0.32367582460E+01  0.12278136127E+02  0.94655689600E+01  0.15837494331E+02  0.51100000000E-03 0.  1.
        -11    1    4    4    0    0  0.30941677853E+01  0.26638371297E+01 -0.91631016641E+01  0.10031566922E+02  0.51100000000E-03 0. -1.
         12    1    4    4    0    0  0.17928330775E+02  0.10492629880E+02  0.19509605952E+02  0.28498158723E+02  0.00000000000E+00 0. -1.
</event>
<event>
 8    1  0.1238315E-006  0.9118800E+02  0.7816164E-02  0.1184000E+00
        -11   -1    0    0    0    0  0.00000000000E+00  0.00000000000E+00  0.45593999997E+02  0.45594000000E+02  0.51100000000E-03 0. -1.
         11   -1    0    0    0    0 -0.00000000000E+00 -0.00000000000E+00 -0.45593999997E+02  0.45594000000E+02  0.51100000000E-03 0.  1.
         23    2    1    2    0    0 -0.35527136788E-14  0.35527136788E-14  0.44408920985E-15  0.91188000000E+02  0.91188000000E+02 0.  0.
    9900012    2    3    3    0    0  0.18007416120E+02 -0.31990517426E+02 -0.28495669859E+01  0.54367078331E+02  0.39999986672E+02 0.  0.
         12    1    3    3    0    0 -0.18007416120E+02  0.31990517426E+02  0.28495669859E+01  0.36820921669E+02  0.00000000000E+00 0. -1.
         11    1    4    4    0    0  0.24368199615E+02 -0.31146679754E+02 -0.94579855472E+01  0.40661754795E+02  0.51100000000E-03 0.  1.
        -11    1    4    4    0    0  0.18481064842E+01  0.88176605876E+00 -0.10901032937E+01  0.23197703359E+01  0.51100000000E-03 0. -1.
        -12    1    4    4    0    0 -0.82088899791E+01 -0.17256037314E+01  0.76985218551E+01  0.11385553200E+02  0.00000000000E+00 0.  1.
</event>
<event>
 8    1  0.1238315E-006  0.9118800E+02  0.7816164E-02  0.1184000E+00
        -11   -1    0    0    0    0  0.00000000000E+00  0.00000000000E+00  0.45593999997E+02  0.45594000000E+02  0.51100000000E-03 0. -1.
         11   -1    0    0    0    0 -0.00000000000E+00 -0.00000000000E+00 -0.45593999997E+02  0.45594000000E+02  0.51100000000E-03 0.  1.
         23    2    1    2    0    0  0.00000000000E+00  0.00000000000E+00  0.00000000000E+00  0.91188000000E+02  0.91188000000E+02 0.  0.
    9900012    2    3    3    0    0  0.26483209849E+02 -0.22405889948E+02  0.12344899326E+02  0.54367070521E+02  0.39999968868E+02 0.  0.
        -12    1    3    3    0    0 -0.26483209849E+02  0.22405889948E+02 -0.12344899326E+02  0.36820929479E+02  0.00000000000E+00 0.  1.
         11    1    4    4    0    0  0.20820599008E+02 -0.40051720183E+00  0.12538364814E+02  0.24307783724E+02  0.51100000000E-03 0. -1.
        -11    1    4    4    0    0  0.82990386143E+00 -0.74709812786E+01 -0.95173230622E+01  0.12127808550E+02  0.51100000000E-03 0.  1.
        -12    1    4    4    0    0  0.48327069795E+01 -0.14534391468E+02  0.93238575740E+01  0.17931478248E+02  0.00000000000E+00 0.  1.
</event>
<event>
 8    1  0.1238315E-006  0.9118800E+02  0.7816164E-02  0.1184000E+00
        -11   -1    0    0    0    0  0.00000000000E+00  0.00000000000E+00  0.45593999997E+02  0.45594000000E+02  0.51100000000E-03 0. -1.
         11   -1    0    0    0    0 -0.00000000000E+00 -0.00000000000E+00 -0.45593999997E+02  0.45594000000E+02  0.51100000000E-03 0.  1.
         23    2    1    2    0    0  0.00000000000E+00 -0.15543122345E-14  0.00000000000E+00  0.91188000000E+02  0.91188000000E+02 0.  0.
    9900012    2    3    3    0    0 -0.26292141111E+02  0.17166387443E+01 -0.25720740816E+02  0.54367081476E+02  0.39999993841E+02 0.  0.
         12    1    3    3    0    0  0.26292141111E+02 -0.17166387443E+01  0.25720740816E+02  0.36820918524E+02  0.00000000000E+00 0. -1.
         11    1    4    4    0    0 -0.22914543557E+02  0.62157691982E+01 -0.86471298531E+01  0.25268259697E+02  0.51100000000E-03 0. -1.
        -11    1    4    4    0    0 -0.85103166231E+01 -0.11619940200E+02 -0.13076957387E+02  0.19453927985E+02  0.51100000000E-03 0.  1.
        -12    1    4    4    0    0  0.51327190690E+01  0.71208097463E+01 -0.39966535764E+01  0.96448937938E+01  0.00000000000E+00 0.  1.
</event>
<event>
 8    1  0.1238315E-006  0.9118800E+02  0.7816164E-02  0.1184000E+00
        -11   -1    0    0    0    0  0.00000000000E+00  0.00000000000E+00  0.45593999997E+02  0.45594000000E+02  0.51100000000E-03 0.  1.
         11   -1    0    0    0    0 -0.00000000000E+00 -0.00000000000E+00 -0.45593999997E+02  0.45594000000E+02  0.51100000000E-03 0. -1.
         23    2    1    2    0    0  0.35527136788E-14  0.00000000000E+00 -0.88817841970E-15  0.91188000000E+02  0.91188000000E+02 0.  0.
    9900012    2    3    3    0    0  0.18308905869E+02  0.31504849269E+02 -0.52921538747E+01  0.54367103023E+02  0.40000042961E+02 0.  0.
         12    1    3    3    0    0 -0.18308905869E+02 -0.31504849269E+02  0.52921538747E+01  0.36820896977E+02  0.00000000000E+00 0. -1.
         11    1    4    4    0    0  0.31702740355E+01 -0.29539258185E+01 -0.22822348411E+01  0.48974392627E+01  0.51100000000E-03 0. -1.
        -11    1    4    4    0    0  0.17037176785E+02  0.48830705878E+01 -0.79493919475E+01  0.19424278719E+02  0.51100000000E-03 0.  1.
        -12    1    4    4    0    0 -0.18985449513E+01  0.29575704500E+02  0.49394729139E+01  0.30045385041E+02  0.00000000000E+00 0.  1.
</event>
<event>
 8    1  0.1238315E-006  0.9118800E+02  0.7816164E-02  0.1184000E+00
        -11   -1    0    0    0    0  0.00000000000E+00  0.00000000000E+00  0.45593999997E+02  0.45594000000E+02  0.51100000000E-03 0. -1.
         11   -1    0    0    0    0 -0.00000000000E+00 -0.00000000000E+00 -0.45593999997E+02  0.45594000000E+02  0.51100000000E-03 0.  1.
         23    2    1    2    0    0  0.00000000000E+00 -0.35527136788E-14 -0.17763568394E-14  0.91188000000E+02  0.91188000000E+02 0.  0.
    9900012    2    3    3    0    0  0.34213262423E+02  0.65951535635E+01 -0.11905318643E+02  0.54367082194E+02  0.39999995477E+02 0.  0.
         12    1    3    3    0    0 -0.34213262423E+02 -0.65951535635E+01  0.11905318643E+02  0.36820917806E+02  0.00000000000E+00 0. -1.
         11    1    4    4    0    0  0.96000775284E-01 -0.56913700927E+01 -0.48755387404E+01  0.74947840497E+01  0.51100000000E-03 0. -1.
        -11    1    4    4    0    0  0.28150996743E+02  0.16628298224E+02  0.46830966681E+01  0.33028931471E+02  0.51100000000E-03 0.  1.
        -12    1    4    4    0    0  0.59662649044E+01 -0.43417745673E+01 -0.11712876570E+02  0.13843366673E+02  0.00000000000E+00 0.  1.
</event>
<event>
 8    1  0.1238315E-006  0.9118800E+02  0.7816164E-02  0.1184000E+00
        -11   -1    0    0    0    0  0.00000000000E+00  0.00000000000E+00  0.45593999997E+02  0.45594000000E+02  0.51100000000E-03 0.  1.
         11   -1    0    0    0    0 -0.00000000000E+00 -0.00000000000E+00 -0.45593999997E+02  0.45594000000E+02  0.51100000000E-03 0. -1.
         23    2    1    2    0    0 -0.88817841970E-15  0.00000000000E+00  0.00000000000E+00  0.91188000000E+02  0.91188000000E+02 0.  0.
    9900012    2    3    3    0    0 -0.46854012497E+01  0.28548404058E+02 -0.22777537634E+02  0.54367074159E+02  0.39999977161E+02 0.  0.
        -12    1    3    3    0    0  0.46854012497E+01 -0.28548404058E+02  0.22777537634E+02  0.36820925841E+02  0.00000000000E+00 0.  1.
         11    1    4    4    0    0 -0.11848372905E+02  0.16143920699E+02 -0.90609852162E+01  0.21979799121E+02  0.51100000000E-03 0. -1.
        -11    1    4    4    0    0  0.61576910022E+01  0.12759322278E+02  0.39348110642E+01  0.14703747884E+02  0.51100000000E-03 0.  1.
         12    1    4    4    0    0  0.10052806535E+01 -0.35483891921E+00 -0.17651363482E+02  0.17683527154E+02  0.00000000000E+00 0. -1.
</event>
<event>
 8    1  0.1238315E-006  0.9118800E+02  0.7816164E-02  0.1184000E+00
        -11   -1    0    0    0    0  0.00000000000E+00  0.00000000000E+00  0.45593999997E+02  0.45594000000E+02  0.51100000000E-03 0. -1.
         11   -1    0    0    0    0 -0.00000000000E+00 -0.00000000000E+00 -0.45593999997E+02  0.45594000000E+02  0.51100000000E-03 0.  1.
         23    2    1    2    0    0  0.17763568394E-14  0.00000000000E+00  0.00000000000E+00  0.91188000000E+02  0.91188000000E+02 0.  0.
    9900012    2    3    3    0    0 -0.88573314882E+01 -0.32960556471E+02  0.13817712943E+02  0.54367084817E+02  0.40000001457E+02 0.  0.
        -12    1    3    3    0    0  0.88573314882E+01  0.32960556471E+02 -0.13817712943E+02  0.36820915183E+02  0.00000000000E+00 0.  1.
         11    1    4    4    0    0  0.50030841496E+01 -0.14985015375E+02  0.84338409406E+01  0.17908411712E+02  0.51100000000E-03 0.  1.
        -11    1    4    4    0    0  0.59676475631E+01 -0.14369944200E+02 -0.14611990646E+00  0.15560509793E+02  0.51100000000E-03 0. -1.
         12    1    4    4    0    0 -0.19828063201E+02 -0.36055968963E+01  0.55299919085E+01  0.20898163311E+02  0.00000000000E+00 0. -1.
</event>
<event>
 8    1  0.1238315E-006  0.9118800E+02  0.7816164E-02  0.1184000E+00
        -11   -1    0    0    0    0  0.00000000000E+00  0.00000000000E+00  0.45593999997E+02  0.45594000000E+02  0.51100000000E-03 0.  1.
         11   -1    0    0    0    0 -0.00000000000E+00 -0.00000000000E+00 -0.45593999997E+02  0.45594000000E+02  0.51100000000E-03 0. -1.
         23    2    1    2    0    0 -0.71054273576E-14  0.00000000000E+00  0.00000000000E+00  0.91188000000E+02  0.91188000000E+02 0.  0.
    9900012    2    3    3    0    0 -0.33388253226E+02 -0.15364272242E+02 -0.22232297269E+01  0.54367094723E+02  0.40000024040E+02 0.  0.
        -12    1    3    3    0    0  0.33388253226E+02  0.15364272242E+02  0.22232297269E+01  0.36820905277E+02  0.00000000000E+00 0.  1.
         11    1    4    4    0    0  0.44153289657E+00 -0.70963630989E+01 -0.36996958923E+01  0.80150527439E+01  0.51100000000E-03 0. -1.
        -11    1    4    4    0    0  0.52822509657E+01 -0.30532407787E+01  0.31341442585E+01  0.68591045343E+01  0.51100000000E-03 0.  1.
        -12    1    4    4    0    0 -0.39112037088E+02 -0.52146683641E+01 -0.16576780931E+01  0.39492937445E+02  0.00000000000E+00 0.  1.
</event>
<event>
 8    1  0.1238315E-006  0.9118800E+02  0.7816164E-02  0.1184000E+00
        -11   -1    0    0    0    0  0.00000000000E+00  0.00000000000E+00  0.45593999997E+02  0.45594000000E+02  0.51100000000E-03 0.  1.
         11   -1    0    0    0    0 -0.00000000000E+00 -0.00000000000E+00 -0.45593999997E+02  0.45594000000E+02  0.51100000000E-03 0. -1.
         23    2    1    2    0    0  0.44408920985E-15  0.00000000000E+00 -0.35527136788E-14  0.91188000000E+02  0.91188000000E+02 0.  0.
    9900012    2    3    3    0    0 -0.28498873102E+01 -0.29361954808E+02 -0.22034687055E+02  0.54367167833E+02  0.40000190709E+02 0.  0.
        -12    1    3    3    0    0  0.28498873102E+01  0.29361954808E+02  0.22034687055E+02  0.36820832167E+02  0.00000000000E+00 0.  1.
         11    1    4    4    0    0  0.70102371962E+00 -0.10284590033E+02 -0.20896025952E+02  0.23300388994E+02  0.51100000000E-03 0. -1.
        -11    1    4    4    0    0 -0.68112764261E+01 -0.86964322791E+01  0.10424904331E+02  0.15188813367E+02  0.51100000000E-03 0.  1.
         12    1    4    4    0    0  0.32603653963E+01 -0.10380932496E+02 -0.11563565434E+02  0.15877965472E+02  0.00000000000E+00 0. -1.
</event>
<event>
 8    1  0.1238315E-006  0.9118800E+02  0.7816164E-02  0.1184000E+00
        -11   -1    0    0    0    0  0.00000000000E+00  0.00000000000E+00  0.45593999997E+02  0.45594000000E+02  0.51100000000E-03 0.  1.
         11   -1    0    0    0    0 -0.00000000000E+00 -0.00000000000E+00 -0.45593999997E+02  0.45594000000E+02  0.51100000000E-03 0. -1.
         23    2    1    2    0    0  0.00000000000E+00  0.00000000000E+00  0.00000000000E+00  0.91188000000E+02  0.91188000000E+02 0.  0.
    9900012    2    3    3    0    0 -0.20661447919E+02  0.23791645775E+02  0.19048633662E+02  0.54366969553E+02  0.39999738690E+02 0.  0.
         12    1    3    3    0    0  0.20661447919E+02 -0.23791645775E+02 -0.19048633662E+02  0.36821030447E+02  0.00000000000E+00 0. -1.
         11    1    4    4    0    0  0.14357329632E+01 -0.30805589943E+01  0.15245363450E+02  0.15619612026E+02  0.51100000000E-03 0. -1.
        -11    1    4    4    0    0 -0.13358317837E+02  0.10580797062E+02  0.93608701881E+01  0.19442834485E+02  0.51100000000E-03 0.  1.
         12    1    4    4    0    0 -0.87388630455E+01  0.16291407707E+02 -0.55575999757E+01  0.19304523042E+02  0.00000000000E+00 0. -1.
</event>
<event>
 8    1  0.1238315E-006  0.9118800E+02  0.7816164E-02  0.1184000E+00
        -11   -1    0    0    0    0  0.00000000000E+00  0.00000000000E+00  0.45593999997E+02  0.45594000000E+02  0.51100000000E-03 0.  1.
         11   -1    0    0    0    0 -0.00000000000E+00 -0.00000000000E+00 -0.45593999997E+02  0.45594000000E+02  0.51100000000E-03 0. -1.
         23    2    1    2    0    0  0.00000000000E+00  0.00000000000E+00  0.17763568394E-14  0.91188000000E+02  0.91188000000E+02 0.  0.
    9900012    2    3    3    0    0 -0.94927949790E+01  0.35361966774E+02 -0.38984233992E+01  0.54367088066E+02  0.40000008865E+02 0.  0.
        -12    1    3    3    0    0  0.94927949790E+01 -0.35361966774E+02  0.38984233992E+01  0.36820911934E+02  0.00000000000E+00 0.  1.
         11    1    4    4    0    0  0.62893888605E+01  0.18014633140E+02  0.98068218376E+01  0.21453605157E+02  0.51100000000E-03 0. -1.
        -11    1    4    4    0    0 -0.53659544167E+01 -0.35971859150E+01 -0.39286382405E+01  0.75609134366E+01  0.51100000000E-03 0.  1.
         12    1    4    4    0    0 -0.10416229423E+02  0.20944519549E+02 -0.97766069963E+01  0.25352569473E+02  0.00000000000E+00 0. -1.
</event>
<event>
 8    1  0.1238315E-006  0.9118800E+02  0.7816164E-02  0.1184000E+00
        -11   -1    0    0    0    0  0.00000000000E+00  0.00000000000E+00  0.45593999997E+02  0.45594000000E+02  0.51100000000E-03 0. -1.
         11   -1    0    0    0    0 -0.00000000000E+00 -0.00000000000E+00 -0.45593999997E+02  0.45594000000E+02  0.51100000000E-03 0.  1.
         23    2    1    2    0    0  0.00000000000E+00  0.00000000000E+00  0.00000000000E+00  0.91188000000E+02  0.91188000000E+02 0.  0.
    9900012    2    3    3    0    0 -0.14997212025E+02 -0.40042829622E+01  0.33389049159E+02  0.54367092158E+02  0.40000018192E+02 0.  0.
        -12    1    3    3    0    0  0.14997212025E+02  0.40042829622E+01 -0.33389049159E+02  0.36820907842E+02  0.00000000000E+00 0.  1.
         11    1    4    4    0    0 -0.12706956851E+02 -0.24971232581E+01  0.19616538142E+02  0.23505551385E+02  0.51100000000E-03 0. -1.
        -11    1    4    4    0    0  0.62402504804E+01  0.72208194595E+01  0.15830605862E+02  0.18484832754E+02  0.51100000000E-03 0.  1.
         12    1    4    4    0    0 -0.85305056545E+01 -0.87279791636E+01 -0.20580948444E+01  0.12376708019E+02  0.00000000000E+00 0. -1.
</event>
<event>
 8    1  0.1238315E-006  0.9118800E+02  0.7816164E-02  0.1184000E+00
        -11   -1    0    0    0    0  0.00000000000E+00  0.00000000000E+00  0.45593999997E+02  0.45594000000E+02  0.51100000000E-03 0.  1.
         11   -1    0    0    0    0 -0.00000000000E+00 -0.00000000000E+00 -0.45593999997E+02  0.45594000000E+02  0.51100000000E-03 0. -1.
         23    2    1    2    0    0 -0.35527136788E-14  0.00000000000E+00  0.00000000000E+00  0.91188000000E+02  0.91188000000E+02 0.  0.
    9900012    2    3    3    0    0 -0.21265877135E+02  0.30041092304E+02  0.10369372628E+01  0.54367082086E+02  0.39999995231E+02 0.  0.
         12    1    3    3    0    0  0.21265877135E+02 -0.30041092304E+02 -0.10369372628E+01  0.36820917914E+02  0.00000000000E+00 0. -1.
         11    1    4    4    0    0 -0.30812697539E+02  0.15648984458E+02 -0.29000133922E+01  0.34680298761E+02  0.51100000000E-03 0. -1.
        -11    1    4    4    0    0  0.89477435537E+01  0.14124075937E+02  0.58112411514E+01  0.17700908444E+02  0.51100000000E-03 0.  1.
         12    1    4    4    0    0  0.59907685101E+00  0.26803191010E+00 -0.18742904965E+01  0.19858748811E+01  0.00000000000E+00 0. -1.
</event>
<event>
 8    1  0.1238315E-006  0.9118800E+02  0.7816164E-02  0.1184000E+00
        -11   -1    0    0    0    0  0.00000000000E+00  0.00000000000E+00  0.45593999997E+02  0.45594000000E+02  0.51100000000E-03 0. -1.
         11   -1    0    0    0    0 -0.00000000000E+00 -0.00000000000E+00 -0.45593999997E+02  0.45594000000E+02  0.51100000000E-03 0.  1.
         23    2    1    2    0    0  0.17763568394E-14 -0.35527136788E-14  0.00000000000E+00  0.91188000000E+02  0.91188000000E+02 0.  0.
    9900012    2    3    3    0    0 -0.13835767577E+02  0.30736700081E+02 -0.14819235243E+02  0.54367042252E+02  0.39999904421E+02 0.  0.
        -12    1    3    3    0    0  0.13835767577E+02 -0.30736700081E+02  0.14819235243E+02  0.36820957748E+02  0.00000000000E+00 0.  1.
         11    1    4    4    0    0 -0.10319399950E+01  0.20904765652E+01 -0.85264690627E+01  0.88394381813E+01  0.51100000000E-03 0.  1.
        -11    1    4    4    0    0 -0.99497384847E+01  0.95240014515E+01  0.12474661762E+02  0.18582816953E+02  0.51100000000E-03 0. -1.
         12    1    4    4    0    0 -0.28540890975E+01  0.19122222064E+02 -0.18767427942E+02  0.26944787118E+02  0.00000000000E+00 0. -1.
</event>
<event>
 8    1  0.1238315E-006  0.9118800E+02  0.7816164E-02  0.1184000E+00
        -11   -1    0    0    0    0  0.00000000000E+00  0.00000000000E+00  0.45593999997E+02  0.45594000000E+02  0.51100000000E-03 0. -1.
         11   -1    0    0    0    0 -0.00000000000E+00 -0.00000000000E+00 -0.45593999997E+02  0.45594000000E+02  0.51100000000E-03 0.  1.
         23    2    1    2    0    0  0.00000000000E+00 -0.17763568394E-14  0.00000000000E+00  0.91188000000E+02  0.91188000000E+02 0.  0.
    9900012    2    3    3    0    0  0.18296396723E+02  0.15488074684E+02  0.27948916822E+02  0.54367074673E+02  0.39999978331E+02 0.  0.
        -12    1    3    3    0    0 -0.18296396723E+02 -0.15488074684E+02 -0.27948916822E+02  0.36820925327E+02  0.00000000000E+00 0.  1.
         11    1    4    4    0    0  0.45486544202E+01  0.67725509314E+01  0.26565689416E+02  0.27790170161E+02  0.51100000000E-03 0. -1.
        -11    1    4    4    0    0  0.13917451981E+02  0.97210346584E+01  0.87784893940E+01  0.19111668184E+02  0.51100000000E-03 0.  1.
        -12    1    4    4    0    0 -0.16970967819E+00 -0.10055109057E+01 -0.73952619882E+01  0.74652363279E+01  0.00000000000E+00 0.  1.
</event>
<event>
 8    1  0.1238315E-006  0.9118800E+02  0.7816164E-02  0.1184000E+00
        -11   -1    0    0    0    0  0.00000000000E+00  0.00000000000E+00  0.45593999997E+02  0.45594000000E+02  0.51100000000E-03 0.  1.
         11   -1    0    0    0    0 -0.00000000000E+00 -0.00000000000E+00 -0.45593999997E+02  0.45594000000E+02  0.51100000000E-03 0. -1.
         23    2    1    2    0    0  0.00000000000E+00  0.00000000000E+00  0.00000000000E+00  0.91188000000E+02  0.91188000000E+02 0.  0.
    9900012    2    3    3    0    0  0.35625316553E+02 -0.31533536722E+01  0.87563021635E+01  0.54367086833E+02  0.40000006052E+02 0.  0.
        -12    1    3    3    0    0 -0.35625316553E+02  0.31533536722E+01 -0.87563021635E+01  0.36820913167E+02  0.00000000000E+00 0.  1.
         11    1    4    4    0    0  0.23414247455E+02 -0.29910807205E+01 -0.75520338946E+01  0.24783195193E+02  0.51100000000E-03 0. -1.
        -11    1    4    4    0    0  0.90876970539E+01  0.67201933017E+01 -0.33215429687E+00  0.11307411839E+02  0.51100000000E-03 0.  1.
        -12    1    4    4    0    0  0.31233720443E+01 -0.68824662534E+01  0.16640490355E+02  0.18276479801E+02  0.00000000000E+00 0.  1.
</event>
<event>
 8    1  0.1238315E-006  0.9118800E+02  0.7816164E-02  0.1184000E+00
        -11   -1    0    0    0    0  0.00000000000E+00  0.00000000000E+00  0.45593999997E+02  0.45594000000E+02  0.51100000000E-03 0.  1.
         11   -1    0    0    0    0 -0.00000000000E+00 -0.00000000000E+00 -0.45593999997E+02  0.45594000000E+02  0.51100000000E-03 0. -1.
         23    2    1    2    0    0 -0.35527136788E-14  0.00000000000E+00 -0.17763568394E-14  0.91188000000E+02  0.91188000000E+02 0.  0.
    9900012    2    3    3    0    0  0.28977237584E+02  0.19557447878E+02  0.11558787138E+02  0.54367087116E+02  0.40000006699E+02 0.  0.
        -12    1    3    3    0    0 -0.28977237584E+02 -0.19557447878E+02 -0.11558787138E+02  0.36820912884E+02  0.00000000000E+00 0.  1.
         11    1    4    4    0    0 -0.34051957835E+01 -0.33385212094E+01 -0.29197564534E+01  0.55916062271E+01  0.51100000000E-03 0. -1.
        -11    1    4    4    0    0 -0.28347345487E+01 -0.13612856856E+01 -0.99635716961E+00  0.32987189256E+01  0.51100000000E-03 0.  1.
        -12    1    4    4    0    0  0.35217167916E+02  0.24257254773E+02  0.15474900761E+02  0.45476761964E+02  0.00000000000E+00 0.  1.
</event>
<event>
 8    1  0.1238315E-006  0.9118800E+02  0.7816164E-02  0.1184000E+00
        -11   -1    0    0    0    0  0.00000000000E+00  0.00000000000E+00  0.45593999997E+02  0.45594000000E+02  0.51100000000E-03 0.  1.
         11   -1    0    0    0    0 -0.00000000000E+00 -0.00000000000E+00 -0.45593999997E+02  0.45594000000E+02  0.51100000000E-03 0. -1.
         23    2    1    2    0    0 -0.44408920985E-15  0.35527136788E-14  0.00000000000E+00  0.91188000000E+02  0.91188000000E+02 0.  0.
    9900012    2    3    3    0    0  0.11242979305E+01 -0.30828841687E+02  0.20102209797E+02  0.54367077085E+02  0.39999983830E+02 0.  0.
         12    1    3    3    0    0 -0.11242979305E+01  0.30828841687E+02 -0.20102209797E+02  0.36820922915E+02  0.00000000000E+00 0. -1.
         11    1    4    4    0    0 -0.11055494814E+02 -0.14067240337E+02  0.13034103456E+02  0.22135922602E+02  0.51100000000E-03 0. -1.
        -11    1    4    4    0    0  0.19300843486E+02 -0.13149971983E+02  0.64159317698E+01  0.24220002130E+02  0.51100000000E-03 0.  1.
        -12    1    4    4    0    0 -0.71210507412E+01 -0.36116293676E+01  0.65217457128E+00  0.80111523527E+01  0.00000000000E+00 0.  1.
</event>
<event>
 8    1  0.1238315E-006  0.9118800E+02  0.7816164E-02  0.1184000E+00
        -11   -1    0    0    0    0  0.00000000000E+00  0.00000000000E+00  0.45593999997E+02  0.45594000000E+02  0.51100000000E-03 0.  1.
         11   -1    0    0    0    0 -0.00000000000E+00 -0.00000000000E+00 -0.45593999997E+02  0.45594000000E+02  0.51100000000E-03 0. -1.
         23    2    1    2    0    0  0.00000000000E+00  0.00000000000E+00  0.35527136788E-14  0.91188000000E+02  0.91188000000E+02 0.  0.
    9900012    2    3    3    0    0 -0.12259477302E+02  0.19726961029E+02  0.28571531377E+02  0.54367079582E+02  0.39999989524E+02 0.  0.
         12    1    3    3    0    0  0.12259477302E+02 -0.19726961029E+02 -0.28571531377E+02  0.36820920418E+02  0.00000000000E+00 0. -1.
         11    1    4    4    0    0 -0.56772692736E+01  0.13688471974E+02  0.30142205415E+01  0.15122538713E+02  0.51100000000E-03 0. -1.
        -11    1    4    4    0    0 -0.15565570671E+02 -0.42371076075E+01  0.13674664189E+02  0.21147967093E+02  0.51100000000E-03 0.  1.
        -12    1    4    4    0    0  0.89833626426E+01  0.10275596663E+02  0.11882646647E+02  0.18096573777E+02  0.00000000000E+00 0.  1.
</event>
<event>
 8    1  0.1238315E-006  0.9118800E+02  0.7816164E-02  0.1184000E+00
        -11   -1    0    0    0    0  0.00000000000E+00  0.00000000000E+00  0.45593999997E+02  0.45594000000E+02  0.51100000000E-03 0. -1.
         11   -1    0    0    0    0 -0.00000000000E+00 -0.00000000000E+00 -0.45593999997E+02  0.45594000000E+02  0.51100000000E-03 0.  1.
         23    2    1    2    0    0  0.00000000000E+00  0.00000000000E+00  0.17763568394E-14  0.91188000000E+02  0.91188000000E+02 0.  0.
    9900012    2    3    3    0    0 -0.35305305035E+02 -0.72691090703E+01 -0.75149883115E+01  0.54367088012E+02  0.40000008742E+02 0.  0.
         12    1    3    3    0    0  0.35305305035E+02  0.72691090703E+01  0.75149883115E+01  0.36820911988E+02  0.00000000000E+00 0. -1.
         11    1    4    4    0    0 -0.90061583569E+01 -0.28282158187E+01  0.38247602534E+01  0.10185209096E+02  0.51100000000E-03 0. -1.
        -11    1    4    4    0    0 -0.28256235651E+02  0.54291327817E+00 -0.19561090527E+02  0.34370712399E+02  0.51100000000E-03 0.  1.
         12    1    4    4    0    0  0.19570889730E+01 -0.49838065298E+01  0.82213419619E+01  0.98111665173E+01  0.00000000000E+00 0. -1.
</event>
<event>
 8    1  0.1238315E-006  0.9118800E+02  0.7816164E-02  0.1184000E+00
        -11   -1    0    0    0    0  0.00000000000E+00  0.00000000000E+00  0.45593999997E+02  0.45594000000E+02  0.51100000000E-03 0. -1.
         11   -1    0    0    0    0 -0.00000000000E+00 -0.00000000000E+00 -0.45593999997E+02  0.45594000000E+02  0.51100000000E-03 0.  1.
         23    2    1    2    0    0  0.00000000000E+00 -0.66613381478E-15  0.00000000000E+00  0.91188000000E+02  0.91188000000E+02 0.  0.
    9900012    2    3    3    0    0 -0.18300765511E+02 -0.13111992450E+01  0.31924023894E+02  0.54367074383E+02  0.39999977671E+02 0.  0.
        -12    1    3    3    0    0  0.18300765511E+02  0.13111992450E+01 -0.31924023894E+02  0.36820925617E+02  0.00000000000E+00 0.  1.
         11    1    4    4    0    0  0.49683612347E+01  0.59073412401E+01 -0.93647389216E+00  0.77754921065E+01  0.51100000000E-03 0. -1.
        -11    1    4    4    0    0 -0.18744681033E+02 -0.10683747946E+02  0.11429845169E+02  0.24416119635E+02  0.51100000000E-03 0.  1.
         12    1    4    4    0    0 -0.45244457123E+01  0.34652074607E+01  0.21430652617E+02  0.22175462641E+02  0.00000000000E+00 0. -1.
</event>
<event>
 8    1  0.1238315E-006  0.9118800E+02  0.7816164E-02  0.1184000E+00
        -11   -1    0    0    0    0  0.00000000000E+00  0.00000000000E+00  0.45593999997E+02  0.45594000000E+02  0.51100000000E-03 0.  1.
         11   -1    0    0    0    0 -0.00000000000E+00 -0.00000000000E+00 -0.45593999997E+02  0.45594000000E+02  0.51100000000E-03 0. -1.
         23    2    1    2    0    0 -0.71054273576E-14 -0.17763568394E-14  0.00000000000E+00  0.91188000000E+02  0.91188000000E+02 0.  0.
    9900012    2    3    3    0    0 -0.34287474817E+02 -0.11689168121E+02  0.65963805237E+01  0.54367084521E+02  0.40000000782E+02 0.  0.
         12    1    3    3    0    0  0.34287474817E+02  0.11689168121E+02 -0.65963805237E+01  0.36820915479E+02  0.00000000000E+00 0. -1.
         11    1    4    4    0    0 -0.61883976851E+01  0.60982630816E+01 -0.10803397147E+02  0.13863566233E+02  0.51100000000E-03 0. -1.
        -11    1    4    4    0    0 -0.11886213600E+02 -0.63129675724E+00  0.13951803849E+01  0.11984454010E+02  0.51100000000E-03 0.  1.
        -12    1    4    4    0    0 -0.16212863532E+02 -0.17156134446E+02  0.16004597286E+02  0.28519064278E+02  0.00000000000E+00 0.  1.
</event>
<event>
 8    1  0.1238315E-006  0.9118800E+02  0.7816164E-02  0.1184000E+00
        -11   -1    0    0    0    0  0.00000000000E+00  0.00000000000E+00  0.45593999997E+02  0.45594000000E+02  0.51100000000E-03 0. -1.
         11   -1    0    0    0    0 -0.00000000000E+00 -0.00000000000E+00 -0.45593999997E+02  0.45594000000E+02  0.51100000000E-03 0.  1.
         23    2    1    2    0    0  0.00000000000E+00  0.00000000000E+00  0.00000000000E+00  0.91188000000E+02  0.91188000000E+02 0.  0.
    9900012    2    3    3    0    0  0.24557039278E+02 -0.23115928275E+02 -0.14777798157E+02  0.54367114127E+02  0.40000068276E+02 0.  0.
         12    1    3    3    0    0 -0.24557039278E+02  0.23115928275E+02  0.14777798157E+02  0.36820885873E+02  0.00000000000E+00 0. -1.
         11    1    4    4    0    0 -0.70923073088E+01 -0.11178864291E+02 -0.34934157466E+00  0.13243484043E+02  0.51100000000E-03 0. -1.
        -11    1    4    4    0    0  0.14193215729E+02 -0.61651583355E+01 -0.16500872192E+02  0.22621567881E+02  0.51100000000E-03 0.  1.
        -12    1    4    4    0    0  0.17456130857E+02 -0.57719056479E+01  0.20724156091E+01  0.18502062203E+02  0.00000000000E+00 0.  1.
</event>
<event>
 8    1  0.1238315E-006  0.9118800E+02  0.7816164E-02  0.1184000E+00
        -11   -1    0    0    0    0  0.00000000000E+00  0.00000000000E+00  0.45593999997E+02  0.45594000000E+02  0.51100000000E-03 0.  1.
         11   -1    0    0    0    0 -0.00000000000E+00 -0.00000000000E+00 -0.45593999997E+02  0.45594000000E+02  0.51100000000E-03 0. -1.
         23    2    1    2    0    0  0.00000000000E+00  0.00000000000E+00 -0.71054273576E-14  0.91188000000E+02  0.91188000000E+02 0.  0.
    9900012    2    3    3    0    0 -0.14845846751E+02 -0.20020841866E+02  0.27102516011E+02  0.54367086800E+02  0.40000005977E+02 0.  0.
         12    1    3    3    0    0  0.14845846751E+02  0.20020841866E+02 -0.27102516011E+02  0.36820913200E+02  0.00000000000E+00 0. -1.
         11    1    4    4    0    0 -0.13641792782E+02 -0.47086712959E+01 -0.41182963776E+01  0.15007680067E+02  0.51100000000E-03 0. -1.
        -11    1    4    4    0    0  0.12632617445E+01  0.30116778968E+01  0.23216892425E+00  0.32741314359E+01  0.51100000000E-03 0.  1.
        -12    1    4    4    0    0 -0.24673157138E+01 -0.18323848467E+02  0.30988643465E+02  0.36085275297E+02  0.00000000000E+00 0.  1.
</event>
<event>
 8    1  0.1238315E-006  0.9118800E+02  0.7816164E-02  0.1184000E+00
        -11   -1    0    0    0    0  0.00000000000E+00  0.00000000000E+00  0.45593999997E+02  0.45594000000E+02  0.51100000000E-03 0.  1.
         11   -1    0    0    0    0 -0.00000000000E+00 -0.00000000000E+00 -0.45593999997E+02  0.45594000000E+02  0.51100000000E-03 0. -1.
         23    2    1    2    0    0 -0.17763568394E-14  0.00000000000E+00  0.35527136788E-14  0.91188000000E+02  0.91188000000E+02 0.  0.
    9900012    2    3    3    0    0  0.91121930708E+01 -0.24501558309E+02 -0.25931105046E+02  0.54367073463E+02  0.39999975574E+02 0.  0.
        -12    1    3    3    0    0 -0.91121930708E+01  0.24501558309E+02  0.25931105046E+02  0.36820926537E+02  0.00000000000E+00 0.  1.
         11    1    4    4    0    0  0.69039124580E+01 -0.11296221379E+02  0.41521543566E+00  0.13245415388E+02  0.51100000000E-03 0. -1.
        -11    1    4    4    0    0 -0.96763069195E+01 -0.16306288498E+02 -0.18826161360E+02  0.26719848652E+02  0.51100000000E-03 0.  1.
         12    1    4    4    0    0  0.11884587532E+02  0.31009515684E+01 -0.75201591219E+01  0.14401809423E+02  0.00000000000E+00 0. -1.
</event>
<event>
 8    1  0.1238315E-006  0.9118800E+02  0.7816164E-02  0.1184000E+00
        -11   -1    0    0    0    0  0.00000000000E+00  0.00000000000E+00  0.45593999997E+02  0.45594000000E+02  0.51100000000E-03 0. -1.
         11   -1    0    0    0    0 -0.00000000000E+00 -0.00000000000E+00 -0.45593999997E+02  0.45594000000E+02  0.51100000000E-03 0.  1.
         23    2    1    2    0    0 -0.71054273576E-14  0.00000000000E+00  0.00000000000E+00  0.91188000000E+02  0.91188000000E+02 0.  0.
    9900012    2    3    3    0    0  0.35171312365E+02 -0.10665523130E+02 -0.22375586831E+01  0.54367064841E+02  0.39999955918E+02 0.  0.
         12    1    3    3    0    0 -0.35171312365E+02  0.10665523130E+02  0.22375586831E+01  0.36820935159E+02  0.00000000000E+00 0. -1.
         11    1    4    4    0    0  0.11097755668E+02 -0.97368134841E+01 -0.64951899399E+01  0.16129265647E+02  0.51100000000E-03 0. -1.
        -11    1    4    4    0    0  0.27959025146E+02 -0.84346665713E+01  0.54323292928E+01  0.29704560073E+02  0.51100000000E-03 0.  1.
         12    1    4    4    0    0 -0.38854684489E+01  0.75059569251E+01 -0.11746980359E+01  0.85332391214E+01  0.00000000000E+00 0. -1.
</event>
<event>
 8    1  0.1238315E-006  0.9118800E+02  0.7816164E-02  0.1184000E+00
        -11   -1    0    0    0    0  0.00000000000E+00  0.00000000000E+00  0.45593999997E+02  0.45594000000E+02  0.51100000000E-03 0. -1.
         11   -1    0    0    0    0 -0.00000000000E+00 -0.00000000000E+00 -0.45593999997E+02  0.45594000000E+02  0.51100000000E-03 0.  1.
         23    2    1    2    0    0 -0.12212453271E-14  0.00000000000E+00  0.00000000000E+00  0.91188000000E+02  0.91188000000E+02 0.  0.
    9900012    2    3    3    0    0 -0.63069877468E+00 -0.23250882921E+02  0.28544319705E+02  0.54367088483E+02  0.40000009814E+02 0.  0.
        -12    1    3    3    0    0  0.63069877468E+00  0.23250882921E+02 -0.28544319705E+02  0.36820911517E+02  0.00000000000E+00 0.  1.
         11    1    4    4    0    0 -0.95701101532E+01  0.34532835303E+00  0.10676919461E+02  0.14342345326E+02  0.51100000000E-03 0. -1.
        -11    1    4    4    0    0  0.40248817335E+01 -0.10715258166E+02 -0.56495414867E+01  0.12764550513E+02  0.51100000000E-03 0.  1.
        -12    1    4    4    0    0  0.49145296450E+01 -0.12880953108E+02  0.23516941731E+02  0.27260192644E+02  0.00000000000E+00 0.  1.
</event>
<event>
 8    1  0.1238315E-006  0.9118800E+02  0.7816164E-02  0.1184000E+00
        -11   -1    0    0    0    0  0.00000000000E+00  0.00000000000E+00  0.45593999997E+02  0.45594000000E+02  0.51100000000E-03 0.  1.
         11   -1    0    0    0    0 -0.00000000000E+00 -0.00000000000E+00 -0.45593999997E+02  0.45594000000E+02  0.51100000000E-03 0. -1.
         23    2    1    2    0    0  0.88817841970E-15  0.35527136788E-14  0.00000000000E+00  0.91188000000E+02  0.91188000000E+02 0.  0.
    9900012    2    3    3    0    0  0.22568232439E+01  0.26555785216E+02  0.25406177316E+02  0.54367125141E+02  0.40000093383E+02 0.  0.
         12    1    3    3    0    0 -0.22568232439E+01 -0.26555785216E+02 -0.25406177316E+02  0.36820874859E+02  0.00000000000E+00 0. -1.
         11    1    4    4    0    0 -0.88105468922E+01 -0.15296954113E+01 -0.19765676094E+01  0.91581943835E+01  0.51100000000E-03 0. -1.
        -11    1    4    4    0    0 -0.41122012173E+01  0.82308008001E+00  0.91609035878E+00  0.42926543625E+01  0.51100000000E-03 0.  1.
        -12    1    4    4    0    0  0.15179571353E+02  0.27262400547E+02  0.26466654567E+02  0.40916276395E+02  0.00000000000E+00 0.  1.
</event>
<event>
 8    1  0.1238315E-006  0.9118800E+02  0.7816164E-02  0.1184000E+00
        -11   -1    0    0    0    0  0.00000000000E+00  0.00000000000E+00  0.45593999997E+02  0.45594000000E+02  0.51100000000E-03 0.  1.
         11   -1    0    0    0    0 -0.00000000000E+00 -0.00000000000E+00 -0.45593999997E+02  0.45594000000E+02  0.51100000000E-03 0. -1.
         23    2    1    2    0    0  0.00000000000E+00  0.53290705182E-14  0.17763568394E-14  0.91188000000E+02  0.91188000000E+02 0.  0.
    9900012    2    3    3    0    0  0.32805932632E+02  0.14956891857E+02 -0.74727577508E+01  0.54367082870E+02  0.39999997019E+02 0.  0.
        -12    1    3    3    0    0 -0.32805932632E+02 -0.14956891857E+02  0.74727577508E+01  0.36820917130E+02  0.00000000000E+00 0.  1.
         11    1    4    4    0    0 -0.21203968358E+01 -0.70615964893E+01 -0.94555966436E+01  0.11990435182E+02  0.51100000000E-03 0. -1.
        -11    1    4    4    0    0  0.20538569736E+02  0.15832442860E+02 -0.25895973313E+01  0.26061563812E+02  0.51100000000E-03 0.  1.
         12    1    4    4    0    0  0.14387759732E+02  0.61860454858E+01  0.45724362241E+01  0.16315083876E+02  0.00000000000E+00 0. -1.
</event>
<event>
 8    1  0.1238315E-006  0.9118800E+02  0.7816164E-02  0.1184000E+00
        -11   -1    0    0    0    0  0.00000000000E+00  0.00000000000E+00  0.45593999997E+02  0.45594000000E+02  0.51100000000E-03 0. -1.
         11   -1    0    0    0    0 -0.00000000000E+00 -0.00000000000E+00 -0.45593999997E+02  0.45594000000E+02  0.51100000000E-03 0.  1.
         23    2    1    2    0    0  0.13322676296E-14  0.00000000000E+00  0.00000000000E+00  0.91188000000E+02  0.91188000000E+02 0.  0.
    9900012    2    3    3    0    0 -0.20462920571E+01  0.15256416632E+02  0.33448956888E+02  0.54367105436E+02  0.40000048462E+02 0.  0.
        -12    1    3    3    0    0  0.20462920571E+01 -0.15256416632E+02 -0.33448956888E+02  0.36820894564E+02  0.00000000000E+00 0.  1.
         11    1    4    4    0    0 -0.10474497268E+02  0.16866735728E+02  0.37473701147E+01  0.20205064963E+02  0.51100000000E-03 0. -1.
        -11    1    4    4    0    0  0.25020093575E+01  0.25621520916E+01 -0.80188452771E-02  0.35811644375E+01  0.51100000000E-03 0.  1.
        -12    1    4    4    0    0  0.59261958530E+01 -0.41724711868E+01  0.29709605618E+02  0.30580876035E+02  0.00000000000E+00 0.  1.
</event>
<event>
 8    1  0.1238315E-006  0.9118800E+02  0.7816164E-02  0.1184000E+00
        -11   -1    0    0    0    0  0.00000000000E+00  0.00000000000E+00  0.45593999997E+02  0.45594000000E+02  0.51100000000E-03 0.  1.
         11   -1    0    0    0    0 -0.00000000000E+00 -0.00000000000E+00 -0.45593999997E+02  0.45594000000E+02  0.51100000000E-03 0. -1.
         23    2    1    2    0    0 -0.17763568394E-14  0.35527136788E-14  0.00000000000E+00  0.91188000000E+02  0.91188000000E+02 0.  0.
    9900012    2    3    3    0    0 -0.92538629840E+01  0.26240147588E+02 -0.24116392945E+02  0.54367085641E+02  0.40000003336E+02 0.  0.
        -12    1    3    3    0    0  0.92538629840E+01 -0.26240147588E+02  0.24116392945E+02  0.36820914359E+02  0.00000000000E+00 0.  1.
         11    1    4    4    0    0  0.90274980664E+00  0.24011557098E+02 -0.66359121024E+01  0.24927999543E+02  0.51100000000E-03 0.  1.
        -11    1    4    4    0    0 -0.55821796401E+01  0.11158981986E+02 -0.14153459754E+02  0.18868069106E+02  0.51100000000E-03 0. -1.
        -12    1    4    4    0    0 -0.45744331506E+01 -0.89303914970E+01 -0.33270210883E+01  0.10571016993E+02  0.00000000000E+00 0.  1.
</event>
<event>
 8    1  0.1238315E-006  0.9118800E+02  0.7816164E-02  0.1184000E+00
        -11   -1    0    0    0    0  0.00000000000E+00  0.00000000000E+00  0.45593999997E+02  0.45594000000E+02  0.51100000000E-03 0. -1.
         11   -1    0    0    0    0 -0.00000000000E+00 -0.00000000000E+00 -0.45593999997E+02  0.45594000000E+02  0.51100000000E-03 0.  1.
         23    2    1    2    0    0 -0.17763568394E-14  0.00000000000E+00  0.00000000000E+00  0.91188000000E+02  0.91188000000E+02 0.  0.
    9900012    2    3    3    0    0 -0.88433631696E+01  0.32830176121E+02  0.14133467067E+02  0.54367076225E+02  0.39999981871E+02 0.  0.
        -12    1    3    3    0    0  0.88433631696E+01 -0.32830176121E+02 -0.14133467067E+02  0.36820923775E+02  0.00000000000E+00 0.  1.
         11    1    4    4    0    0 -0.16490262833E+02  0.58405416015E+01  0.13871704598E+02  0.22326327132E+02  0.51100000000E-03 0. -1.
        -11    1    4    4    0    0  0.16841504823E+01  0.15715360776E+01  0.50009683052E+01  0.55059760934E+01  0.51100000000E-03 0.  1.
        -12    1    4    4    0    0  0.59627491810E+01  0.25418098442E+02 -0.47392058361E+01  0.26534773000E+02  0.00000000000E+00 0.  1.
</event>
<event>
 8    1  0.1238315E-006  0.9118800E+02  0.7816164E-02  0.1184000E+00
        -11   -1    0    0    0    0  0.00000000000E+00  0.00000000000E+00  0.45593999997E+02  0.45594000000E+02  0.51100000000E-03 0. -1.
         11   -1    0    0    0    0 -0.00000000000E+00 -0.00000000000E+00 -0.45593999997E+02  0.45594000000E+02  0.51100000000E-03 0.  1.
         23    2    1    2    0    0  0.00000000000E+00  0.00000000000E+00  0.35527136788E-14  0.91188000000E+02  0.91188000000E+02 0.  0.
    9900012    2    3    3    0    0  0.20269790127E+02 -0.23964213525E+02  0.19251817360E+02  0.54367076691E+02  0.39999982932E+02 0.  0.
        -12    1    3    3    0    0 -0.20269790127E+02  0.23964213525E+02 -0.19251817360E+02  0.36820923309E+02  0.00000000000E+00 0.  1.
         11    1    4    4    0    0  0.13336260704E+02 -0.52745553391E+01  0.62175892912E+01  0.15631225174E+02  0.51100000000E-03 0. -1.
        -11    1    4    4    0    0  0.14915334951E+02 -0.10984820221E+02 -0.34734724417E+01  0.18846710669E+02  0.51100000000E-03 0.  1.
        -12    1    4    4    0    0 -0.79818055269E+01 -0.77048379647E+01  0.16507700511E+02  0.19889140848E+02  0.00000000000E+00 0.  1.
</event>
<event>
 8    1  0.1238315E-006  0.9118800E+02  0.7816164E-02  0.1184000E+00
        -11   -1    0    0    0    0  0.00000000000E+00  0.00000000000E+00  0.45593999997E+02  0.45594000000E+02  0.51100000000E-03 0.  1.
         11   -1    0    0    0    0 -0.00000000000E+00 -0.00000000000E+00 -0.45593999997E+02  0.45594000000E+02  0.51100000000E-03 0. -1.
         23    2    1    2    0    0 -0.44408920985E-15  0.00000000000E+00 -0.44408920985E-15  0.91188000000E+02  0.91188000000E+02 0.  0.
    9900012    2    3    3    0    0  0.25530519254E+01 -0.36629262156E+02 -0.27493876661E+01  0.54367081315E+02  0.39999993475E+02 0.  0.
         12    1    3    3    0    0 -0.25530519254E+01  0.36629262156E+02  0.27493876661E+01  0.36820918685E+02  0.00000000000E+00 0. -1.
         11    1    4    4    0    0  0.12995214744E+02 -0.80081123163E+01 -0.30661443385E+01  0.15569415868E+02  0.51100000000E-03 0. -1.
        -11    1    4    4    0    0 -0.35355594406E+01 -0.30363417499E+02  0.39135957961E+01  0.30818071567E+02  0.51100000000E-03 0.  1.
        -12    1    4    4    0    0 -0.69066033778E+01  0.17422676594E+01 -0.35968391237E+01  0.79795938804E+01  0.00000000000E+00 0.  1.
</event>
<event>
 8    1  0.1238315E-006  0.9118800E+02  0.7816164E-02  0.1184000E+00
        -11   -1    0    0    0    0  0.00000000000E+00  0.00000000000E+00  0.45593999997E+02  0.45594000000E+02  0.51100000000E-03 0.  1.
         11   -1    0    0    0    0 -0.00000000000E+00 -0.00000000000E+00 -0.45593999997E+02  0.45594000000E+02  0.51100000000E-03 0. -1.
         23    2    1    2    0    0  0.88817841970E-15  0.00000000000E+00  0.00000000000E+00  0.91188000000E+02  0.91188000000E+02 0.  0.
    9900012    2    3    3    0    0 -0.61007701268E+01  0.32744184081E+02  0.15696466016E+02  0.54367081588E+02  0.39999994097E+02 0.  0.
        -12    1    3    3    0    0  0.61007701268E+01 -0.32744184081E+02 -0.15696466016E+02  0.36820918412E+02  0.00000000000E+00 0.  1.
         11    1    4    4    0    0  0.62153209365E+00  0.17579883968E+02  0.13786040594E+02  0.22349352071E+02  0.51100000000E-03 0. -1.
        -11    1    4    4    0    0 -0.13468566114E+02  0.87041370980E+01  0.10630143093E+02  0.19239652238E+02  0.51100000000E-03 0.  1.
        -12    1    4    4    0    0  0.67462638940E+01  0.64601630150E+01 -0.87197176706E+01  0.12778077280E+02  0.00000000000E+00 0.  1.
</event>
<event>
 8    1  0.1238315E-006  0.9118800E+02  0.7816164E-02  0.1184000E+00
        -11   -1    0    0    0    0  0.00000000000E+00  0.00000000000E+00  0.45593999997E+02  0.45594000000E+02  0.51100000000E-03 0. -1.
         11   -1    0    0    0    0 -0.00000000000E+00 -0.00000000000E+00 -0.45593999997E+02  0.45594000000E+02  0.51100000000E-03 0.  1.
         23    2    1    2    0    0  0.00000000000E+00  0.17763568394E-14 -0.35527136788E-14  0.91188000000E+02  0.91188000000E+02 0.  0.
    9900012    2    3    3    0    0  0.26701683551E+02  0.94449289735E+01 -0.23528555275E+02  0.54367088807E+02  0.40000010553E+02 0.  0.
         12    1    3    3    0    0 -0.26701683551E+02 -0.94449289735E+01  0.23528555275E+02  0.36820911193E+02  0.00000000000E+00 0. -1.
         11    1    4    4    0    0 -0.14085587803E+00 -0.44649489744E+01 -0.42755465038E+01  0.61835190539E+01  0.51100000000E-03 0. -1.
        -11    1    4    4    0    0  0.11490888879E+02 -0.10297753651E+02 -0.80848208405E+01  0.17419775710E+02  0.51100000000E-03 0.  1.
         12    1    4    4    0    0  0.15351650550E+02  0.24207631599E+02 -0.11168187930E+02  0.30763794043E+02  0.00000000000E+00 0. -1.
</event>
<event>
 8    1  0.1238315E-006  0.9118800E+02  0.7816164E-02  0.1184000E+00
        -11   -1    0    0    0    0  0.00000000000E+00  0.00000000000E+00  0.45593999997E+02  0.45594000000E+02  0.51100000000E-03 0.  1.
         11   -1    0    0    0    0 -0.00000000000E+00 -0.00000000000E+00 -0.45593999997E+02  0.45594000000E+02  0.51100000000E-03 0. -1.
         23    2    1    2    0    0  0.00000000000E+00 -0.17763568394E-14  0.12212453271E-14  0.91188000000E+02  0.91188000000E+02 0.  0.
    9900012    2    3    3    0    0  0.34234271866E+02 -0.13535658522E+02 -0.76975225906E+00  0.54366919891E+02  0.39999625475E+02 0.  0.
         12    1    3    3    0    0 -0.34234271866E+02  0.13535658522E+02  0.76975225906E+00  0.36821080109E+02  0.00000000000E+00 0. -1.
         11    1    4    4    0    0  0.18999453143E+00 -0.31101221156E+01 -0.11393826297E+02  0.11812207052E+02  0.51100000000E-03 0. -1.
        -11    1    4    4    0    0  0.21263507827E+02  0.30262243111E+01  0.64770766965E+00  0.21487538812E+02  0.51100000000E-03 0.  1.
        -12    1    4    4    0    0  0.12780769508E+02 -0.13451760717E+02  0.99763663681E+01  0.21067174028E+02  0.00000000000E+00 0.  1.
</event>
<event>
 8    1  0.1238315E-006  0.9118800E+02  0.7816164E-02  0.1184000E+00
        -11   -1    0    0    0    0  0.00000000000E+00  0.00000000000E+00  0.45593999997E+02  0.45594000000E+02  0.51100000000E-03 0.  1.
         11   -1    0    0    0    0 -0.00000000000E+00 -0.00000000000E+00 -0.45593999997E+02  0.45594000000E+02  0.51100000000E-03 0. -1.
         23    2    1    2    0    0  0.00000000000E+00 -0.17763568394E-14  0.00000000000E+00  0.91188000000E+02  0.91188000000E+02 0.  0.
    9900012    2    3    3    0    0  0.19929565022E+01 -0.15004190846E+02  0.33566149134E+02  0.54367027902E+02  0.39999871708E+02 0.  0.
         12    1    3    3    0    0 -0.19929565022E+01  0.15004190846E+02 -0.33566149134E+02  0.36820972098E+02  0.00000000000E+00 0. -1.
         11    1    4    4    0    0 -0.80846486888E+01 -0.11123148845E+02 -0.73869800078E+00  0.13770681161E+02  0.51100000000E-03 0. -1.
        -11    1    4    4    0    0  0.67150377884E+01 -0.11184925601E+02  0.25686216875E+02  0.28809304587E+02  0.51100000000E-03 0.  1.
         12    1    4    4    0    0  0.33625674027E+01  0.73038835995E+01  0.86186302602E+01  0.11787042154E+02  0.00000000000E+00 0. -1.
</event>
<event>
 8    1  0.1238315E-006  0.9118800E+02  0.7816164E-02  0.1184000E+00
        -11   -1    0    0    0    0  0.00000000000E+00  0.00000000000E+00  0.45593999997E+02  0.45594000000E+02  0.51100000000E-03 0.  1.
         11   -1    0    0    0    0 -0.00000000000E+00 -0.00000000000E+00 -0.45593999997E+02  0.45594000000E+02  0.51100000000E-03 0. -1.
         23    2    1    2    0    0  0.88817841970E-15  0.00000000000E+00  0.35527136788E-14  0.91188000000E+02  0.91188000000E+02 0.  0.
    9900012    2    3    3    0    0  0.53519027806E+01  0.32636917734E+02 -0.16185443343E+02  0.54367084222E+02  0.40000000101E+02 0.  0.
         12    1    3    3    0    0 -0.53519027806E+01 -0.32636917734E+02  0.16185443343E+02  0.36820915778E+02  0.00000000000E+00 0. -1.
         11    1    4    4    0    0  0.16240439130E+02  0.20371666537E+02 -0.12556395573E+02  0.28920922023E+02  0.51100000000E-03 0. -1.
        -11    1    4    4    0    0 -0.13002689666E+02  0.33444944893E+00 -0.98406955588E+00  0.13044162991E+02  0.51100000000E-03 0.  1.
        -12    1    4    4    0    0  0.21141533172E+01  0.11930801747E+02 -0.26449782143E+01  0.12401999207E+02  0.00000000000E+00 0.  1.
</event>
<event>
 8    1  0.1238315E-006  0.9118800E+02  0.7816164E-02  0.1184000E+00
        -11   -1    0    0    0    0  0.00000000000E+00  0.00000000000E+00  0.45593999997E+02  0.45594000000E+02  0.51100000000E-03 0. -1.
         11   -1    0    0    0    0 -0.00000000000E+00 -0.00000000000E+00 -0.45593999997E+02  0.45594000000E+02  0.51100000000E-03 0.  1.
         23    2    1    2    0    0 -0.44408920985E-15  0.00000000000E+00  0.00000000000E+00  0.91188000000E+02  0.91188000000E+02 0.  0.
    9900012    2    3    3    0    0  0.17773759116E+01 -0.24969316182E+02 -0.27002859369E+02  0.54367078911E+02  0.39999987993E+02 0.  0.
         12    1    3    3    0    0 -0.17773759116E+01  0.24969316182E+02  0.27002859369E+02  0.36820921089E+02  0.00000000000E+00 0. -1.
         11    1    4    4    0    0 -0.96529605199E+01  0.54425178610E+01 -0.67252839638E+00  0.11101934164E+02  0.51100000000E-03 0. -1.
        -11    1    4    4    0    0  0.12993247922E+02 -0.26724431539E+02 -0.25539800219E+02  0.39182918831E+02  0.51100000000E-03 0.  1.
        -12    1    4    4    0    0 -0.15629114902E+01 -0.36874025047E+01 -0.79053075425E+00  0.40822259162E+01  0.00000000000E+00 0.  1.
</event>
<event>
 8    1  0.1238315E-006  0.9118800E+02  0.7816164E-02  0.1184000E+00
        -11   -1    0    0    0    0  0.00000000000E+00  0.00000000000E+00  0.45593999997E+02  0.45594000000E+02  0.51100000000E-03 0.  1.
         11   -1    0    0    0    0 -0.00000000000E+00 -0.00000000000E+00 -0.45593999997E+02  0.45594000000E+02  0.51100000000E-03 0. -1.
         23    2    1    2    0    0 -0.35527136788E-14  0.00000000000E+00 -0.88817841970E-15  0.91188000000E+02  0.91188000000E+02 0.  0.
    9900012    2    3    3    0    0 -0.16010349856E+02 -0.32570875509E+02 -0.62118299549E+01  0.54367081145E+02  0.39999993086E+02 0.  0.
        -12    1    3    3    0    0  0.16010349856E+02  0.32570875509E+02  0.62118299549E+01  0.36820918855E+02  0.00000000000E+00 0.  1.
         11    1    4    4    0    0 -0.20194487456E+02 -0.92574618699E+01 -0.33369980273E+01  0.22464493762E+02  0.51100000000E-03 0. -1.
        -11    1    4    4    0    0  0.89145454185E+01 -0.49209993028E+01  0.49996059539E+01  0.11343783060E+02  0.51100000000E-03 0.  1.
         12    1    4    4    0    0 -0.47304078183E+01 -0.18392414336E+02 -0.78744378814E+01  0.20558804323E+02  0.00000000000E+00 0. -1.
</event>
<event>
 8    1  0.1238315E-006  0.9118800E+02  0.7816164E-02  0.1184000E+00
        -11   -1    0    0    0    0  0.00000000000E+00  0.00000000000E+00  0.45593999997E+02  0.45594000000E+02  0.51100000000E-03 0. -1.
         11   -1    0    0    0    0 -0.00000000000E+00 -0.00000000000E+00 -0.45593999997E+02  0.45594000000E+02  0.51100000000E-03 0.  1.
         23    2    1    2    0    0 -0.88817841970E-15  0.00000000000E+00  0.00000000000E+00  0.91188000000E+02  0.91188000000E+02 0.  0.
    9900012    2    3    3    0    0  0.25172981328E+01 -0.22493714085E+02  0.29042695581E+02  0.54367053111E+02  0.39999929176E+02 0.  0.
        -12    1    3    3    0    0 -0.25172981328E+01  0.22493714085E+02 -0.29042695581E+02  0.36820946889E+02  0.00000000000E+00 0.  1.
         11    1    4    4    0    0  0.42987123162E+01 -0.13559583366E+02  0.39956544147E+01  0.14775198242E+02  0.51100000000E-03 0. -1.
        -11    1    4    4    0    0  0.73116400511E+01 -0.11269881033E+02  0.64869359029E+00  0.13449576289E+02  0.51100000000E-03 0.  1.
         12    1    4    4    0    0 -0.90930542345E+01  0.23357503144E+01  0.24398347576E+02  0.26142278579E+02  0.00000000000E+00 0. -1.
</event>
<event>
 8    1  0.1238315E-006  0.9118800E+02  0.7816164E-02  0.1184000E+00
        -11   -1    0    0    0    0  0.00000000000E+00  0.00000000000E+00  0.45593999997E+02  0.45594000000E+02  0.51100000000E-03 0. -1.
         11   -1    0    0    0    0 -0.00000000000E+00 -0.00000000000E+00 -0.45593999997E+02  0.45594000000E+02  0.51100000000E-03 0.  1.
         23    2    1    2    0    0  0.22204460493E-15  0.00000000000E+00  0.35527136788E-14  0.91188000000E+02  0.91188000000E+02 0.  0.
    9900012    2    3    3    0    0 -0.11103698613E+01  0.24374098582E+02  0.27576318356E+02  0.54367042150E+02  0.39999904189E+02 0.  0.
        -12    1    3    3    0    0  0.11103698613E+01 -0.24374098582E+02 -0.27576318356E+02  0.36820957850E+02  0.00000000000E+00 0.  1.
         11    1    4    4    0    0  0.12734958363E+02  0.16949666420E+02  0.24848185045E+02  0.32663475880E+02  0.51100000000E-03 0. -1.
        -11    1    4    4    0    0 -0.10630005354E+01  0.75345728717E+01  0.44349754945E+01  0.88073132336E+01  0.51100000000E-03 0.  1.
        -12    1    4    4    0    0 -0.12782327689E+02 -0.11014070984E+00 -0.17068421836E+01  0.12896253036E+02  0.00000000000E+00 0.  1.
</event>
<event>
 8    1  0.1238315E-006  0.9118800E+02  0.7816164E-02  0.1184000E+00
        -11   -1    0    0    0    0  0.00000000000E+00  0.00000000000E+00  0.45593999997E+02  0.45594000000E+02  0.51100000000E-03 0.  1.
         11   -1    0    0    0    0 -0.00000000000E+00 -0.00000000000E+00 -0.45593999997E+02  0.45594000000E+02  0.51100000000E-03 0. -1.
         23    2    1    2    0    0  0.35527136788E-14 -0.35527136788E-14  0.00000000000E+00  0.91188000000E+02  0.91188000000E+02 0.  0.
    9900012    2    3    3    0    0  0.19891235870E+02 -0.25049634858E+02  0.18238265451E+02  0.54367084780E+02  0.40000001374E+02 0.  0.
         12    1    3    3    0    0 -0.19891235870E+02  0.25049634858E+02 -0.18238265451E+02  0.36820915220E+02  0.00000000000E+00 0. -1.
         11    1    4    4    0    0  0.91387919365E+00  0.82272465563E+01  0.87351640715E+01  0.12034361333E+02  0.51100000000E-03 0. -1.
        -11    1    4    4    0    0 -0.99138164299E+00  0.11079552497E+01  0.43669703159E+00  0.15495505658E+01  0.51100000000E-03 0.  1.
        -12    1    4    4    0    0  0.19968738319E+02 -0.34384836664E+02  0.90664043480E+01  0.40783172881E+02  0.00000000000E+00 0.  1.
</event>
<event>
 8    1  0.1238315E-006  0.9118800E+02  0.7816164E-02  0.1184000E+00
        -11   -1    0    0    0    0  0.00000000000E+00  0.00000000000E+00  0.45593999997E+02  0.45594000000E+02  0.51100000000E-03 0.  1.
         11   -1    0    0    0    0 -0.00000000000E+00 -0.00000000000E+00 -0.45593999997E+02  0.45594000000E+02  0.51100000000E-03 0. -1.
         23    2    1    2    0    0  0.00000000000E+00  0.00000000000E+00 -0.17763568394E-14  0.91188000000E+02  0.91188000000E+02 0.  0.
    9900012    2    3    3    0    0 -0.22687058225E+02  0.24502132569E+02  0.15515270919E+02  0.54367071943E+02  0.39999972108E+02 0.  0.
         12    1    3    3    0    0  0.22687058225E+02 -0.24502132569E+02 -0.15515270919E+02  0.36820928057E+02  0.00000000000E+00 0. -1.
         11    1    4    4    0    0 -0.35330522152E+00 -0.17717326626E+01  0.15141696509E+02  0.15249092912E+02  0.51100000000E-03 0. -1.
        -11    1    4    4    0    0 -0.11340821012E+02  0.17317236915E+02  0.89434956719E+01  0.22549656997E+02  0.51100000000E-03 0.  1.
        -12    1    4    4    0    0 -0.10992931992E+02  0.89566283162E+01 -0.85699212623E+01  0.16568322034E+02  0.00000000000E+00 0.  1.
</event>
<event>
 8    1  0.1238315E-006  0.9118800E+02  0.7816164E-02  0.1184000E+00
        -11   -1    0    0    0    0  0.00000000000E+00  0.00000000000E+00  0.45593999997E+02  0.45594000000E+02  0.51100000000E-03 0. -1.
         11   -1    0    0    0    0 -0.00000000000E+00 -0.00000000000E+00 -0.45593999997E+02  0.45594000000E+02  0.51100000000E-03 0.  1.
         23    2    1    2    0    0 -0.86042284408E-15  0.00000000000E+00  0.71054273576E-14  0.91188000000E+02  0.91188000000E+02 0.  0.
    9900012    2    3    3    0    0 -0.24994275884E+00  0.23734674239E+02  0.28149283337E+02  0.54367090383E+02  0.40000014147E+02 0.  0.
        -12    1    3    3    0    0  0.24994275884E+00 -0.23734674239E+02 -0.28149283337E+02  0.36820909617E+02  0.00000000000E+00 0.  1.
         11    1    4    4    0    0  0.15945609070E+01  0.38511717519E+01  0.94375083800E+00  0.42737353982E+01  0.51100000000E-03 0. -1.
        -11    1    4    4    0    0  0.10111506414E+02 -0.69270475907E+01  0.11469010981E+02  0.16785850095E+02  0.51100000000E-03 0.  1.
         12    1    4    4    0    0 -0.11956010080E+02  0.26810550078E+02  0.15736521518E+02  0.33307504890E+02  0.00000000000E+00 0. -1.
</event>
<event>
 8    1  0.1238315E-006  0.9118800E+02  0.7816164E-02  0.1184000E+00
        -11   -1    0    0    0    0  0.00000000000E+00  0.00000000000E+00  0.45593999997E+02  0.45594000000E+02  0.51100000000E-03 0.  1.
         11   -1    0    0    0    0 -0.00000000000E+00 -0.00000000000E+00 -0.45593999997E+02  0.45594000000E+02  0.51100000000E-03 0. -1.
         23    2    1    2    0    0  0.00000000000E+00 -0.13322676296E-14  0.00000000000E+00  0.91188000000E+02  0.91188000000E+02 0.  0.
    9900012    2    3    3    0    0 -0.32930929546E+02  0.19533471561E+01 -0.16355971150E+02  0.54367089119E+02  0.40000011264E+02 0.  0.
        -12    1    3    3    0    0  0.32930929546E+02 -0.19533471561E+01  0.16355971150E+02  0.36820910881E+02  0.00000000000E+00 0.  1.
         11    1    4    4    0    0 -0.41735838123E+00  0.10283676319E+02 -0.12929157928E+02  0.16525474627E+02  0.51100000000E-03 0. -1.
        -11    1    4    4    0    0 -0.10094548488E+02  0.50723310701E+01 -0.31193084281E+01  0.11720005845E+02  0.51100000000E-03 0.  1.
         12    1    4    4    0    0 -0.22419022677E+02 -0.13402660233E+02 -0.30750479323E+00  0.26121608647E+02  0.00000000000E+00 0. -1.
</event>
<event>
 8    1  0.1238315E-006  0.9118800E+02  0.7816164E-02  0.1184000E+00
        -11   -1    0    0    0    0  0.00000000000E+00  0.00000000000E+00  0.45593999997E+02  0.45594000000E+02  0.51100000000E-03 0. -1.
         11   -1    0    0    0    0 -0.00000000000E+00 -0.00000000000E+00 -0.45593999997E+02  0.45594000000E+02  0.51100000000E-03 0.  1.
         23    2    1    2    0    0  0.00000000000E+00  0.00000000000E+00  0.00000000000E+00  0.91188000000E+02  0.91188000000E+02 0.  0.
    9900012    2    3    3    0    0 -0.27839252685E+02  0.22880622149E+02  0.75652544571E+01  0.54367082915E+02  0.39999997122E+02 0.  0.
        -12    1    3    3    0    0  0.27839252685E+02 -0.22880622149E+02 -0.75652544571E+01  0.36820917085E+02  0.00000000000E+00 0.  1.
         11    1    4    4    0    0 -0.16936291105E+02  0.13750289465E+02  0.54885916245E+01  0.22495178484E+02  0.51100000000E-03 0. -1.
        -11    1    4    4    0    0  0.53766741916E+01 -0.70026320356E+01 -0.26907342440E+00  0.88327731521E+01  0.51100000000E-03 0.  1.
        -12    1    4    4    0    0 -0.16279635771E+02  0.16132964719E+02  0.23457362570E+01  0.23039131279E+02  0.00000000000E+00 0.  1.
</event>
<event>
 8    1  0.1238315E-006  0.9118800E+02  0.7816164E-02  0.1184000E+00
        -11   -1    0    0    0    0  0.00000000000E+00  0.00000000000E+00  0.45593999997E+02  0.45594000000E+02  0.51100000000E-03 0.  1.
         11   -1    0    0    0    0 -0.00000000000E+00 -0.00000000000E+00 -0.45593999997E+02  0.45594000000E+02  0.51100000000E-03 0. -1.
         23    2    1    2    0    0  0.00000000000E+00  0.35527136788E-14 -0.35527136788E-14  0.91188000000E+02  0.91188000000E+02 0.  0.
    9900012    2    3    3    0    0  0.19437820808E+02  0.20346309742E+02 -0.23748241601E+02  0.54367079628E+02  0.39999989629E+02 0.  0.
        -12    1    3    3    0    0 -0.19437820808E+02 -0.20346309742E+02  0.23748241601E+02  0.36820920372E+02  0.00000000000E+00 0.  1.
         11    1    4    4    0    0 -0.40651728117E+01 -0.33164408239E+01 -0.51086741101E+01  0.73227700464E+01  0.51100000000E-03 0. -1.
        -11    1    4    4    0    0  0.16061111076E+02  0.43738021454E+01  0.32219200430E+01  0.16954946276E+02  0.51100000000E-03 0.  1.
         12    1    4    4    0    0  0.74418825438E+01  0.19288948420E+02 -0.21861487534E+02  0.30089363306E+02  0.00000000000E+00 0. -1.
</event>
<event>
 8    1  0.1238315E-006  0.9118800E+02  0.7816164E-02  0.1184000E+00
        -11   -1    0    0    0    0  0.00000000000E+00  0.00000000000E+00  0.45593999997E+02  0.45594000000E+02  0.51100000000E-03 0.  1.
         11   -1    0    0    0    0 -0.00000000000E+00 -0.00000000000E+00 -0.45593999997E+02  0.45594000000E+02  0.51100000000E-03 0. -1.
         23    2    1    2    0    0 -0.44408920985E-15 -0.71054273576E-14  0.35527136788E-14  0.91188000000E+02  0.91188000000E+02 0.  0.
    9900012    2    3    3    0    0 -0.28670334211E+01  0.34459531714E+02  0.12653102764E+02  0.54367079097E+02  0.39999988417E+02 0.  0.
         12    1    3    3    0    0  0.28670334211E+01 -0.34459531714E+02 -0.12653102764E+02  0.36820920903E+02  0.00000000000E+00 0. -1.
         11    1    4    4    0    0  0.38185081162E+01  0.17103435972E+01 -0.13983283233E+01  0.44115305524E+01  0.51100000000E-03 0. -1.
        -11    1    4    4    0    0 -0.22992839930E+01  0.38690043751E+02  0.16572046106E+02  0.42152567000E+02  0.51100000000E-03 0.  1.
        -12    1    4    4    0    0 -0.43862575443E+01 -0.59408556336E+01 -0.25206150187E+01  0.78029815441E+01  0.00000000000E+00 0.  1.
</event>
<event>
 8    1  0.1238315E-006  0.9118800E+02  0.7816164E-02  0.1184000E+00
        -11   -1    0    0    0    0  0.00000000000E+00  0.00000000000E+00  0.45593999997E+02  0.45594000000E+02  0.51100000000E-03 0.  1.
         11   -1    0    0    0    0 -0.00000000000E+00 -0.00000000000E+00 -0.45593999997E+02  0.45594000000E+02  0.51100000000E-03 0. -1.
         23    2    1    2    0    0 -0.14988010832E-14  0.00000000000E+00  0.00000000000E+00  0.91188000000E+02  0.91188000000E+02 0.  0.
    9900012    2    3    3    0    0  0.44568147562E+00  0.32009101324E+02  0.18193365079E+02  0.54367085665E+02  0.40000003390E+02 0.  0.
         12    1    3    3    0    0 -0.44568147562E+00 -0.32009101324E+02 -0.18193365079E+02  0.36820914335E+02  0.00000000000E+00 0. -1.
         11    1    4    4    0    0 -0.10577932994E+02  0.21811561645E+02  0.11284863151E+02  0.26739203886E+02  0.51100000000E-03 0. -1.
        -11    1    4    4    0    0  0.14618750960E+02  0.14537154270E+02  0.31538107571E+01  0.20856252215E+02  0.51100000000E-03 0.  1.
         12    1    4    4    0    0 -0.35951364899E+01 -0.43396145904E+01  0.37546911709E+01  0.67716295648E+01  0.00000000000E+00 0. -1.
</event>
<event>
 8    1  0.1238315E-006  0.9118800E+02  0.7816164E-02  0.1184000E+00
        -11   -1    0    0    0    0  0.00000000000E+00  0.00000000000E+00  0.45593999997E+02  0.45594000000E+02  0.51100000000E-03 0.  1.
         11   -1    0    0    0    0 -0.00000000000E+00 -0.00000000000E+00 -0.45593999997E+02  0.45594000000E+02  0.51100000000E-03 0. -1.
         23    2    1    2    0    0  0.88817841970E-15  0.48572257327E-15  0.00000000000E+00  0.91188000000E+02  0.91188000000E+02 0.  0.
    9900012    2    3    3    0    0  0.73884180945E+01 -0.66657964994E-01  0.36071958078E+02  0.54367091201E+02  0.40000016011E+02 0.  0.
         12    1    3    3    0    0 -0.73884180945E+01  0.66657964994E-01 -0.36071958078E+02  0.36820908799E+02  0.00000000000E+00 0. -1.
         11    1    4    4    0    0 -0.53204941904E+01 -0.12523982112E+02  0.26960251195E+02  0.30199551837E+02  0.51100000000E-03 0.  1.
        -11    1    4    4    0    0  0.10483453630E+02  0.13389575366E+01  0.68811102211E+01  0.12611315769E+02  0.51100000000E-03 0. -1.
        -12    1    4    4    0    0  0.22254586549E+01  0.11118366610E+02  0.22305966611E+01  0.11556223595E+02  0.00000000000E+00 0.  1.
</event>
<event>
 8    1  0.1238315E-006  0.9118800E+02  0.7816164E-02  0.1184000E+00
        -11   -1    0    0    0    0  0.00000000000E+00  0.00000000000E+00  0.45593999997E+02  0.45594000000E+02  0.51100000000E-03 0.  1.
         11   -1    0    0    0    0 -0.00000000000E+00 -0.00000000000E+00 -0.45593999997E+02  0.45594000000E+02  0.51100000000E-03 0. -1.
         23    2    1    2    0    0  0.00000000000E+00 -0.61062266354E-15  0.71054273576E-14  0.91188000000E+02  0.91188000000E+02 0.  0.
    9900012    2    3    3    0    0 -0.98914107886E+01  0.22133957372E+00  0.35467002639E+02  0.54366847455E+02  0.39999460338E+02 0.  0.
         12    1    3    3    0    0  0.98914107886E+01 -0.22133957372E+00 -0.35467002639E+02  0.36821152545E+02  0.00000000000E+00 0. -1.
         11    1    4    4    0    0 -0.63803363077E+01  0.12788265381E+02  0.13931710665E+02  0.19958481534E+02  0.51100000000E-03 0.  1.
        -11    1    4    4    0    0  0.16358259740E+01 -0.44916616949E+01 -0.45631402567E+01  0.66085702434E+01  0.51100000000E-03 0. -1.
        -12    1    4    4    0    0 -0.51469004549E+01 -0.80752641121E+01  0.26098432231E+02  0.27799795677E+02  0.00000000000E+00 0.  1.
</event>
<event>
 8    1  0.1238315E-006  0.9118800E+02  0.7816164E-02  0.1184000E+00
        -11   -1    0    0    0    0  0.00000000000E+00  0.00000000000E+00  0.45593999997E+02  0.45594000000E+02  0.51100000000E-03 0.  1.
         11   -1    0    0    0    0 -0.00000000000E+00 -0.00000000000E+00 -0.45593999997E+02  0.45594000000E+02  0.51100000000E-03 0. -1.
         23    2    1    2    0    0  0.00000000000E+00  0.00000000000E+00  0.00000000000E+00  0.91188000000E+02  0.91188000000E+02 0.  0.
    9900012    2    3    3    0    0 -0.34405942774E+02 -0.10332393961E+02 -0.80784166775E+01  0.54366972323E+02  0.39999745004E+02 0.  0.
        -12    1    3    3    0    0  0.34405942774E+02  0.10332393961E+02  0.80784166775E+01  0.36821027677E+02  0.00000000000E+00 0.  1.
         11    1    4    4    0    0  0.25133649354E+01  0.60611904090E+01 -0.47339278843E+01  0.80910509791E+01  0.51100000000E-03 0. -1.
        -11    1    4    4    0    0 -0.51076024352E+01  0.45848603497E+01  0.32653697546E+01  0.76007359484E+01  0.51100000000E-03 0.  1.
         12    1    4    4    0    0 -0.31811705275E+02 -0.20978444720E+02 -0.66098585478E+01  0.38675185395E+02  0.00000000000E+00 0. -1.
</event>
<event>
 8    1  0.1238315E-006  0.9118800E+02  0.7816164E-02  0.1184000E+00
        -11   -1    0    0    0    0  0.00000000000E+00  0.00000000000E+00  0.45593999997E+02  0.45594000000E+02  0.51100000000E-03 0.  1.
         11   -1    0    0    0    0 -0.00000000000E+00 -0.00000000000E+00 -0.45593999997E+02  0.45594000000E+02  0.51100000000E-03 0. -1.
         23    2    1    2    0    0  0.00000000000E+00 -0.35527136788E-14  0.00000000000E+00  0.91188000000E+02  0.91188000000E+02 0.  0.
    9900012    2    3    3    0    0  0.20205970291E+02 -0.16458538058E+02 -0.26011820024E+02  0.54367088939E+02  0.40000010854E+02 0.  0.
        -12    1    3    3    0    0 -0.20205970291E+02  0.16458538058E+02  0.26011820024E+02  0.36820911061E+02  0.00000000000E+00 0.  1.
         11    1    4    4    0    0  0.50223457918E+01  0.20709546705E+01 -0.52565067101E+01  0.75593434605E+01  0.51100000000E-03 0. -1.
        -11    1    4    4    0    0  0.79327739699E+00 -0.24718006321E+02 -0.18708570589E+02  0.31009994183E+02  0.51100000000E-03 0.  1.
        -12    1    4    4    0    0  0.14390347102E+02  0.61885135924E+01 -0.20467427245E+01  0.15797751295E+02  0.00000000000E+00 0.  1.
</event>
<event>
 8    1  0.1238315E-006  0.9118800E+02  0.7816164E-02  0.1184000E+00
        -11   -1    0    0    0    0  0.00000000000E+00  0.00000000000E+00  0.45593999997E+02  0.45594000000E+02  0.51100000000E-03 0.  1.
         11   -1    0    0    0    0 -0.00000000000E+00 -0.00000000000E+00 -0.45593999997E+02  0.45594000000E+02  0.51100000000E-03 0. -1.
         23    2    1    2    0    0  0.35527136788E-14  0.00000000000E+00 -0.88817841970E-15  0.91188000000E+02  0.91188000000E+02 0.  0.
    9900012    2    3    3    0    0 -0.16953959313E+02  0.32214519033E+02 -0.55288521041E+01  0.54367079609E+02  0.39999989584E+02 0.  0.
        -12    1    3    3    0    0  0.16953959313E+02 -0.32214519033E+02  0.55288521041E+01  0.36820920391E+02  0.00000000000E+00 0.  1.
         11    1    4    4    0    0  0.41305292915E+01  0.66802022597E+01  0.26314434029E+01  0.82831678180E+01  0.51100000000E-03 0. -1.
        -11    1    4    4    0    0 -0.92785048165E+00  0.16877493960E+02  0.81332188464E+01  0.18757930535E+02  0.51100000000E-03 0.  1.
        -12    1    4    4    0    0 -0.20156638122E+02  0.86568228133E+01 -0.16293514353E+02  0.27325981256E+02  0.00000000000E+00 0.  1.
</event>
<event>
 8    1  0.1238315E-006  0.9118800E+02  0.7816164E-02  0.1184000E+00
        -11   -1    0    0    0    0  0.00000000000E+00  0.00000000000E+00  0.45593999997E+02  0.45594000000E+02  0.51100000000E-03 0.  1.
         11   -1    0    0    0    0 -0.00000000000E+00 -0.00000000000E+00 -0.45593999997E+02  0.45594000000E+02  0.51100000000E-03 0. -1.
         23    2    1    2    0    0  0.00000000000E+00 -0.35527136788E-14 -0.17763568394E-14  0.91188000000E+02  0.91188000000E+02 0.  0.
    9900012    2    3    3    0    0  0.29817002557E+02 -0.16401999496E+02 -0.14060603180E+02  0.54367084874E+02  0.40000001587E+02 0.  0.
         12    1    3    3    0    0 -0.29817002557E+02  0.16401999496E+02  0.14060603180E+02  0.36820915126E+02  0.00000000000E+00 0. -1.
         11    1    4    4    0    0 -0.71136313786E+01  0.21475361467E+01 -0.62444679728E+00  0.74569160486E+01  0.51100000000E-03 0. -1.
        -11    1    4    4    0    0  0.21125455750E+02 -0.10854785505E+01 -0.87649003311E+01  0.22897306007E+02  0.51100000000E-03 0.  1.
         12    1    4    4    0    0  0.15805178186E+02 -0.17464057092E+02 -0.46712560520E+01  0.24012862818E+02  0.00000000000E+00 0. -1.
</event>
<event>
 8    1  0.1238315E-006  0.9118800E+02  0.7816164E-02  0.1184000E+00
        -11   -1    0    0    0    0  0.00000000000E+00  0.00000000000E+00  0.45593999997E+02  0.45594000000E+02  0.51100000000E-03 0.  1.
         11   -1    0    0    0    0 -0.00000000000E+00 -0.00000000000E+00 -0.45593999997E+02  0.45594000000E+02  0.51100000000E-03 0. -1.
         23    2    1    2    0    0  0.00000000000E+00  0.00000000000E+00  0.00000000000E+00  0.91188000000E+02  0.91188000000E+02 0.  0.
    9900012    2    3    3    0    0 -0.70532275669E+01  0.14653037741E+02 -0.33035119023E+02  0.54367100730E+02  0.40000037735E+02 0.  0.
        -12    1    3    3    0    0  0.70532275669E+01 -0.14653037741E+02  0.33035119023E+02  0.36820899270E+02  0.00000000000E+00 0.  1.
         11    1    4    4    0    0 -0.49638887968E+01 -0.51871143166E+01 -0.10988827780E+02  0.13126335481E+02  0.51100000000E-03 0.  1.
        -11    1    4    4    0    0 -0.31655793217E+01  0.20646340136E+02 -0.28114963467E+02  0.35024897209E+02  0.51100000000E-03 0. -1.
        -12    1    4    4    0    0  0.10762405516E+01 -0.80618807787E+00  0.60686722241E+01  0.62158680412E+01  0.00000000000E+00 0.  1.
</event>
<event>
 8    1  0.1238315E-006  0.9118800E+02  0.7816164E-02  0.1184000E+00
        -11   -1    0    0    0    0  0.00000000000E+00  0.00000000000E+00  0.45593999997E+02  0.45594000000E+02  0.51100000000E-03 0. -1.
         11   -1    0    0    0    0 -0.00000000000E+00 -0.00000000000E+00 -0.45593999997E+02  0.45594000000E+02  0.51100000000E-03 0.  1.
         23    2    1    2    0    0  0.35527136788E-14  0.35527136788E-14 -0.35527136788E-14  0.91188000000E+02  0.91188000000E+02 0.  0.
    9900012    2    3    3    0    0  0.18159597671E+02  0.20523025443E+02 -0.24592986698E+02  0.54367074487E+02  0.39999977907E+02 0.  0.
         12    1    3    3    0    0 -0.18159597671E+02 -0.20523025443E+02  0.24592986698E+02  0.36820925513E+02  0.00000000000E+00 0. -1.
         11    1    4    4    0    0  0.16607549609E+02  0.13375515609E+02 -0.10219596581E+01  0.21348525092E+02  0.51100000000E-03 0. -1.
        -11    1    4    4    0    0  0.93633551602E+01  0.10852866181E+02 -0.12891666846E+02  0.19278283081E+02  0.51100000000E-03 0.  1.
        -12    1    4    4    0    0 -0.78113070979E+01 -0.37053563464E+01 -0.10679360193E+02  0.13740266314E+02  0.00000000000E+00 0.  1.
</event>
<event>
 8    1  0.1238315E-006  0.9118800E+02  0.7816164E-02  0.1184000E+00
        -11   -1    0    0    0    0  0.00000000000E+00  0.00000000000E+00  0.45593999997E+02  0.45594000000E+02  0.51100000000E-03 0.  1.
         11   -1    0    0    0    0 -0.00000000000E+00 -0.00000000000E+00 -0.45593999997E+02  0.45594000000E+02  0.51100000000E-03 0. -1.
         23    2    1    2    0    0  0.00000000000E+00  0.35527136788E-14 -0.35527136788E-14  0.91188000000E+02  0.91188000000E+02 0.  0.
    9900012    2    3    3    0    0  0.12736186467E+02 -0.18225316792E+02  0.29349702900E+02  0.54367113560E+02  0.40000066983E+02 0.  0.
         12    1    3    3    0    0 -0.12736186467E+02  0.18225316792E+02 -0.29349702900E+02  0.36820886440E+02  0.00000000000E+00 0. -1.
         11    1    4    4    0    0  0.63152973357E+01 -0.40935898681E+01 -0.13274964835E+01  0.76421662911E+01  0.51100000000E-03 0. -1.
        -11    1    4    4    0    0  0.58589311094E+01  0.96683160490E+01  0.11808087607E+02  0.16347303820E+02  0.51100000000E-03 0.  1.
        -12    1    4    4    0    0  0.56195802184E+00 -0.23800042973E+02  0.18869111776E+02  0.30377643449E+02  0.00000000000E+00 0.  1.
</event>
<event>
 8    1  0.1238315E-006  0.9118800E+02  0.7816164E-02  0.1184000E+00
        -11   -1    0    0    0    0  0.00000000000E+00  0.00000000000E+00  0.45593999997E+02  0.45594000000E+02  0.51100000000E-03 0. -1.
         11   -1    0    0    0    0 -0.00000000000E+00 -0.00000000000E+00 -0.45593999997E+02  0.45594000000E+02  0.51100000000E-03 0.  1.
         23    2    1    2    0    0 -0.35527136788E-14  0.17763568394E-14  0.00000000000E+00  0.91188000000E+02  0.91188000000E+02 0.  0.
    9900012    2    3    3    0    0 -0.21437203932E+02  0.88747599109E+01 -0.28591329786E+02  0.54367092694E+02  0.40000019415E+02 0.  0.
         12    1    3    3    0    0  0.21437203932E+02 -0.88747599109E+01  0.28591329786E+02  0.36820907306E+02  0.00000000000E+00 0. -1.
         11    1    4    4    0    0  0.11533100212E+01  0.34193455893E+01  0.72598405070E+01  0.81072395247E+01  0.51100000000E-03 0. -1.
        -11    1    4    4    0    0 -0.93413744155E+01 -0.46008650493E+01 -0.22976444203E+02  0.25225903822E+02  0.51100000000E-03 0.  1.
        -12    1    4    4    0    0 -0.13249139538E+02  0.10056279371E+02 -0.12874726090E+02  0.21033949348E+02  0.00000000000E+00 0.  1.
</event>
<event>
 8    1  0.1238315E-006  0.9118800E+02  0.7816164E-02  0.1184000E+00
        -11   -1    0    0    0    0  0.00000000000E+00  0.00000000000E+00  0.45593999997E+02  0.45594000000E+02  0.51100000000E-03 0. -1.
         11   -1    0    0    0    0 -0.00000000000E+00 -0.00000000000E+00 -0.45593999997E+02  0.45594000000E+02  0.51100000000E-03 0.  1.
         23    2    1    2    0    0 -0.88817841970E-15 -0.17763568394E-14  0.00000000000E+00  0.91188000000E+02  0.91188000000E+02 0.  0.
    9900012    2    3    3    0    0  0.54600494220E+01  0.11635878776E+02  0.34504695074E+02  0.54367084792E+02  0.40000001401E+02 0.  0.
        -12    1    3    3    0    0 -0.54600494220E+01 -0.11635878776E+02 -0.34504695074E+02  0.36820915208E+02  0.00000000000E+00 0.  1.
         11    1    4    4    0    0 -0.71424327749E+01 -0.14032563347E+01  0.26032575165E+02  0.27031064431E+02  0.51100000000E-03 0. -1.
        -11    1    4    4    0    0  0.93793960953E+00  0.14060201007E+02  0.62617607984E+01  0.15420072361E+02  0.51100000000E-03 0.  1.
         12    1    4    4    0    0  0.11664542587E+02 -0.10210658963E+01  0.22103591104E+01  0.11915948000E+02  0.00000000000E+00 0. -1.
</event>
<event>
 8    1  0.1238315E-006  0.9118800E+02  0.7816164E-02  0.1184000E+00
        -11   -1    0    0    0    0  0.00000000000E+00  0.00000000000E+00  0.45593999997E+02  0.45594000000E+02  0.51100000000E-03 0.  1.
         11   -1    0    0    0    0 -0.00000000000E+00 -0.00000000000E+00 -0.45593999997E+02  0.45594000000E+02  0.51100000000E-03 0. -1.
         23    2    1    2    0    0  0.00000000000E+00  0.00000000000E+00  0.17763568394E-14  0.91188000000E+02  0.91188000000E+02 0.  0.
    9900012    2    3    3    0    0  0.32848978398E+02  0.59268865986E+01  0.15543361277E+02  0.54367089551E+02  0.40000012249E+02 0.  0.
         12    1    3    3    0    0 -0.32848978398E+02 -0.59268865986E+01 -0.15543361277E+02  0.36820910449E+02  0.00000000000E+00 0. -1.
         11    1    4    4    0    0 -0.47940225037E+00  0.29093956682E+01 -0.78190082441E+01  0.83565124217E+01  0.51100000000E-03 0. -1.
        -11    1    4    4    0    0  0.31401577319E+02 -0.34735427452E+01  0.14250412453E+02  0.34658315202E+02  0.51100000000E-03 0.  1.
         12    1    4    4    0    0  0.19268033293E+01  0.64910336756E+01  0.91119570683E+01  0.11352261927E+02  0.00000000000E+00 0. -1.
</event>
<event>
 8    1  0.1238315E-006  0.9118800E+02  0.7816164E-02  0.1184000E+00
        -11   -1    0    0    0    0  0.00000000000E+00  0.00000000000E+00  0.45593999997E+02  0.45594000000E+02  0.51100000000E-03 0.  1.
         11   -1    0    0    0    0 -0.00000000000E+00 -0.00000000000E+00 -0.45593999997E+02  0.45594000000E+02  0.51100000000E-03 0. -1.
         23    2    1    2    0    0 -0.71054273576E-14  0.00000000000E+00 -0.17763568394E-14  0.91188000000E+02  0.91188000000E+02 0.  0.
    9900012    2    3    3    0    0  0.32431530844E+02  0.14587473191E+02  0.95485426629E+01  0.54367173910E+02  0.40000204562E+02 0.  0.
         12    1    3    3    0    0 -0.32431530844E+02 -0.14587473191E+02 -0.95485426629E+01  0.36820826090E+02  0.00000000000E+00 0. -1.
         11    1    4    4    0    0 -0.55628007680E+01 -0.44125211502E+01  0.61255480204E+01  0.93774961528E+01  0.51100000000E-03 0. -1.
        -11    1    4    4    0    0  0.40594921045E+01 -0.20338419254E+01  0.22016844406E+01  0.50461276006E+01  0.51100000000E-03 0.  1.
        -12    1    4    4    0    0  0.33934839508E+02  0.21033836266E+02  0.12213102019E+01  0.39943550156E+02  0.00000000000E+00 0.  1.
</event>
<event>
 8    1  0.1238315E-006  0.9118800E+02  0.7816164E-02  0.1184000E+00
        -11   -1    0    0    0    0  0.00000000000E+00  0.00000000000E+00  0.45593999997E+02  0.45594000000E+02  0.51100000000E-03 0.  1.
         11   -1    0    0    0    0 -0.00000000000E+00 -0.00000000000E+00 -0.45593999997E+02  0.45594000000E+02  0.51100000000E-03 0. -1.
         23    2    1    2    0    0 -0.53290705182E-14  0.00000000000E+00 -0.17763568394E-14  0.91188000000E+02  0.91188000000E+02 0.  0.
    9900012    2    3    3    0    0 -0.10527210299E+02 -0.33436971619E+02  0.11266106596E+02  0.54367103955E+02  0.40000045086E+02 0.  0.
         12    1    3    3    0    0  0.10527210299E+02  0.33436971619E+02 -0.11266106596E+02  0.36820896045E+02  0.00000000000E+00 0. -1.
         11    1    4    4    0    0 -0.16247151349E+02 -0.12513686982E+02  0.11737657317E+02  0.23629111037E+02  0.51100000000E-03 0. -1.
        -11    1    4    4    0    0  0.71675605891E+01 -0.15091112474E+02 -0.10001514855E+02  0.19471669167E+02  0.51100000000E-03 0.  1.
        -12    1    4    4    0    0 -0.14476195392E+01 -0.58321721632E+01  0.95299641342E+01  0.11266323751E+02  0.00000000000E+00 0.  1.
</event>
<event>
 8    1  0.1238315E-006  0.9118800E+02  0.7816164E-02  0.1184000E+00
        -11   -1    0    0    0    0  0.00000000000E+00  0.00000000000E+00  0.45593999997E+02  0.45594000000E+02  0.51100000000E-03 0.  1.
         11   -1    0    0    0    0 -0.00000000000E+00 -0.00000000000E+00 -0.45593999997E+02  0.45594000000E+02  0.51100000000E-03 0. -1.
         23    2    1    2    0    0  0.00000000000E+00 -0.71054273576E-14 -0.44408920985E-15  0.91188000000E+02  0.91188000000E+02 0.  0.
    9900012    2    3    3    0    0  0.11152655068E+02  0.35069219384E+02  0.12444148372E+01  0.54367076171E+02  0.39999981748E+02 0.  0.
         12    1    3    3    0    0 -0.11152655068E+02 -0.35069219384E+02 -0.12444148372E+01  0.36820923829E+02  0.00000000000E+00 0. -1.
         11    1    4    4    0    0 -0.13057131634E+02  0.35951446001E+01 -0.54313065158E+00  0.13553919816E+02  0.51100000000E-03 0. -1.
        -11    1    4    4    0    0  0.21336650640E+02  0.22712336416E+02 -0.10051581292E+01  0.31178730397E+02  0.51100000000E-03 0.  1.
         12    1    4    4    0    0  0.28731360624E+01  0.87617383682E+01  0.27927036179E+01  0.96344259592E+01  0.00000000000E+00 0. -1.
</event>
<event>
 8    1  0.1238315E-006  0.9118800E+02  0.7816164E-02  0.1184000E+00
        -11   -1    0    0    0    0  0.00000000000E+00  0.00000000000E+00  0.45593999997E+02  0.45594000000E+02  0.51100000000E-03 0. -1.
         11   -1    0    0    0    0 -0.00000000000E+00 -0.00000000000E+00 -0.45593999997E+02  0.45594000000E+02  0.51100000000E-03 0.  1.
         23    2    1    2    0    0  0.00000000000E+00  0.35527136788E-14  0.00000000000E+00  0.91188000000E+02  0.91188000000E+02 0.  0.
    9900012    2    3    3    0    0 -0.18949557715E+02  0.24857908712E+02  0.19461917494E+02  0.54367250474E+02  0.40000379103E+02 0.  0.
        -12    1    3    3    0    0  0.18949557715E+02 -0.24857908712E+02 -0.19461917494E+02  0.36820749526E+02  0.00000000000E+00 0.  1.
         11    1    4    4    0    0 -0.23495975183E+02  0.11511284333E+02  0.44566499967E+01  0.26541142520E+02  0.51100000000E-03 0.  1.
        -11    1    4    4    0    0 -0.24248793587E+01 -0.32544563140E+01  0.70647399414E+01  0.81475196535E+01  0.51100000000E-03 0. -1.
         12    1    4    4    0    0  0.69712968268E+01  0.16601080693E+02  0.79405275561E+01  0.19678588301E+02  0.00000000000E+00 0. -1.
</event>
<event>
 8    1  0.1238315E-006  0.9118800E+02  0.7816164E-02  0.1184000E+00
        -11   -1    0    0    0    0  0.00000000000E+00  0.00000000000E+00  0.45593999997E+02  0.45594000000E+02  0.51100000000E-03 0. -1.
         11   -1    0    0    0    0 -0.00000000000E+00 -0.00000000000E+00 -0.45593999997E+02  0.45594000000E+02  0.51100000000E-03 0.  1.
         23    2    1    2    0    0  0.17763568394E-14  0.00000000000E+00  0.00000000000E+00  0.91188000000E+02  0.91188000000E+02 0.  0.
    9900012    2    3    3    0    0  0.12649439671E+02  0.32903555109E+02 -0.10636067751E+02  0.54367106475E+02  0.40000050831E+02 0.  0.
         12    1    3    3    0    0 -0.12649439671E+02 -0.32903555109E+02  0.10636067751E+02  0.36820893525E+02  0.00000000000E+00 0. -1.
         11    1    4    4    0    0  0.82006388122E+01  0.32545054238E+02 -0.25337088530E+00  0.33563301824E+02  0.51100000000E-03 0. -1.
        -11    1    4    4    0    0  0.80085803811E+01 -0.61036369682E+01 -0.85307247066E+01  0.13197159097E+02  0.51100000000E-03 0.  1.
         12    1    4    4    0    0 -0.35597795224E+01  0.64621378389E+01 -0.18519721590E+01  0.76066455534E+01  0.00000000000E+00 0. -1.
</event>
<event>
 8    1  0.1238315E-006  0.9118800E+02  0.7816164E-02  0.1184000E+00
        -11   -1    0    0    0    0  0.00000000000E+00  0.00000000000E+00  0.45593999997E+02  0.45594000000E+02  0.51100000000E-03 0.  1.
         11   -1    0    0    0    0 -0.00000000000E+00 -0.00000000000E+00 -0.45593999997E+02  0.45594000000E+02  0.51100000000E-03 0. -1.
         23    2    1    2    0    0  0.35527136788E-14 -0.17763568394E-14  0.00000000000E+00  0.91188000000E+02  0.91188000000E+02 0.  0.
    9900012    2    3    3    0    0 -0.29030701180E+02  0.13604382665E+02  0.18108531204E+02  0.54367085548E+02  0.40000003125E+02 0.  0.
         12    1    3    3    0    0  0.29030701180E+02 -0.13604382665E+02 -0.18108531204E+02  0.36820914452E+02  0.00000000000E+00 0. -1.
         11    1    4    4    0    0 -0.27708024317E+02  0.20997189064E+02  0.83607204589E+01  0.35756372957E+02  0.51100000000E-03 0. -1.
        -11    1    4    4    0    0  0.59920409144E+01 -0.18884626291E+01  0.60985947148E+01  0.87557811289E+01  0.51100000000E-03 0.  1.
         12    1    4    4    0    0 -0.73147177774E+01 -0.55043437703E+01  0.36492160300E+01  0.98549314629E+01  0.00000000000E+00 0. -1.
</event>
<event>
 8    1  0.1238315E-006  0.9118800E+02  0.7816164E-02  0.1184000E+00
        -11   -1    0    0    0    0  0.00000000000E+00  0.00000000000E+00  0.45593999997E+02  0.45594000000E+02  0.51100000000E-03 0. -1.
         11   -1    0    0    0    0 -0.00000000000E+00 -0.00000000000E+00 -0.45593999997E+02  0.45594000000E+02  0.51100000000E-03 0.  1.
         23    2    1    2    0    0  0.00000000000E+00 -0.88817841970E-15 -0.17763568394E-14  0.91188000000E+02  0.91188000000E+02 0.  0.
    9900012    2    3    3    0    0 -0.34223348492E+02 -0.68914261419E+01  0.11706863430E+02  0.54367082200E+02  0.39999995492E+02 0.  0.
        -12    1    3    3    0    0  0.34223348492E+02  0.68914261419E+01 -0.11706863430E+02  0.36820917800E+02  0.00000000000E+00 0.  1.
         11    1    4    4    0    0 -0.10713802410E+02 -0.56207615979E+00  0.88842070442E+01  0.13929487670E+02  0.51100000000E-03 0. -1.
        -11    1    4    4    0    0 -0.22470823379E-01  0.10715425543E+02  0.38851477292E+01  0.11398035912E+02  0.51100000000E-03 0.  1.
         12    1    4    4    0    0 -0.23487075259E+02 -0.17044775525E+02 -0.10624913430E+01  0.29039558619E+02  0.00000000000E+00 0. -1.
</event>
<event>
 8    1  0.1238315E-006  0.9118800E+02  0.7816164E-02  0.1184000E+00
        -11   -1    0    0    0    0  0.00000000000E+00  0.00000000000E+00  0.45593999997E+02  0.45594000000E+02  0.51100000000E-03 0.  1.
         11   -1    0    0    0    0 -0.00000000000E+00 -0.00000000000E+00 -0.45593999997E+02  0.45594000000E+02  0.51100000000E-03 0. -1.
         23    2    1    2    0    0  0.35527136788E-14  0.17763568394E-14  0.00000000000E+00  0.91188000000E+02  0.91188000000E+02 0.  0.
    9900012    2    3    3    0    0 -0.30583396313E+02  0.11624938974E+02 -0.16890799206E+02  0.54367048980E+02  0.39999919761E+02 0.  0.
        -12    1    3    3    0    0  0.30583396313E+02 -0.11624938974E+02  0.16890799206E+02  0.36820951020E+02  0.00000000000E+00 0.  1.
         11    1    4    4    0    0 -0.11206714911E+02  0.11297094338E+01 -0.13906709231E+00  0.11264370485E+02  0.51100000000E-03 0. -1.
        -11    1    4    4    0    0 -0.16026184439E+02  0.21349802519E+02 -0.17160531686E+02  0.31735414025E+02  0.51100000000E-03 0.  1.
         12    1    4    4    0    0 -0.33504969625E+01 -0.10854572980E+02  0.40879957223E+00  0.11367264471E+02  0.00000000000E+00 0. -1.
</event>
<event>
 8    1  0.1238315E-006  0.9118800E+02  0.7816164E-02  0.1184000E+00
        -11   -1    0    0    0    0  0.00000000000E+00  0.00000000000E+00  0.45593999997E+02  0.45594000000E+02  0.51100000000E-03 0.  1.
         11   -1    0    0    0    0 -0.00000000000E+00 -0.00000000000E+00 -0.45593999997E+02  0.45594000000E+02  0.51100000000E-03 0. -1.
         23    2    1    2    0    0  0.00000000000E+00 -0.35527136788E-14  0.00000000000E+00  0.91188000000E+02  0.91188000000E+02 0.  0.
    9900012    2    3    3    0    0  0.24805776020E+02  0.25512480152E+02  0.94639171048E+01  0.54367097045E+02  0.40000029334E+02 0.  0.
         12    1    3    3    0    0 -0.24805776020E+02 -0.25512480152E+02 -0.94639171048E+01  0.36820902955E+02  0.00000000000E+00 0. -1.
         11    1    4    4    0    0  0.23387008401E+02  0.10121778267E+02  0.15261115631E+02  0.29703605973E+02  0.51100000000E-03 0. -1.
        -11    1    4    4    0    0 -0.33330339873E+00  0.49728177144E+01  0.66674073439E+01  0.83243214814E+01  0.51100000000E-03 0.  1.
         12    1    4    4    0    0  0.17520710178E+01  0.10417884170E+02 -0.12464605870E+02  0.16339169591E+02  0.00000000000E+00 0. -1.
</event>
<event>
 8    1  0.1238315E-006  0.9118800E+02  0.7816164E-02  0.1184000E+00
        -11   -1    0    0    0    0  0.00000000000E+00  0.00000000000E+00  0.45593999997E+02  0.45594000000E+02  0.51100000000E-03 0.  1.
         11   -1    0    0    0    0 -0.00000000000E+00 -0.00000000000E+00 -0.45593999997E+02  0.45594000000E+02  0.51100000000E-03 0. -1.
         23    2    1    2    0    0  0.17763568394E-14  0.17763568394E-14  0.00000000000E+00  0.91188000000E+02  0.91188000000E+02 0.  0.
    9900012    2    3    3    0    0  0.40188271762E+01  0.78016840854E+01  0.35759791810E+02  0.54367082620E+02  0.39999996448E+02 0.  0.
         12    1    3    3    0    0 -0.40188271762E+01 -0.78016840854E+01 -0.35759791810E+02  0.36820917380E+02  0.00000000000E+00 0. -1.
         11    1    4    4    0    0  0.97569759311E+01 -0.89583346726E+01  0.18869648614E+02  0.23054586930E+02  0.51100000000E-03 0. -1.
        -11    1    4    4    0    0 -0.11487273807E+02  0.15713160650E+02  0.88722745516E+01  0.21391076015E+02  0.51100000000E-03 0.  1.
        -12    1    4    4    0    0  0.57491250521E+01  0.10468581085E+01  0.80178686443E+01  0.99214196747E+01  0.00000000000E+00 0.  1.
</event>
<event>
 8    1  0.1238315E-006  0.9118800E+02  0.7816164E-02  0.1184000E+00
        -11   -1    0    0    0    0  0.00000000000E+00  0.00000000000E+00  0.45593999997E+02  0.45594000000E+02  0.51100000000E-03 0. -1.
         11   -1    0    0    0    0 -0.00000000000E+00 -0.00000000000E+00 -0.45593999997E+02  0.45594000000E+02  0.51100000000E-03 0.  1.
         23    2    1    2    0    0  0.00000000000E+00  0.00000000000E+00  0.88817841970E-15  0.91188000000E+02  0.91188000000E+02 0.  0.
    9900012    2    3    3    0    0  0.31898078575E+02  0.17407995787E+02 -0.59376531417E+01  0.54367062221E+02  0.39999949945E+02 0.  0.
         12    1    3    3    0    0 -0.31898078575E+02 -0.17407995787E+02  0.59376531417E+01  0.36820937779E+02  0.00000000000E+00 0. -1.
         11    1    4    4    0    0  0.76778944311E+00  0.85474974141E+00 -0.89433580407E+01  0.90168592678E+01  0.51100000000E-03 0. -1.
        -11    1    4    4    0    0  0.20061800730E+02  0.21276706050E+02 -0.65685771733E+01  0.29971991512E+02  0.51100000000E-03 0.  1.
        -12    1    4    4    0    0  0.11068488402E+02 -0.47234600045E+01  0.95742820724E+01  0.15378211441E+02  0.00000000000E+00 0.  1.
</event>
<event>
 8    1  0.1238315E-006  0.9118800E+02  0.7816164E-02  0.1184000E+00
        -11   -1    0    0    0    0  0.00000000000E+00  0.00000000000E+00  0.45593999997E+02  0.45594000000E+02  0.51100000000E-03 0.  1.
         11   -1    0    0    0    0 -0.00000000000E+00 -0.00000000000E+00 -0.45593999997E+02  0.45594000000E+02  0.51100000000E-03 0. -1.
         23    2    1    2    0    0  0.17763568394E-14  0.17763568394E-14 -0.71054273576E-14  0.91188000000E+02  0.91188000000E+02 0.  0.
    9900012    2    3    3    0    0 -0.13765586562E+02  0.11431398690E+02  0.32180907467E+02  0.54367094867E+02  0.40000024369E+02 0.  0.
         12    1    3    3    0    0  0.13765586562E+02 -0.11431398690E+02 -0.32180907467E+02  0.36820905133E+02  0.00000000000E+00 0. -1.
         11    1    4    4    0    0 -0.24863924153E+02  0.38783738051E+01  0.13138775217E+02  0.28388094725E+02  0.51100000000E-03 0. -1.
        -11    1    4    4    0    0  0.14507928522E+01  0.99224496534E+00 -0.15290293437E+01  0.23296525419E+01  0.51100000000E-03 0.  1.
        -12    1    4    4    0    0  0.96475447383E+01  0.65607799199E+01  0.20571161593E+02  0.23649347601E+02  0.00000000000E+00 0.  1.
</event>
<event>
 8    1  0.1238315E-006  0.9118800E+02  0.7816164E-02  0.1184000E+00
        -11   -1    0    0    0    0  0.00000000000E+00  0.00000000000E+00  0.45593999997E+02  0.45594000000E+02  0.51100000000E-03 0. -1.
         11   -1    0    0    0    0 -0.00000000000E+00 -0.00000000000E+00 -0.45593999997E+02  0.45594000000E+02  0.51100000000E-03 0.  1.
         23    2    1    2    0    0  0.00000000000E+00  0.66613381478E-15  0.35527136788E-14  0.91188000000E+02  0.91188000000E+02 0.  0.
    9900012    2    3    3    0    0 -0.24287767271E+02  0.11961068496E+01 -0.27648719697E+02  0.54367109035E+02  0.40000056667E+02 0.  0.
         12    1    3    3    0    0  0.24287767271E+02 -0.11961068496E+01  0.27648719697E+02  0.36820890965E+02  0.00000000000E+00 0. -1.
         11    1    4    4    0    0  0.44946891059E+01 -0.72420771578E+01 -0.71988247660E+01  0.11156746389E+02  0.51100000000E-03 0. -1.
        -11    1    4    4    0    0 -0.25225582119E+02 -0.26206866269E+01 -0.90316644236E+01  0.26921533280E+02  0.51100000000E-03 0.  1.
         12    1    4    4    0    0 -0.35568742584E+01  0.11058870634E+02 -0.11418230507E+02  0.16288829366E+02  0.00000000000E+00 0. -1.
</event>
<event>
 8    1  0.1238315E-006  0.9118800E+02  0.7816164E-02  0.1184000E+00
        -11   -1    0    0    0    0  0.00000000000E+00  0.00000000000E+00  0.45593999997E+02  0.45594000000E+02  0.51100000000E-03 0.  1.
         11   -1    0    0    0    0 -0.00000000000E+00 -0.00000000000E+00 -0.45593999997E+02  0.45594000000E+02  0.51100000000E-03 0. -1.
         23    2    1    2    0    0  0.88817841970E-15 -0.35527136788E-14  0.00000000000E+00  0.91188000000E+02  0.91188000000E+02 0.  0.
    9900012    2    3    3    0    0 -0.43436187444E+01 -0.25509934423E+02 -0.26194585523E+02  0.54367080826E+02  0.39999992359E+02 0.  0.
        -12    1    3    3    0    0  0.43436187444E+01  0.25509934423E+02  0.26194585523E+02  0.36820919174E+02  0.00000000000E+00 0.  1.
         11    1    4    4    0    0 -0.67897640015E+01 -0.24184405685E+01 -0.25775257441E+02  0.26764036437E+02  0.51100000000E-03 0. -1.
        -11    1    4    4    0    0 -0.53548065196E+01 -0.16316067352E+02 -0.13700143880E+01  0.17226866993E+02  0.51100000000E-03 0.  1.
         12    1    4    4    0    0  0.78009517767E+01 -0.67754265027E+01  0.95068630555E+00  0.10376177397E+02  0.00000000000E+00 0. -1.
</event>
<event>
 8    1  0.1238315E-006  0.9118800E+02  0.7816164E-02  0.1184000E+00
        -11   -1    0    0    0    0  0.00000000000E+00  0.00000000000E+00  0.45593999997E+02  0.45594000000E+02  0.51100000000E-03 0. -1.
         11   -1    0    0    0    0 -0.00000000000E+00 -0.00000000000E+00 -0.45593999997E+02  0.45594000000E+02  0.51100000000E-03 0.  1.
         23    2    1    2    0    0  0.00000000000E+00  0.71054273576E-14  0.88817841970E-15  0.91188000000E+02  0.91188000000E+02 0.  0.
    9900012    2    3    3    0    0 -0.11119425100E+02  0.34651851889E+02  0.56015130863E+01  0.54367225935E+02  0.40000323162E+02 0.  0.
         12    1    3    3    0    0  0.11119425100E+02 -0.34651851889E+02 -0.56015130863E+01  0.36820774065E+02  0.00000000000E+00 0. -1.
         11    1    4    4    0    0  0.86914787800E+00  0.22245523663E+01  0.67920315937E+01  0.71997044866E+01  0.51100000000E-03 0. -1.
        -11    1    4    4    0    0  0.49829189169E+01  0.26232588869E+02  0.65802753869E+01  0.27500513161E+02  0.51100000000E-03 0.  1.
         12    1    4    4    0    0 -0.16971491895E+02  0.61947106538E+01 -0.77707938943E+01  0.19667008287E+02  0.00000000000E+00 0. -1.
</event>
<event>
 8    1  0.1238315E-006  0.9118800E+02  0.7816164E-02  0.1184000E+00
        -11   -1    0    0    0    0  0.00000000000E+00  0.00000000000E+00  0.45593999997E+02  0.45594000000E+02  0.51100000000E-03 0.  1.
         11   -1    0    0    0    0 -0.00000000000E+00 -0.00000000000E+00 -0.45593999997E+02  0.45594000000E+02  0.51100000000E-03 0. -1.
         23    2    1    2    0    0  0.22204460493E-15 -0.35527136788E-14 -0.71054273576E-14  0.91188000000E+02  0.91188000000E+02 0.  0.
    9900012    2    3    3    0    0 -0.12803582095E+01 -0.22154700645E+02 -0.29382129535E+02  0.54367087276E+02  0.40000007062E+02 0.  0.
        -12    1    3    3    0    0  0.12803582095E+01  0.22154700645E+02  0.29382129535E+02  0.36820912724E+02  0.00000000000E+00 0.  1.
         11    1    4    4    0    0 -0.69233528899E+01  0.25310662536E+00 -0.16394891817E+01  0.71193260383E+01  0.51100000000E-03 0. -1.
        -11    1    4    4    0    0 -0.65525008428E+01 -0.24928547191E+02 -0.19353538659E+02  0.32232393508E+02  0.51100000000E-03 0.  1.
         12    1    4    4    0    0  0.12195495523E+02  0.25207399208E+01 -0.83891016948E+01  0.15015367729E+02  0.00000000000E+00 0. -1.
</event>
<event>
 8    1  0.1238315E-006  0.9118800E+02  0.7816164E-02  0.1184000E+00
        -11   -1    0    0    0    0  0.00000000000E+00  0.00000000000E+00  0.45593999997E+02  0.45594000000E+02  0.51100000000E-03 0.  1.
         11   -1    0    0    0    0 -0.00000000000E+00 -0.00000000000E+00 -0.45593999997E+02  0.45594000000E+02  0.51100000000E-03 0. -1.
         23    2    1    2    0    0  0.00000000000E+00  0.44408920985E-15  0.00000000000E+00  0.91188000000E+02  0.91188000000E+02 0.  0.
    9900012    2    3    3    0    0 -0.24891870485E+02 -0.36464881808E+01  0.26886364076E+02  0.54367100153E+02  0.40000036419E+02 0.  0.
         12    1    3    3    0    0  0.24891870485E+02  0.36464881808E+01 -0.26886364076E+02  0.36820899847E+02  0.00000000000E+00 0. -1.
         11    1    4    4    0    0  0.75314824949E+01  0.38433608590E+00  0.22189602074E+01  0.78609622478E+01  0.51100000000E-03 0. -1.
        -11    1    4    4    0    0 -0.12694843006E+02 -0.91648461910E+01  0.20336337389E+02  0.25665542334E+02  0.51100000000E-03 0.  1.
         12    1    4    4    0    0 -0.19728509974E+02  0.51340219243E+01  0.43310664798E+01  0.20840595571E+02  0.00000000000E+00 0. -1.
</event>
<event>
 8    1  0.1238315E-006  0.9118800E+02  0.7816164E-02  0.1184000E+00
        -11   -1    0    0    0    0  0.00000000000E+00  0.00000000000E+00  0.45593999997E+02  0.45594000000E+02  0.51100000000E-03 0. -1.
         11   -1    0    0    0    0 -0.00000000000E+00 -0.00000000000E+00 -0.45593999997E+02  0.45594000000E+02  0.51100000000E-03 0.  1.
         23    2    1    2    0    0 -0.17763568394E-14  0.00000000000E+00  0.00000000000E+00  0.91188000000E+02  0.91188000000E+02 0.  0.
    9900012    2    3    3    0    0  0.10128834076E+02 -0.33811073207E+02 -0.10487996631E+02  0.54367081700E+02  0.39999994351E+02 0.  0.
         12    1    3    3    0    0 -0.10128834076E+02  0.33811073207E+02  0.10487996631E+02  0.36820918300E+02  0.00000000000E+00 0. -1.
         11    1    4    4    0    0  0.17227091982E+02 -0.70973146094E+01 -0.14743275391E+01  0.18690056575E+02  0.51100000000E-03 0. -1.
        -11    1    4    4    0    0  0.48206507170E+01 -0.37130596164E+00  0.12535098550E+01  0.49947801424E+01  0.51100000000E-03 0.  1.
         12    1    4    4    0    0 -0.11918908623E+02 -0.26342452636E+02 -0.10267178947E+02  0.30682244983E+02  0.00000000000E+00 0. -1.
</event>
<event>
 8    1  0.1238315E-006  0.9118800E+02  0.7816164E-02  0.1184000E+00
        -11   -1    0    0    0    0  0.00000000000E+00  0.00000000000E+00  0.45593999997E+02  0.45594000000E+02  0.51100000000E-03 0.  1.
         11   -1    0    0    0    0 -0.00000000000E+00 -0.00000000000E+00 -0.45593999997E+02  0.45594000000E+02  0.51100000000E-03 0. -1.
         23    2    1    2    0    0  0.88817841970E-15 -0.35527136788E-14  0.00000000000E+00  0.91188000000E+02  0.91188000000E+02 0.  0.
    9900012    2    3    3    0    0 -0.51460063807E+01  0.17338188013E+02  0.32073113172E+02  0.54367099227E+02  0.40000034307E+02 0.  0.
         12    1    3    3    0    0  0.51460063807E+01 -0.17338188013E+02 -0.32073113172E+02  0.36820900773E+02  0.00000000000E+00 0. -1.
         11    1    4    4    0    0 -0.20443550651E+01  0.12576744048E+02  0.96124099763E+00  0.12778022656E+02  0.51100000000E-03 0. -1.
        -11    1    4    4    0    0 -0.18431579253E+01  0.13356733121E+02  0.29923855708E+02  0.32821284123E+02  0.51100000000E-03 0.  1.
         12    1    4    4    0    0 -0.12584933903E+01 -0.85952891556E+01  0.11880164663E+01  0.87677924477E+01  0.00000000000E+00 0. -1.
</event>
<event>
 8    1  0.1238315E-006  0.9118800E+02  0.7816164E-02  0.1184000E+00
        -11   -1    0    0    0    0  0.00000000000E+00  0.00000000000E+00  0.45593999997E+02  0.45594000000E+02  0.51100000000E-03 0. -1.
         11   -1    0    0    0    0 -0.00000000000E+00 -0.00000000000E+00 -0.45593999997E+02  0.45594000000E+02  0.51100000000E-03 0.  1.
         23    2    1    2    0    0 -0.17763568394E-14  0.00000000000E+00  0.00000000000E+00  0.91188000000E+02  0.91188000000E+02 0.  0.
    9900012    2    3    3    0    0 -0.15455715318E+02 -0.60862861198E+01  0.32861196742E+02  0.54367078420E+02  0.39999986873E+02 0.  0.
        -12    1    3    3    0    0  0.15455715318E+02  0.60862861198E+01 -0.32861196742E+02  0.36820921580E+02  0.00000000000E+00 0.  1.
         11    1    4    4    0    0 -0.12570710389E+02 -0.75432835266E+01  0.17582648149E+02  0.22892649524E+02  0.51100000000E-03 0. -1.
        -11    1    4    4    0    0 -0.33572068206E+01  0.36399312539E+01  0.22953276925E+02  0.23481330010E+02  0.51100000000E-03 0.  1.
        -12    1    4    4    0    0  0.47220189152E+00 -0.21829338471E+01 -0.76747283327E+01  0.79930988852E+01  0.00000000000E+00 0.  1.
</event>
<event>
 8    1  0.1238315E-006  0.9118800E+02  0.7816164E-02  0.1184000E+00
        -11   -1    0    0    0    0  0.00000000000E+00  0.00000000000E+00  0.45593999997E+02  0.45594000000E+02  0.51100000000E-03 0.  1.
         11   -1    0    0    0    0 -0.00000000000E+00 -0.00000000000E+00 -0.45593999997E+02  0.45594000000E+02  0.51100000000E-03 0. -1.
         23    2    1    2    0    0  0.00000000000E+00  0.00000000000E+00  0.00000000000E+00  0.91188000000E+02  0.91188000000E+02 0.  0.
    9900012    2    3    3    0    0  0.10156621312E+02  0.16877919928E+02  0.31108803801E+02  0.54367098171E+02  0.40000031901E+02 0.  0.
         12    1    3    3    0    0 -0.10156621312E+02 -0.16877919928E+02 -0.31108803801E+02  0.36820901829E+02  0.00000000000E+00 0. -1.
         11    1    4    4    0    0 -0.62197514653E+01  0.78638476897E+01  0.27523860955E+01  0.10397164914E+02  0.51100000000E-03 0. -1.
        -11    1    4    4    0    0  0.11952318898E+02  0.13744487277E+02  0.31790647914E+02  0.36638970408E+02  0.51100000000E-03 0.  1.
        -12    1    4    4    0    0  0.44240538793E+01 -0.47304150382E+01 -0.34342302086E+01  0.73309628485E+01  0.00000000000E+00 0.  1.
</event>
<event>
 8    1  0.1238315E-006  0.9118800E+02  0.7816164E-02  0.1184000E+00
        -11   -1    0    0    0    0  0.00000000000E+00  0.00000000000E+00  0.45593999997E+02  0.45594000000E+02  0.51100000000E-03 0.  1.
         11   -1    0    0    0    0 -0.00000000000E+00 -0.00000000000E+00 -0.45593999997E+02  0.45594000000E+02  0.51100000000E-03 0. -1.
         23    2    1    2    0    0  0.00000000000E+00  0.00000000000E+00 -0.44408920985E-15  0.91188000000E+02  0.91188000000E+02 0.  0.
    9900012    2    3    3    0    0  0.20276205853E+02 -0.30668076360E+02  0.20310852866E+01  0.54367071999E+02  0.39999972237E+02 0.  0.
         12    1    3    3    0    0 -0.20276205853E+02  0.30668076360E+02 -0.20310852866E+01  0.36820928001E+02  0.00000000000E+00 0. -1.
         11    1    4    4    0    0  0.70203720540E+01 -0.31921564656E+02 -0.68064372893E+01  0.33385618202E+02  0.51100000000E-03 0. -1.
        -11    1    4    4    0    0  0.88800466886E+01 -0.10416323649E+00  0.12347839088E+02  0.15209707742E+02  0.51100000000E-03 0.  1.
         12    1    4    4    0    0  0.43757871101E+01  0.13576515328E+01 -0.35103165125E+01  0.57717460561E+01  0.00000000000E+00 0. -1.
</event>
<event>
 8    1  0.1238315E-006  0.9118800E+02  0.7816164E-02  0.1184000E+00
        -11   -1    0    0    0    0  0.00000000000E+00  0.00000000000E+00  0.45593999997E+02  0.45594000000E+02  0.51100000000E-03 0.  1.
         11   -1    0    0    0    0 -0.00000000000E+00 -0.00000000000E+00 -0.45593999997E+02  0.45594000000E+02  0.51100000000E-03 0. -1.
         23    2    1    2    0    0  0.00000000000E+00  0.00000000000E+00 -0.35527136788E-14  0.91188000000E+02  0.91188000000E+02 0.  0.
    9900012    2    3    3    0    0  0.17970063113E+02 -0.27472765793E+02 -0.16676453886E+02  0.54367080092E+02  0.39999990687E+02 0.  0.
        -12    1    3    3    0    0 -0.17970063113E+02  0.27472765793E+02  0.16676453886E+02  0.36820919908E+02  0.00000000000E+00 0.  1.
         11    1    4    4    0    0  0.27244770980E+00 -0.84876630759E+01  0.98575338303E+01  0.13010980967E+02  0.51100000000E-03 0.  1.
        -11    1    4    4    0    0  0.59027879383E+01 -0.15172056076E+02 -0.23510539221E+02  0.28596846780E+02  0.51100000000E-03 0. -1.
         12    1    4    4    0    0  0.11794827465E+02 -0.38130466417E+01 -0.30234484952E+01  0.12759252346E+02  0.00000000000E+00 0. -1.
</event>
<event>
 8    1  0.1238315E-006  0.9118800E+02  0.7816164E-02  0.1184000E+00
        -11   -1    0    0    0    0  0.00000000000E+00  0.00000000000E+00  0.45593999997E+02  0.45594000000E+02  0.51100000000E-03 0.  1.
         11   -1    0    0    0    0 -0.00000000000E+00 -0.00000000000E+00 -0.45593999997E+02  0.45594000000E+02  0.51100000000E-03 0. -1.
         23    2    1    2    0    0 -0.44408920985E-15  0.00000000000E+00  0.00000000000E+00  0.91188000000E+02  0.91188000000E+02 0.  0.
    9900012    2    3    3    0    0  0.23244913722E+01 -0.29623574212E+02  0.21744423033E+02  0.54367090963E+02  0.40000015469E+02 0.  0.
         12    1    3    3    0    0 -0.23244913722E+01  0.29623574212E+02 -0.21744423033E+02  0.36820909037E+02  0.00000000000E+00 0. -1.
         11    1    4    4    0    0  0.28649401140E+01 -0.23136800326E+01  0.10044513208E+02  0.10698282245E+02  0.51100000000E-03 0. -1.
        -11    1    4    4    0    0  0.94687761214E+01 -0.25386038367E+02  0.17194311572E+02  0.32089764971E+02  0.51100000000E-03 0.  1.
        -12    1    4    4    0    0 -0.10009224863E+02 -0.19238558122E+01 -0.54944017465E+01  0.11579043747E+02  0.00000000000E+00 0.  1.
</event>
<event>
 8    1  0.1238315E-006  0.9118800E+02  0.7816164E-02  0.1184000E+00
        -11   -1    0    0    0    0  0.00000000000E+00  0.00000000000E+00  0.45593999997E+02  0.45594000000E+02  0.51100000000E-03 0.  1.
         11   -1    0    0    0    0 -0.00000000000E+00 -0.00000000000E+00 -0.45593999997E+02  0.45594000000E+02  0.51100000000E-03 0. -1.
         23    2    1    2    0    0  0.35527136788E-14  0.00000000000E+00 -0.35527136788E-14  0.91188000000E+02  0.91188000000E+02 0.  0.
    9900012    2    3    3    0    0  0.22966662027E+02 -0.38233506922E+01 -0.28525319084E+02  0.54367090125E+02  0.40000013557E+02 0.  0.
        -12    1    3    3    0    0 -0.22966662027E+02  0.38233506922E+01  0.28525319084E+02  0.36820909875E+02  0.00000000000E+00 0.  1.
         11    1    4    4    0    0  0.19091263545E+02  0.32747112470E+01 -0.10239056188E+02  0.21909777484E+02  0.51100000000E-03 0. -1.
        -11    1    4    4    0    0  0.20725728243E+01 -0.15626056863E+02 -0.49438134532E+01  0.16520003115E+02  0.51100000000E-03 0.  1.
        -12    1    4    4    0    0  0.18028256576E+01  0.85279949241E+01 -0.13342449443E+02  0.15937309525E+02  0.00000000000E+00 0.  1.
</event>
<event>
 8    1  0.1238315E-006  0.9118800E+02  0.7816164E-02  0.1184000E+00
        -11   -1    0    0    0    0  0.00000000000E+00  0.00000000000E+00  0.45593999997E+02  0.45594000000E+02  0.51100000000E-03 0.  1.
         11   -1    0    0    0    0 -0.00000000000E+00 -0.00000000000E+00 -0.45593999997E+02  0.45594000000E+02  0.51100000000E-03 0. -1.
         23    2    1    2    0    0  0.17763568394E-14  0.17763568394E-14  0.00000000000E+00  0.91188000000E+02  0.91188000000E+02 0.  0.
    9900012    2    3    3    0    0 -0.13141776784E+02  0.10761261376E+02  0.32669068291E+02  0.54367094709E+02  0.40000024008E+02 0.  0.
         12    1    3    3    0    0  0.13141776784E+02 -0.10761261376E+02 -0.32669068291E+02  0.36820905291E+02  0.00000000000E+00 0. -1.
         11    1    4    4    0    0  0.33829268022E+01  0.21146554364E+02  0.11359737912E+02  0.24241794507E+02  0.51100000000E-03 0. -1.
        -11    1    4    4    0    0 -0.12804436244E+02 -0.52318463042E+01  0.18687759667E+02  0.23249906772E+02  0.51100000000E-03 0.  1.
         12    1    4    4    0    0 -0.37202673419E+01 -0.51534466837E+01  0.26215707121E+01  0.68753934299E+01  0.00000000000E+00 0. -1.
</event>
<event>
 8    1  0.1238315E-006  0.9118800E+02  0.7816164E-02  0.1184000E+00
        -11   -1    0    0    0    0  0.00000000000E+00  0.00000000000E+00  0.45593999997E+02  0.45594000000E+02  0.51100000000E-03 0. -1.
         11   -1    0    0    0    0 -0.00000000000E+00 -0.00000000000E+00 -0.45593999997E+02  0.45594000000E+02  0.51100000000E-03 0.  1.
         23    2    1    2    0    0  0.00000000000E+00 -0.11102230246E-14 -0.11102230246E-15  0.91188000000E+02  0.91188000000E+02 0.  0.
    9900012    2    3    3    0    0  0.36809389064E+02 -0.89639705481E+00 -0.21295975567E+00  0.54367081994E+02  0.39999995022E+02 0.  0.
        -12    1    3    3    0    0 -0.36809389064E+02  0.89639705481E+00  0.21295975567E+00  0.36820918006E+02  0.00000000000E+00 0.  1.
         11    1    4    4    0    0  0.20177873199E+02 -0.12767649832E+02 -0.55415441866E+01  0.24512612290E+02  0.51100000000E-03 0. -1.
        -11    1    4    4    0    0 -0.37597012981E+01  0.76868518576E+01  0.17073682361E+01  0.87257178436E+01  0.51100000000E-03 0.  1.
        -12    1    4    4    0    0  0.20391217163E+02  0.41844009198E+01  0.36212161948E+01  0.21128751860E+02  0.00000000000E+00 0.  1.
</event>
<event>
 8    1  0.1238315E-006  0.9118800E+02  0.7816164E-02  0.1184000E+00
        -11   -1    0    0    0    0  0.00000000000E+00  0.00000000000E+00  0.45593999997E+02  0.45594000000E+02  0.51100000000E-03 0. -1.
         11   -1    0    0    0    0 -0.00000000000E+00 -0.00000000000E+00 -0.45593999997E+02  0.45594000000E+02  0.51100000000E-03 0.  1.
         23    2    1    2    0    0  0.00000000000E+00 -0.35527136788E-14  0.00000000000E+00  0.91188000000E+02  0.91188000000E+02 0.  0.
    9900012    2    3    3    0    0  0.16253041792E+02  0.18586490136E+02  0.27315789216E+02  0.54367199852E+02  0.40000263702E+02 0.  0.
        -12    1    3    3    0    0 -0.16253041792E+02 -0.18586490136E+02 -0.27315789216E+02  0.36820800148E+02  0.00000000000E+00 0.  1.
         11    1    4    4    0    0  0.44385843846E+01  0.42332853535E+01 -0.52545629433E+01  0.80766433751E+01  0.51100000000E-03 0. -1.
        -11    1    4    4    0    0  0.15081863064E+02 -0.28585406103E+01  0.14328749431E+02  0.20998735877E+02  0.51100000000E-03 0.  1.
         12    1    4    4    0    0 -0.32674056567E+01  0.17211745393E+02  0.18241602728E+02  0.25291820600E+02  0.00000000000E+00 0. -1.
</event>
<event>
 8    1  0.1238315E-006  0.9118800E+02  0.7816164E-02  0.1184000E+00
        -11   -1    0    0    0    0  0.00000000000E+00  0.00000000000E+00  0.45593999997E+02  0.45594000000E+02  0.51100000000E-03 0.  1.
         11   -1    0    0    0    0 -0.00000000000E+00 -0.00000000000E+00 -0.45593999997E+02  0.45594000000E+02  0.51100000000E-03 0. -1.
         23    2    1    2    0    0  0.00000000000E+00  0.00000000000E+00  0.17763568394E-14  0.91188000000E+02  0.91188000000E+02 0.  0.
    9900012    2    3    3    0    0 -0.96651279116E+01 -0.32235195014E+02  0.14941810121E+02  0.54367079522E+02  0.39999989387E+02 0.  0.
         12    1    3    3    0    0  0.96651279116E+01  0.32235195014E+02 -0.14941810121E+02  0.36820920478E+02  0.00000000000E+00 0. -1.
         11    1    4    4    0    0 -0.14728117560E+02 -0.25594298278E+02  0.11121850009E+02  0.31554414891E+02  0.51100000000E-03 0.  1.
        -11    1    4    4    0    0 -0.50884712348E+01  0.48762687202E+01  0.21570047095E+01  0.73704277839E+01  0.51100000000E-03 0. -1.
         12    1    4    4    0    0  0.10151460883E+02 -0.11517165456E+02  0.16629554030E+01  0.15442236848E+02  0.00000000000E+00 0. -1.
</event>
<event>
 8    1  0.1238315E-006  0.9118800E+02  0.7816164E-02  0.1184000E+00
        -11   -1    0    0    0    0  0.00000000000E+00  0.00000000000E+00  0.45593999997E+02  0.45594000000E+02  0.51100000000E-03 0.  1.
         11   -1    0    0    0    0 -0.00000000000E+00 -0.00000000000E+00 -0.45593999997E+02  0.45594000000E+02  0.51100000000E-03 0. -1.
         23    2    1    2    0    0  0.17763568394E-14  0.35527136788E-14  0.35527136788E-14  0.91188000000E+02  0.91188000000E+02 0.  0.
    9900012    2    3    3    0    0 -0.10364311386E+02 -0.22052333213E+02 -0.27605331781E+02  0.54367099775E+02  0.40000035558E+02 0.  0.
        -12    1    3    3    0    0  0.10364311386E+02  0.22052333213E+02  0.27605331781E+02  0.36820900225E+02  0.00000000000E+00 0.  1.
         11    1    4    4    0    0 -0.85064631091E+01  0.36511226040E+01 -0.11964871250E+02  0.15127747856E+02  0.51100000000E-03 0. -1.
        -11    1    4    4    0    0 -0.42963303375E+01  0.23845076764E+01 -0.90312413798E+01  0.10281422681E+02  0.51100000000E-03 0.  1.
        -12    1    4    4    0    0  0.24384820607E+01 -0.28087963494E+02 -0.66092191503E+01  0.28957929238E+02  0.00000000000E+00 0.  1.
</event>
<event>
 8    1  0.1238315E-006  0.9118800E+02  0.7816164E-02  0.1184000E+00
        -11   -1    0    0    0    0  0.00000000000E+00  0.00000000000E+00  0.45593999997E+02  0.45594000000E+02  0.51100000000E-03 0.  1.
         11   -1    0    0    0    0 -0.00000000000E+00 -0.00000000000E+00 -0.45593999997E+02  0.45594000000E+02  0.51100000000E-03 0. -1.
         23    2    1    2    0    0 -0.35527136788E-14  0.35527136788E-14  0.35527136788E-14  0.91188000000E+02  0.91188000000E+02 0.  0.
    9900012    2    3    3    0    0 -0.12602930187E+02  0.29558518487E+02  0.17978915381E+02  0.54367064885E+02  0.39999956018E+02 0.  0.
         12    1    3    3    0    0  0.12602930187E+02 -0.29558518487E+02 -0.17978915381E+02  0.36820935115E+02  0.00000000000E+00 0. -1.
         11    1    4    4    0    0  0.72546495544E+01 -0.48365240500E+01  0.97090378455E+01  0.13049418423E+02  0.51100000000E-03 0. -1.
        -11    1    4    4    0    0 -0.12684857609E+01  0.66239396825E-01 -0.39240318231E+00  0.13294451105E+01  0.51100000000E-03 0.  1.
        -12    1    4    4    0    0 -0.18589093980E+02  0.34328803140E+02  0.86622807182E+01  0.39988201351E+02  0.00000000000E+00 0.  1.
</event>
<event>
 8    1  0.1238315E-006  0.9118800E+02  0.7816164E-02  0.1184000E+00
        -11   -1    0    0    0    0  0.00000000000E+00  0.00000000000E+00  0.45593999997E+02  0.45594000000E+02  0.51100000000E-03 0. -1.
         11   -1    0    0    0    0 -0.00000000000E+00 -0.00000000000E+00 -0.45593999997E+02  0.45594000000E+02  0.51100000000E-03 0.  1.
         23    2    1    2    0    0 -0.88817841970E-15  0.00000000000E+00  0.00000000000E+00  0.91188000000E+02  0.91188000000E+02 0.  0.
    9900012    2    3    3    0    0 -0.29516880036E+01 -0.11862393876E+02 -0.34732651586E+02  0.54367001416E+02  0.39999811327E+02 0.  0.
         12    1    3    3    0    0  0.29516880036E+01  0.11862393876E+02  0.34732651586E+02  0.36820998584E+02  0.00000000000E+00 0. -1.
         11    1    4    4    0    0 -0.13696123917E+02  0.60964936121E+01 -0.13051161684E+02  0.19876716688E+02  0.51100000000E-03 0. -1.
        -11    1    4    4    0    0 -0.22392607044E+01 -0.12560666949E+02 -0.10037766099E+02  0.16233957965E+02  0.51100000000E-03 0.  1.
        -12    1    4    4    0    0  0.12983696618E+02 -0.53982205385E+01 -0.11643723803E+02  0.18256326762E+02  0.00000000000E+00 0.  1.
</event>
<event>
 8    1  0.1238315E-006  0.9118800E+02  0.7816164E-02  0.1184000E+00
        -11   -1    0    0    0    0  0.00000000000E+00  0.00000000000E+00  0.45593999997E+02  0.45594000000E+02  0.51100000000E-03 0.  1.
         11   -1    0    0    0    0 -0.00000000000E+00 -0.00000000000E+00 -0.45593999997E+02  0.45594000000E+02  0.51100000000E-03 0. -1.
         23    2    1    2    0    0  0.17763568394E-14  0.00000000000E+00  0.00000000000E+00  0.91188000000E+02  0.91188000000E+02 0.  0.
    9900012    2    3    3    0    0  0.14527078053E+02 -0.42778829851E+01 -0.33562534834E+02  0.54367081705E+02  0.39999994363E+02 0.  0.
        -12    1    3    3    0    0 -0.14527078053E+02  0.42778829851E+01  0.33562534834E+02  0.36820918295E+02  0.00000000000E+00 0.  1.
         11    1    4    4    0    0 -0.12394055467E+01  0.77092235019E+00  0.79057906062E+01  0.80394012681E+01  0.51100000000E-03 0. -1.
        -11    1    4    4    0    0  0.95213075399E+01  0.34326506541E+01 -0.20571511100E+02  0.22926523002E+02  0.51100000000E-03 0.  1.
         12    1    4    4    0    0  0.62451760602E+01 -0.84814559894E+01 -0.20896814340E+02  0.23401157435E+02  0.00000000000E+00 0. -1.
</event>
<event>
 8    1  0.1238315E-006  0.9118800E+02  0.7816164E-02  0.1184000E+00
        -11   -1    0    0    0    0  0.00000000000E+00  0.00000000000E+00  0.45593999997E+02  0.45594000000E+02  0.51100000000E-03 0. -1.
         11   -1    0    0    0    0 -0.00000000000E+00 -0.00000000000E+00 -0.45593999997E+02  0.45594000000E+02  0.51100000000E-03 0.  1.
         23    2    1    2    0    0  0.72858385991E-16  0.00000000000E+00  0.00000000000E+00  0.91188000000E+02  0.91188000000E+02 0.  0.
    9900012    2    3    3    0    0 -0.21019243360E-01 -0.32288669495E+02 -0.17698002762E+02  0.54367110259E+02  0.40000059458E+02 0.  0.
         12    1    3    3    0    0  0.21019243360E-01  0.32288669495E+02  0.17698002762E+02  0.36820889741E+02  0.00000000000E+00 0. -1.
         11    1    4    4    0    0 -0.59434779825E+01 -0.29146367653E+02 -0.21988198431E+02  0.36990763014E+02  0.51100000000E-03 0. -1.
        -11    1    4    4    0    0  0.25728831166E+01  0.46899615531E+00 -0.56814752519E+01  0.62545060735E+01  0.51100000000E-03 0.  1.
         12    1    4    4    0    0  0.33495756225E+01 -0.36112979972E+01  0.99716709215E+01  0.11121841171E+02  0.00000000000E+00 0. -1.
</event>
<event>
 8    1  0.1238315E-006  0.9118800E+02  0.7816164E-02  0.1184000E+00
        -11   -1    0    0    0    0  0.00000000000E+00  0.00000000000E+00  0.45593999997E+02  0.45594000000E+02  0.51100000000E-03 0. -1.
         11   -1    0    0    0    0 -0.00000000000E+00 -0.00000000000E+00 -0.45593999997E+02  0.45594000000E+02  0.51100000000E-03 0.  1.
         23    2    1    2    0    0  0.00000000000E+00 -0.35527136788E-14  0.35527136788E-14  0.91188000000E+02  0.91188000000E+02 0.  0.
    9900012    2    3    3    0    0 -0.14288029905E+02 -0.28572817090E+02  0.18309172145E+02  0.54367089369E+02  0.40000011835E+02 0.  0.
         12    1    3    3    0    0  0.14288029905E+02  0.28572817090E+02 -0.18309172145E+02  0.36820910631E+02  0.00000000000E+00 0. -1.
         11    1    4    4    0    0  0.55214303631E+01 -0.79048384354E+01 -0.50668811704E+01  0.10892472125E+02  0.51100000000E-03 0. -1.
        -11    1    4    4    0    0 -0.22351552255E+02 -0.12431506643E+02  0.97919363819E+01  0.27386424812E+02  0.51100000000E-03 0.  1.
         12    1    4    4    0    0  0.25420919865E+01 -0.82364720121E+01  0.13584116933E+02  0.16088192432E+02  0.00000000000E+00 0. -1.
</event>
<event>
 8    1  0.1238315E-006  0.9118800E+02  0.7816164E-02  0.1184000E+00
        -11   -1    0    0    0    0  0.00000000000E+00  0.00000000000E+00  0.45593999997E+02  0.45594000000E+02  0.51100000000E-03 0.  1.
         11   -1    0    0    0    0 -0.00000000000E+00 -0.00000000000E+00 -0.45593999997E+02  0.45594000000E+02  0.51100000000E-03 0. -1.
         23    2    1    2    0    0  0.14210854715E-13 -0.17763568394E-14  0.11102230246E-15  0.91188000000E+02  0.91188000000E+02 0.  0.
    9900012    2    3    3    0    0  0.33276778133E+02 -0.15730407704E+02 -0.99998662466E+00  0.54366950820E+02  0.39999695984E+02 0.  0.
        -12    1    3    3    0    0 -0.33276778133E+02  0.15730407704E+02  0.99998662466E+00  0.36821049180E+02  0.00000000000E+00 0.  1.
         11    1    4    4    0    0  0.10377571319E+02 -0.21595638750E+01 -0.10083070486E+02  0.14629627928E+02  0.51100000000E-03 0. -1.
        -11    1    4    4    0    0 -0.60531730393E+01 -0.20701680748E+01  0.53917483150E+01  0.83664478637E+01  0.51100000000E-03 0.  1.
        -12    1    4    4    0    0  0.28952379853E+02 -0.11500675754E+02  0.36913355464E+01  0.31370875029E+02  0.00000000000E+00 0.  1.
</event>
<event>
 8    1  0.1238315E-006  0.9118800E+02  0.7816164E-02  0.1184000E+00
        -11   -1    0    0    0    0  0.00000000000E+00  0.00000000000E+00  0.45593999997E+02  0.45594000000E+02  0.51100000000E-03 0.  1.
         11   -1    0    0    0    0 -0.00000000000E+00 -0.00000000000E+00 -0.45593999997E+02  0.45594000000E+02  0.51100000000E-03 0. -1.
         23    2    1    2    0    0  0.00000000000E+00  0.00000000000E+00  0.00000000000E+00  0.91188000000E+02  0.91188000000E+02 0.  0.
    9900012    2    3    3    0    0 -0.17695592974E+02 -0.25959883032E+02  0.19202349084E+02  0.54367085453E+02  0.40000002907E+02 0.  0.
         12    1    3    3    0    0  0.17695592974E+02  0.25959883032E+02 -0.19202349084E+02  0.36820914547E+02  0.00000000000E+00 0. -1.
         11    1    4    4    0    0 -0.27643820209E+01 -0.13432052291E+02 -0.65738367362E+01  0.15207799525E+02  0.51100000000E-03 0. -1.
        -11    1    4    4    0    0 -0.36668296911E-01  0.58329927893E+01  0.53552995726E+01  0.79186099297E+01  0.51100000000E-03 0.  1.
        -12    1    4    4    0    0 -0.14894542656E+02 -0.18360823530E+02  0.20420886248E+02  0.31240675998E+02  0.00000000000E+00 0.  1.
</event>
<event>
 8    1  0.1238315E-006  0.9118800E+02  0.7816164E-02  0.1184000E+00
        -11   -1    0    0    0    0  0.00000000000E+00  0.00000000000E+00  0.45593999997E+02  0.45594000000E+02  0.51100000000E-03 0. -1.
         11   -1    0    0    0    0 -0.00000000000E+00 -0.00000000000E+00 -0.45593999997E+02  0.45594000000E+02  0.51100000000E-03 0.  1.
         23    2    1    2    0    0  0.00000000000E+00  0.00000000000E+00 -0.17763568394E-14  0.91188000000E+02  0.91188000000E+02 0.  0.
    9900012    2    3    3    0    0  0.21023950008E+02  0.29905073415E+02  0.44118925234E+01  0.54367018406E+02  0.39999850060E+02 0.  0.
        -12    1    3    3    0    0 -0.21023950008E+02 -0.29905073415E+02 -0.44118925234E+01  0.36820981594E+02  0.00000000000E+00 0.  1.
         11    1    4    4    0    0  0.31960545944E+01 -0.25434197024E+01  0.46329199198E+01  0.61763821124E+01  0.51100000000E-03 0.  1.
        -11    1    4    4    0    0  0.24417776476E+02  0.26696218929E+02 -0.73358497031E+01  0.36915181217E+02  0.51100000000E-03 0. -1.
         12    1    4    4    0    0 -0.65898810619E+01  0.57522741880E+01  0.71148223067E+01  0.11275455077E+02  0.00000000000E+00 0. -1.
</event>
<event>
 8    1  0.1238315E-006  0.9118800E+02  0.7816164E-02  0.1184000E+00
        -11   -1    0    0    0    0  0.00000000000E+00  0.00000000000E+00  0.45593999997E+02  0.45594000000E+02  0.51100000000E-03 0.  1.
         11   -1    0    0    0    0 -0.00000000000E+00 -0.00000000000E+00 -0.45593999997E+02  0.45594000000E+02  0.51100000000E-03 0. -1.
         23    2    1    2    0    0 -0.71054273576E-14  0.00000000000E+00 -0.17763568394E-14  0.91188000000E+02  0.91188000000E+02 0.  0.
    9900012    2    3    3    0    0  0.34743912279E+02  0.58619678449E+01  0.10690422617E+02  0.54366983675E+02  0.39999770883E+02 0.  0.
         12    1    3    3    0    0 -0.34743912279E+02 -0.58619678449E+01 -0.10690422617E+02  0.36821016325E+02  0.00000000000E+00 0. -1.
         11    1    4    4    0    0 -0.34099386550E+01  0.66038107380E+01 -0.60341342403E+01  0.95733366276E+01  0.51100000000E-03 0. -1.
        -11    1    4    4    0    0  0.36591094901E+02 -0.27800141310E+01  0.19034422364E+02  0.41339399362E+02  0.51100000000E-03 0.  1.
        -12    1    4    4    0    0  0.15627560329E+01  0.20381712378E+01 -0.23098655065E+01  0.34542476853E+01  0.00000000000E+00 0.  1.
</event>
<event>
 8    1  0.1238315E-006  0.9118800E+02  0.7816164E-02  0.1184000E+00
        -11   -1    0    0    0    0  0.00000000000E+00  0.00000000000E+00  0.45593999997E+02  0.45594000000E+02  0.51100000000E-03 0.  1.
         11   -1    0    0    0    0 -0.00000000000E+00 -0.00000000000E+00 -0.45593999997E+02  0.45594000000E+02  0.51100000000E-03 0. -1.
         23    2    1    2    0    0  0.35527136788E-14  0.00000000000E+00  0.88817841970E-15  0.91188000000E+02  0.91188000000E+02 0.  0.
    9900012    2    3    3    0    0 -0.23413747141E+02 -0.27722679990E+02  0.62473797084E+01  0.54367078037E+02  0.39999986000E+02 0.  0.
         12    1    3    3    0    0  0.23413747141E+02  0.27722679990E+02 -0.62473797084E+01  0.36820921963E+02  0.00000000000E+00 0. -1.
         11    1    4    4    0    0 -0.34757481764E+01 -0.28754302032E+02  0.12409042483E+02  0.31509919809E+02  0.51100000000E-03 0. -1.
        -11    1    4    4    0    0 -0.68421211730E+00 -0.20579583825E+01  0.54469584476E+00  0.22360753006E+01  0.51100000000E-03 0.  1.
         12    1    4    4    0    0 -0.19253786847E+02  0.30895804248E+01 -0.67063586192E+01  0.20621082927E+02  0.00000000000E+00 0. -1.
</event>
<event>
 8    1  0.1238315E-006  0.9118800E+02  0.7816164E-02  0.1184000E+00
        -11   -1    0    0    0    0  0.00000000000E+00  0.00000000000E+00  0.45593999997E+02  0.45594000000E+02  0.51100000000E-03 0. -1.
         11   -1    0    0    0    0 -0.00000000000E+00 -0.00000000000E+00 -0.45593999997E+02  0.45594000000E+02  0.51100000000E-03 0.  1.
         23    2    1    2    0    0  0.24424906542E-14  0.35527136788E-14 -0.35527136788E-14  0.91188000000E+02  0.91188000000E+02 0.  0.
    9900012    2    3    3    0    0  0.17518971644E+01  0.28053932354E+02 -0.23784159809E+02  0.54367102101E+02  0.40000040861E+02 0.  0.
         12    1    3    3    0    0 -0.17518971644E+01 -0.28053932354E+02  0.23784159809E+02  0.36820897899E+02  0.00000000000E+00 0. -1.
         11    1    4    4    0    0  0.11628394747E+02  0.16071086706E+02 -0.82651604900E+01  0.21489817833E+02  0.51100000000E-03 0. -1.
        -11    1    4    4    0    0  0.66035365136E+01 -0.22831835041E+01 -0.54788327106E+01  0.88790331417E+01  0.51100000000E-03 0.  1.
        -12    1    4    4    0    0 -0.16480034097E+02  0.14266029152E+02 -0.10040166609E+02  0.23998251126E+02  0.00000000000E+00 0.  1.
</event>
<event>
 8    1  0.1238315E-006  0.9118800E+02  0.7816164E-02  0.1184000E+00
        -11   -1    0    0    0    0  0.00000000000E+00  0.00000000000E+00  0.45593999997E+02  0.45594000000E+02  0.51100000000E-03 0. -1.
         11   -1    0    0    0    0 -0.00000000000E+00 -0.00000000000E+00 -0.45593999997E+02  0.45594000000E+02  0.51100000000E-03 0.  1.
         23    2    1    2    0    0  0.66613381478E-15  0.35527136788E-14  0.00000000000E+00  0.91188000000E+02  0.91188000000E+02 0.  0.
    9900012    2    3    3    0    0 -0.61355249648E+00  0.21884986744E+02  0.29604927813E+02  0.54367070595E+02  0.39999969035E+02 0.  0.
        -12    1    3    3    0    0  0.61355249648E+00 -0.21884986744E+02 -0.29604927813E+02  0.36820929405E+02  0.00000000000E+00 0.  1.
         11    1    4    4    0    0 -0.24280969908E+01 -0.12122424257E+01 -0.89142192805E+00  0.28565398668E+01  0.51100000000E-03 0. -1.
        -11    1    4    4    0    0  0.24618927520E+01  0.11114844803E+02 -0.61572297319E+01  0.12942649232E+02  0.51100000000E-03 0.  1.
         12    1    4    4    0    0 -0.64734825763E+00  0.11982384366E+02  0.36653579473E+02  0.38567881496E+02  0.00000000000E+00 0. -1.
</event>
<event>
 8    1  0.1238315E-006  0.9118800E+02  0.7816164E-02  0.1184000E+00
        -11   -1    0    0    0    0  0.00000000000E+00  0.00000000000E+00  0.45593999997E+02  0.45594000000E+02  0.51100000000E-03 0.  1.
         11   -1    0    0    0    0 -0.00000000000E+00 -0.00000000000E+00 -0.45593999997E+02  0.45594000000E+02  0.51100000000E-03 0. -1.
         23    2    1    2    0    0  0.00000000000E+00  0.00000000000E+00 -0.71054273576E-14  0.91188000000E+02  0.91188000000E+02 0.  0.
    9900012    2    3    3    0    0  0.16572893070E+02  0.17277063719E+02 -0.27975378730E+02  0.54367088407E+02  0.40000009641E+02 0.  0.
        -12    1    3    3    0    0 -0.16572893070E+02 -0.17277063719E+02  0.27975378730E+02  0.36820911593E+02  0.00000000000E+00 0.  1.
         11    1    4    4    0    0 -0.52721988557E+00 -0.51105290197E+01 -0.12909055613E+02  0.13893854207E+02  0.51100000000E-03 0. -1.
        -11    1    4    4    0    0  0.19812935066E+02  0.13873429287E+02 -0.15069501419E+01  0.24234177005E+02  0.51100000000E-03 0.  1.
        -12    1    4    4    0    0 -0.27128221102E+01  0.85141634516E+01 -0.13559372975E+02  0.16239057195E+02  0.00000000000E+00 0.  1.
</event>
<event>
 8    1  0.1238315E-006  0.9118800E+02  0.7816164E-02  0.1184000E+00
        -11   -1    0    0    0    0  0.00000000000E+00  0.00000000000E+00  0.45593999997E+02  0.45594000000E+02  0.51100000000E-03 0. -1.
         11   -1    0    0    0    0 -0.00000000000E+00 -0.00000000000E+00 -0.45593999997E+02  0.45594000000E+02  0.51100000000E-03 0.  1.
         23    2    1    2    0    0 -0.35527136788E-14  0.35527136788E-14 -0.44408920985E-15  0.91188000000E+02  0.91188000000E+02 0.  0.
    9900012    2    3    3    0    0  0.22508684135E+02 -0.29066609378E+02 -0.20670590474E+01  0.54367063356E+02  0.39999952534E+02 0.  0.
         12    1    3    3    0    0 -0.22508684135E+02  0.29066609378E+02  0.20670590474E+01  0.36820936644E+02  0.00000000000E+00 0. -1.
         11    1    4    4    0    0 -0.94867387421E+01 -0.29166520528E+01  0.10518500860E+01  0.99805540939E+01  0.51100000000E-03 0. -1.
        -11    1    4    4    0    0  0.12661131366E+02 -0.15661813033E+02 -0.83098479260E+01  0.21786468456E+02  0.51100000000E-03 0.  1.
        -12    1    4    4    0    0  0.19334291511E+02 -0.10488144291E+02  0.51909387927E+01  0.22600040806E+02  0.00000000000E+00 0.  1.
</event>
<event>
 8    1  0.1238315E-006  0.9118800E+02  0.7816164E-02  0.1184000E+00
        -11   -1    0    0    0    0  0.00000000000E+00  0.00000000000E+00  0.45593999997E+02  0.45594000000E+02  0.51100000000E-03 0.  1.
         11   -1    0    0    0    0 -0.00000000000E+00 -0.00000000000E+00 -0.45593999997E+02  0.45594000000E+02  0.51100000000E-03 0. -1.
         23    2    1    2    0    0 -0.35527136788E-14  0.00000000000E+00 -0.88817841970E-15  0.91188000000E+02  0.91188000000E+02 0.  0.
    9900012    2    3    3    0    0 -0.21901413444E+02  0.29220136713E+02 -0.47216618168E+01  0.54367049568E+02  0.39999921101E+02 0.  0.
        -12    1    3    3    0    0  0.21901413444E+02 -0.29220136713E+02  0.47216618168E+01  0.36820950432E+02  0.00000000000E+00 0.  1.
         11    1    4    4    0    0 -0.79799541367E+01  0.49684600949E+01 -0.15225609988E+01  0.95227861467E+01  0.51100000000E-03 0. -1.
        -11    1    4    4    0    0 -0.48585618593E+01 -0.50063184220E+01  0.94158753460E+01  0.11718684068E+02  0.51100000000E-03 0.  1.
         12    1    4    4    0    0 -0.90628974478E+01  0.29257995040E+02 -0.12614976164E+02  0.33125579354E+02  0.00000000000E+00 0. -1.
</event>
<event>
 8    1  0.1238315E-006  0.9118800E+02  0.7816164E-02  0.1184000E+00
        -11   -1    0    0    0    0  0.00000000000E+00  0.00000000000E+00  0.45593999997E+02  0.45594000000E+02  0.51100000000E-03 0.  1.
         11   -1    0    0    0    0 -0.00000000000E+00 -0.00000000000E+00 -0.45593999997E+02  0.45594000000E+02  0.51100000000E-03 0. -1.
         23    2    1    2    0    0  0.00000000000E+00  0.00000000000E+00  0.63837823916E-15  0.91188000000E+02  0.91188000000E+02 0.  0.
    9900012    2    3    3    0    0  0.72524984178E+01  0.36098988701E+02  0.21041099965E+00  0.54367082150E+02  0.39999995378E+02 0.  0.
        -12    1    3    3    0    0 -0.72524984178E+01 -0.36098988701E+02 -0.21041099965E+00  0.36820917850E+02  0.00000000000E+00 0.  1.
         11    1    4    4    0    0  0.12233075196E+02  0.22060468731E+02 -0.13530889785E+02  0.28625118130E+02  0.51100000000E-03 0. -1.
        -11    1    4    4    0    0  0.37041096058E+01  0.87930231668E+01  0.12186945221E+02  0.15477703914E+02  0.51100000000E-03 0.  1.
         12    1    4    4    0    0 -0.86846863835E+01  0.52454968034E+01  0.15543555640E+01  0.10264260105E+02  0.00000000000E+00 0. -1.
</event>
<event>
 8    1  0.1238315E-006  0.9118800E+02  0.7816164E-02  0.1184000E+00
        -11   -1    0    0    0    0  0.00000000000E+00  0.00000000000E+00  0.45593999997E+02  0.45594000000E+02  0.51100000000E-03 0.  1.
         11   -1    0    0    0    0 -0.00000000000E+00 -0.00000000000E+00 -0.45593999997E+02  0.45594000000E+02  0.51100000000E-03 0. -1.
         23    2    1    2    0    0  0.00000000000E+00 -0.35527136788E-14  0.00000000000E+00  0.91188000000E+02  0.91188000000E+02 0.  0.
    9900012    2    3    3    0    0  0.55860875688E+01  0.17601291021E+02  0.31855452895E+02  0.54367086119E+02  0.40000004425E+02 0.  0.
         12    1    3    3    0    0 -0.55860875688E+01 -0.17601291021E+02 -0.31855452895E+02  0.36820913881E+02  0.00000000000E+00 0. -1.
         11    1    4    4    0    0  0.54374104571E-01  0.15554216300E+02  0.97002791525E-01  0.15554613819E+02  0.51100000000E-03 0. -1.
        -11    1    4    4    0    0 -0.54910656736E+01 -0.63592990824E+01  0.13224435760E+02  0.15667743567E+02  0.51100000000E-03 0.  1.
        -12    1    4    4    0    0  0.11022779138E+02  0.84063738035E+01  0.18534014343E+02  0.23144728733E+02  0.00000000000E+00 0.  1.
</event>
<event>
 8    1  0.1238315E-006  0.9118800E+02  0.7816164E-02  0.1184000E+00
        -11   -1    0    0    0    0  0.00000000000E+00  0.00000000000E+00  0.45593999997E+02  0.45594000000E+02  0.51100000000E-03 0.  1.
         11   -1    0    0    0    0 -0.00000000000E+00 -0.00000000000E+00 -0.45593999997E+02  0.45594000000E+02  0.51100000000E-03 0. -1.
         23    2    1    2    0    0  0.00000000000E+00 -0.35527136788E-14 -0.17763568394E-14  0.91188000000E+02  0.91188000000E+02 0.  0.
    9900012    2    3    3    0    0 -0.22345713209E+02  0.26636473577E+02 -0.12122253028E+02  0.54367059736E+02  0.39999944280E+02 0.  0.
        -12    1    3    3    0    0  0.22345713209E+02 -0.26636473577E+02  0.12122253028E+02  0.36820940264E+02  0.00000000000E+00 0.  1.
         11    1    4    4    0    0 -0.29219055972E+01  0.18321523563E+02  0.69509656613E+01  0.19812412318E+02  0.51100000000E-03 0. -1.
        -11    1    4    4    0    0  0.30325720188E+01  0.29837592783E+01  0.51110653302E+00  0.42849203761E+01  0.51100000000E-03 0.  1.
         12    1    4    4    0    0 -0.22456379631E+02  0.53311907360E+01 -0.19584325222E+02  0.30269727042E+02  0.00000000000E+00 0. -1.
</event>
<event>
 8    1  0.1238315E-006  0.9118800E+02  0.7816164E-02  0.1184000E+00
        -11   -1    0    0    0    0  0.00000000000E+00  0.00000000000E+00  0.45593999997E+02  0.45594000000E+02  0.51100000000E-03 0. -1.
         11   -1    0    0    0    0 -0.00000000000E+00 -0.00000000000E+00 -0.45593999997E+02  0.45594000000E+02  0.51100000000E-03 0.  1.
         23    2    1    2    0    0  0.00000000000E+00  0.35527136788E-14  0.00000000000E+00  0.91188000000E+02  0.91188000000E+02 0.  0.
    9900012    2    3    3    0    0 -0.28792163835E+01  0.24394233831E+02  0.27430127562E+02  0.54367076203E+02  0.39999981821E+02 0.  0.
        -12    1    3    3    0    0  0.28792163835E+01 -0.24394233831E+02 -0.27430127562E+02  0.36820923797E+02  0.00000000000E+00 0.  1.
         11    1    4    4    0    0  0.24993901599E+01  0.11171084029E+02  0.35264365828E+02  0.37075808380E+02  0.51100000000E-03 0. -1.
        -11    1    4    4    0    0 -0.37853824837E+01  0.76241158580E+01 -0.76850527883E+01  0.11468055623E+02  0.51100000000E-03 0.  1.
         12    1    4    4    0    0 -0.15932240597E+01  0.55990339443E+01 -0.14918547809E+00  0.58232121995E+01  0.00000000000E+00 0. -1.
</event>
<event>
 8    1  0.1238315E-006  0.9118800E+02  0.7816164E-02  0.1184000E+00
        -11   -1    0    0    0    0  0.00000000000E+00  0.00000000000E+00  0.45593999997E+02  0.45594000000E+02  0.51100000000E-03 0. -1.
         11   -1    0    0    0    0 -0.00000000000E+00 -0.00000000000E+00 -0.45593999997E+02  0.45594000000E+02  0.51100000000E-03 0.  1.
         23    2    1    2    0    0  0.17763568394E-14  0.00000000000E+00  0.00000000000E+00  0.91188000000E+02  0.91188000000E+02 0.  0.
    9900012    2    3    3    0    0 -0.10177070373E+02  0.17546808085E+02  0.30729767534E+02  0.54367056937E+02  0.39999937899E+02 0.  0.
        -12    1    3    3    0    0  0.10177070373E+02 -0.17546808085E+02 -0.30729767534E+02  0.36820943063E+02  0.00000000000E+00 0.  1.
         11    1    4    4    0    0  0.97863439838E+01  0.15938134699E+01  0.22925985100E+02  0.24978261809E+02  0.51100000000E-03 0. -1.
        -11    1    4    4    0    0 -0.86096652844E+01  0.33235255523E+01 -0.24527518836E+01  0.95492486861E+01  0.51100000000E-03 0.  1.
         12    1    4    4    0    0 -0.11353749072E+02  0.12629469062E+02  0.10256534319E+02  0.19839546442E+02  0.00000000000E+00 0. -1.
</event>
<event>
 8    1  0.1238315E-006  0.9118800E+02  0.7816164E-02  0.1184000E+00
        -11   -1    0    0    0    0  0.00000000000E+00  0.00000000000E+00  0.45593999997E+02  0.45594000000E+02  0.51100000000E-03 0.  1.
         11   -1    0    0    0    0 -0.00000000000E+00 -0.00000000000E+00 -0.45593999997E+02  0.45594000000E+02  0.51100000000E-03 0. -1.
         23    2    1    2    0    0  0.00000000000E+00  0.00000000000E+00  0.00000000000E+00  0.91188000000E+02  0.91188000000E+02 0.  0.
    9900012    2    3    3    0    0 -0.16029595478E+02 -0.21933260668E+02  0.24854843165E+02  0.54367094478E+02  0.40000023482E+02 0.  0.
         12    1    3    3    0    0  0.16029595478E+02  0.21933260668E+02 -0.24854843165E+02  0.36820905522E+02  0.00000000000E+00 0. -1.
         11    1    4    4    0    0 -0.15542210496E+02 -0.33043837216E+01  0.18956714204E+02  0.24735324387E+02  0.51100000000E-03 0. -1.
        -11    1    4    4    0    0  0.44081061234E+01 -0.77112203087E+01  0.12979910552E+02  0.15728076692E+02  0.51100000000E-03 0.  1.
        -12    1    4    4    0    0 -0.48954911054E+01 -0.10917656637E+02 -0.70817815909E+01  0.13903693398E+02  0.00000000000E+00 0.  1.
</event>
<event>
 8    1  0.1238315E-006  0.9118800E+02  0.7816164E-02  0.1184000E+00
        -11   -1    0    0    0    0  0.00000000000E+00  0.00000000000E+00  0.45593999997E+02  0.45594000000E+02  0.51100000000E-03 0.  1.
         11   -1    0    0    0    0 -0.00000000000E+00 -0.00000000000E+00 -0.45593999997E+02  0.45594000000E+02  0.51100000000E-03 0. -1.
         23    2    1    2    0    0  0.88817841970E-15  0.00000000000E+00 -0.35527136788E-14  0.91188000000E+02  0.91188000000E+02 0.  0.
    9900012    2    3    3    0    0  0.54976850765E+01 -0.19392719462E+02 -0.30813563360E+02  0.54367111957E+02  0.40000063328E+02 0.  0.
        -12    1    3    3    0    0 -0.54976850765E+01  0.19392719462E+02  0.30813563360E+02  0.36820888043E+02  0.00000000000E+00 0.  1.
         11    1    4    4    0    0  0.14066254928E+01 -0.16302848753E+02 -0.11827140851E+02  0.20190164281E+02  0.51100000000E-03 0. -1.
        -11    1    4    4    0    0 -0.34447965212E+01 -0.40105864659E+01  0.60384354501E+01  0.80258413777E+01  0.51100000000E-03 0.  1.
        -12    1    4    4    0    0  0.75358561049E+01  0.92071575672E+00 -0.25024857959E+02  0.26151106298E+02  0.00000000000E+00 0.  1.
</event>
<event>
 8    1  0.1238315E-006  0.9118800E+02  0.7816164E-02  0.1184000E+00
        -11   -1    0    0    0    0  0.00000000000E+00  0.00000000000E+00  0.45593999997E+02  0.45594000000E+02  0.51100000000E-03 0.  1.
         11   -1    0    0    0    0 -0.00000000000E+00 -0.00000000000E+00 -0.45593999997E+02  0.45594000000E+02  0.51100000000E-03 0. -1.
         23    2    1    2    0    0  0.35527136788E-14  0.00000000000E+00  0.17763568394E-14  0.91188000000E+02  0.91188000000E+02 0.  0.
    9900012    2    3    3    0    0 -0.28294109612E+02 -0.18813295452E+02 -0.14187437559E+02  0.54367080552E+02  0.39999991735E+02 0.  0.
        -12    1    3    3    0    0  0.28294109612E+02  0.18813295452E+02  0.14187437559E+02  0.36820919448E+02  0.00000000000E+00 0.  1.
         11    1    4    4    0    0  0.12601072701E+01 -0.19688984587E+02 -0.64262761696E-01  0.19729371870E+02  0.51100000000E-03 0. -1.
        -11    1    4    4    0    0 -0.16118535625E+01 -0.14048786286E+01  0.14346917425E+01  0.25748973815E+01  0.51100000000E-03 0.  1.
         12    1    4    4    0    0 -0.27942363320E+02  0.22805677645E+01 -0.15557866540E+02  0.32062811301E+02  0.00000000000E+00 0. -1.
</event>
<event>
 8    1  0.1238315E-006  0.9118800E+02  0.7816164E-02  0.1184000E+00
        -11   -1    0    0    0    0  0.00000000000E+00  0.00000000000E+00  0.45593999997E+02  0.45594000000E+02  0.51100000000E-03 0. -1.
         11   -1    0    0    0    0 -0.00000000000E+00 -0.00000000000E+00 -0.45593999997E+02  0.45594000000E+02  0.51100000000E-03 0.  1.
         23    2    1    2    0    0  0.00000000000E+00  0.00000000000E+00  0.35527136788E-14  0.91188000000E+02  0.91188000000E+02 0.  0.
    9900012    2    3    3    0    0 -0.27181065369E+02  0.69729876296E+01 -0.23840027835E+02  0.54367084772E+02  0.40000001354E+02 0.  0.
         12    1    3    3    0    0  0.27181065369E+02 -0.69729876296E+01  0.23840027835E+02  0.36820915228E+02  0.00000000000E+00 0. -1.
         11    1    4    4    0    0 -0.10191446682E+01  0.11272111887E+02  0.19676550881E+00  0.11319800315E+02  0.51100000000E-03 0. -1.
        -11    1    4    4    0    0 -0.21832353397E+02 -0.10681769691E+02 -0.85839045092E+01  0.25776642051E+02  0.51100000000E-03 0.  1.
        -12    1    4    4    0    0 -0.43295673042E+01  0.63826454336E+01 -0.15452888834E+02  0.17270642405E+02  0.00000000000E+00 0.  1.
</event>
<event>
 8    1  0.1238315E-006  0.9118800E+02  0.7816164E-02  0.1184000E+00
        -11   -1    0    0    0    0  0.00000000000E+00  0.00000000000E+00  0.45593999997E+02  0.45594000000E+02  0.51100000000E-03 0.  1.
         11   -1    0    0    0    0 -0.00000000000E+00 -0.00000000000E+00 -0.45593999997E+02  0.45594000000E+02  0.51100000000E-03 0. -1.
         23    2    1    2    0    0  0.00000000000E+00  0.00000000000E+00  0.35527136788E-14  0.91188000000E+02  0.91188000000E+02 0.  0.
    9900012    2    3    3    0    0  0.19068128617E+02 -0.20959532036E+02 -0.23513490018E+02  0.54367085767E+02  0.40000003623E+02 0.  0.
        -12    1    3    3    0    0 -0.19068128617E+02  0.20959532036E+02  0.23513490018E+02  0.36820914233E+02  0.00000000000E+00 0.  1.
         11    1    4    4    0    0  0.14914014100E+02 -0.91094873951E+01 -0.95823401755E+01  0.19930675369E+02  0.51100000000E-03 0. -1.
        -11    1    4    4    0    0  0.61069655872E+00 -0.66721094987E+01 -0.22692052879E+02  0.23660499986E+02  0.51100000000E-03 0.  1.
        -12    1    4    4    0    0  0.35434179588E+01 -0.51779351427E+01  0.87609030372E+01  0.10775910412E+02  0.00000000000E+00 0.  1.
</event>
<event>
 8    1  0.1238315E-006  0.9118800E+02  0.7816164E-02  0.1184000E+00
        -11   -1    0    0    0    0  0.00000000000E+00  0.00000000000E+00  0.45593999997E+02  0.45594000000E+02  0.51100000000E-03 0. -1.
         11   -1    0    0    0    0 -0.00000000000E+00 -0.00000000000E+00 -0.45593999997E+02  0.45594000000E+02  0.51100000000E-03 0.  1.
         23    2    1    2    0    0  0.00000000000E+00 -0.17763568394E-14  0.35527136788E-14  0.91188000000E+02  0.91188000000E+02 0.  0.
    9900012    2    3    3    0    0 -0.17137864900E+02  0.10230546789E+02 -0.30942003012E+02  0.54367108493E+02  0.40000055432E+02 0.  0.
         12    1    3    3    0    0  0.17137864900E+02 -0.10230546789E+02  0.30942003012E+02  0.36820891507E+02  0.00000000000E+00 0. -1.
         11    1    4    4    0    0 -0.15005185327E+01  0.19369448324E+00  0.16081358419E+00  0.15214909430E+01  0.51100000000E-03 0. -1.
        -11    1    4    4    0    0 -0.20407183747E+02  0.21340341849E+02 -0.16688872771E+02  0.33917278978E+02  0.51100000000E-03 0.  1.
        -12    1    4    4    0    0  0.47698373796E+01 -0.11303489543E+02 -0.14413943826E+02  0.18928338572E+02  0.00000000000E+00 0.  1.
</event>
<event>
 8    1  0.1238315E-006  0.9118800E+02  0.7816164E-02  0.1184000E+00
        -11   -1    0    0    0    0  0.00000000000E+00  0.00000000000E+00  0.45593999997E+02  0.45594000000E+02  0.51100000000E-03 0.  1.
         11   -1    0    0    0    0 -0.00000000000E+00 -0.00000000000E+00 -0.45593999997E+02  0.45594000000E+02  0.51100000000E-03 0. -1.
         23    2    1    2    0    0  0.35527136788E-14  0.00000000000E+00  0.35527136788E-14  0.91188000000E+02  0.91188000000E+02 0.  0.
    9900012    2    3    3    0    0 -0.16850984065E+02 -0.21012652239E+02 -0.25105599190E+02  0.54367104726E+02  0.40000046843E+02 0.  0.
        -12    1    3    3    0    0  0.16850984065E+02  0.21012652239E+02  0.25105599190E+02  0.36820895274E+02  0.00000000000E+00 0.  1.
         11    1    4    4    0    0  0.31529681358E+00 -0.81747694264E+01  0.72721760607E+01  0.10945812541E+02  0.51100000000E-03 0. -1.
        -11    1    4    4    0    0 -0.11532530637E+02  0.20783508034E+01 -0.76355613439E+01  0.13986443517E+02  0.51100000000E-03 0.  1.
         12    1    4    4    0    0 -0.56337502410E+01 -0.14916233616E+02 -0.24742213907E+02  0.29434848668E+02  0.00000000000E+00 0. -1.
</event>
<event>
 8    1  0.1238315E-006  0.9118800E+02  0.7816164E-02  0.1184000E+00
        -11   -1    0    0    0    0  0.00000000000E+00  0.00000000000E+00  0.45593999997E+02  0.45594000000E+02  0.51100000000E-03 0. -1.
         11   -1    0    0    0    0 -0.00000000000E+00 -0.00000000000E+00 -0.45593999997E+02  0.45594000000E+02  0.51100000000E-03 0.  1.
         23    2    1    2    0    0 -0.88817841970E-15  0.35527136788E-14  0.00000000000E+00  0.91188000000E+02  0.91188000000E+02 0.  0.
    9900012    2    3    3    0    0  0.46807573972E+01  0.16350063287E+02 -0.32658022916E+02  0.54367074969E+02  0.39999979008E+02 0.  0.
         12    1    3    3    0    0 -0.46807573972E+01 -0.16350063287E+02  0.32658022916E+02  0.36820925031E+02  0.00000000000E+00 0. -1.
         11    1    4    4    0    0  0.19053569227E+00 -0.18479727840E+01  0.26140933113E+01  0.32069910136E+01  0.51100000000E-03 0. -1.
        -11    1    4    4    0    0  0.31347648667E+00 -0.92499655899E+01 -0.98385135286E+01  0.13507645229E+02  0.51100000000E-03 0.  1.
         12    1    4    4    0    0  0.41767452182E+01  0.27448001661E+02 -0.25433602699E+02  0.37652438727E+02  0.00000000000E+00 0. -1.
</event>
<event>
 8    1  0.1238315E-006  0.9118800E+02  0.7816164E-02  0.1184000E+00
        -11   -1    0    0    0    0  0.00000000000E+00  0.00000000000E+00  0.45593999997E+02  0.45594000000E+02  0.51100000000E-03 0.  1.
         11   -1    0    0    0    0 -0.00000000000E+00 -0.00000000000E+00 -0.45593999997E+02  0.45594000000E+02  0.51100000000E-03 0. -1.
         23    2    1    2    0    0  0.00000000000E+00 -0.35527136788E-14  0.35527136788E-14  0.91188000000E+02  0.91188000000E+02 0.  0.
    9900012    2    3    3    0    0  0.17818879478E+02  0.23047496088E+02 -0.22518433597E+02  0.54367090268E+02  0.40000013884E+02 0.  0.
        -12    1    3    3    0    0 -0.17818879478E+02 -0.23047496088E+02  0.22518433597E+02  0.36820909732E+02  0.00000000000E+00 0.  1.
         11    1    4    4    0    0 -0.48114044167E+01  0.29929066371E+01  0.70003959549E+01  0.90062559583E+01  0.51100000000E-03 0. -1.
        -11    1    4    4    0    0  0.39315660318E+01  0.13666691519E+02 -0.87666204068E+01  0.16705966065E+02  0.51100000000E-03 0.  1.
         12    1    4    4    0    0  0.18698717863E+02  0.63878979316E+01 -0.20752209145E+02  0.28654868245E+02  0.00000000000E+00 0. -1.
</event>
<event>
 8    1  0.1238315E-006  0.9118800E+02  0.7816164E-02  0.1184000E+00
        -11   -1    0    0    0    0  0.00000000000E+00  0.00000000000E+00  0.45593999997E+02  0.45594000000E+02  0.51100000000E-03 0. -1.
         11   -1    0    0    0    0 -0.00000000000E+00 -0.00000000000E+00 -0.45593999997E+02  0.45594000000E+02  0.51100000000E-03 0.  1.
         23    2    1    2    0    0  0.35527136788E-14  0.35527136788E-14  0.00000000000E+00  0.91188000000E+02  0.91188000000E+02 0.  0.
    9900012    2    3    3    0    0 -0.26293816185E+02 -0.18899416588E+02 -0.17527890383E+02  0.54367086673E+02  0.40000005689E+02 0.  0.
         12    1    3    3    0    0  0.26293816185E+02  0.18899416588E+02  0.17527890383E+02  0.36820913327E+02  0.00000000000E+00 0. -1.
         11    1    4    4    0    0 -0.14479142513E+02 -0.25427968003E+02 -0.20781839505E+00  0.29262096874E+02  0.51100000000E-03 0. -1.
        -11    1    4    4    0    0 -0.30548594723E+01 -0.28820301103E+01 -0.85982026590E+01  0.95690831942E+01  0.51100000000E-03 0.  1.
         12    1    4    4    0    0 -0.87598141994E+01  0.94105815255E+01 -0.87218693291E+01  0.15535906605E+02  0.00000000000E+00 0. -1.
</event>
<event>
 8    1  0.1238315E-006  0.9118800E+02  0.7816164E-02  0.1184000E+00
        -11   -1    0    0    0    0  0.00000000000E+00  0.00000000000E+00  0.45593999997E+02  0.45594000000E+02  0.51100000000E-03 0.  1.
         11   -1    0    0    0    0 -0.00000000000E+00 -0.00000000000E+00 -0.45593999997E+02  0.45594000000E+02  0.51100000000E-03 0. -1.
         23    2    1    2    0    0 -0.17763568394E-14  0.00000000000E+00 -0.17763568394E-14  0.91188000000E+02  0.91188000000E+02 0.  0.
    9900012    2    3    3    0    0 -0.82267639272E+01  0.33753008238E+02  0.12199783825E+02  0.54367082912E+02  0.39999997114E+02 0.  0.
         12    1    3    3    0    0  0.82267639272E+01 -0.33753008238E+02 -0.12199783825E+02  0.36820917088E+02  0.00000000000E+00 0. -1.
         11    1    4    4    0    0  0.92764126143E+01 -0.20444894731E+01  0.44064077680E+01  0.10471303542E+02  0.51100000000E-03 0. -1.
        -11    1    4    4    0    0 -0.17559013637E+02  0.17150891430E+02  0.48033946992E+01  0.25010890381E+02  0.51100000000E-03 0.  1.
         12    1    4    4    0    0  0.55837095799E-01  0.18646606281E+02  0.29899813583E+01  0.18884888988E+02  0.00000000000E+00 0. -1.
</event>
<event>
 8    1  0.1238315E-006  0.9118800E+02  0.7816164E-02  0.1184000E+00
        -11   -1    0    0    0    0  0.00000000000E+00  0.00000000000E+00  0.45593999997E+02  0.45594000000E+02  0.51100000000E-03 0.  1.
         11   -1    0    0    0    0 -0.00000000000E+00 -0.00000000000E+00 -0.45593999997E+02  0.45594000000E+02  0.51100000000E-03 0. -1.
         23    2    1    2    0    0  0.00000000000E+00  0.00000000000E+00 -0.35527136788E-14  0.91188000000E+02  0.91188000000E+02 0.  0.
    9900012    2    3    3    0    0 -0.18734632471E+02 -0.19639154934E+02  0.24881645469E+02  0.54367093689E+02  0.40000021682E+02 0.  0.
         12    1    3    3    0    0  0.18734632471E+02  0.19639154934E+02 -0.24881645469E+02  0.36820906311E+02  0.00000000000E+00 0. -1.
         11    1    4    4    0    0 -0.89611630396E+00  0.14407667261E+00  0.85034148958E+01  0.85517160657E+01  0.51100000000E-03 0. -1.
        -11    1    4    4    0    0  0.79446693425E+01 -0.20027259363E+01  0.11496923163E+02  0.14117645860E+02  0.51100000000E-03 0.  1.
         12    1    4    4    0    0 -0.25783185509E+02 -0.17780505670E+02  0.48813074103E+01  0.31697731763E+02  0.00000000000E+00 0. -1.
</event>
<event>
 8    1  0.1238315E-006  0.9118800E+02  0.7816164E-02  0.1184000E+00
        -11   -1    0    0    0    0  0.00000000000E+00  0.00000000000E+00  0.45593999997E+02  0.45594000000E+02  0.51100000000E-03 0.  1.
         11   -1    0    0    0    0 -0.00000000000E+00 -0.00000000000E+00 -0.45593999997E+02  0.45594000000E+02  0.51100000000E-03 0. -1.
         23    2    1    2    0    0  0.00000000000E+00  0.00000000000E+00  0.00000000000E+00  0.91188000000E+02  0.91188000000E+02 0.  0.
    9900012    2    3    3    0    0 -0.55831377381E+01  0.19533015880E+02 -0.30709446479E+02  0.54367078781E+02  0.39999987696E+02 0.  0.
        -12    1    3    3    0    0  0.55831377381E+01 -0.19533015880E+02  0.30709446479E+02  0.36820921219E+02  0.00000000000E+00 0.  1.
         11    1    4    4    0    0  0.10887188205E+02  0.19482056877E+02 -0.11554248401E+02  0.25131296495E+02  0.51100000000E-03 0. -1.
        -11    1    4    4    0    0 -0.15215956346E+02  0.37618807568E+00 -0.21626320523E+02  0.26445502162E+02  0.51100000000E-03 0.  1.
         12    1    4    4    0    0 -0.12543695968E+01 -0.32522907200E+00  0.24711224441E+01  0.27902801236E+01  0.00000000000E+00 0. -1.
</event>
<event>
 8    1  0.1238315E-006  0.9118800E+02  0.7816164E-02  0.1184000E+00
        -11   -1    0    0    0    0  0.00000000000E+00  0.00000000000E+00  0.45593999997E+02  0.45594000000E+02  0.51100000000E-03 0. -1.
         11   -1    0    0    0    0 -0.00000000000E+00 -0.00000000000E+00 -0.45593999997E+02  0.45594000000E+02  0.51100000000E-03 0.  1.
         23    2    1    2    0    0 -0.35527136788E-14 -0.35527136788E-14  0.17763568394E-14  0.91188000000E+02  0.91188000000E+02 0.  0.
    9900012    2    3    3    0    0 -0.25107982905E+02 -0.21843801197E+02  0.15754435284E+02  0.54367289966E+02  0.40000469133E+02 0.  0.
         12    1    3    3    0    0  0.25107982905E+02  0.21843801197E+02 -0.15754435284E+02  0.36820710034E+02  0.00000000000E+00 0. -1.
         11    1    4    4    0    0 -0.40131920118E+01 -0.93222193271E+01  0.14554811935E+02  0.17744070391E+02  0.51100000000E-03 0. -1.
        -11    1    4    4    0    0  0.31795271129E+01 -0.75512780075E+01  0.74446333189E+01  0.11070400071E+02  0.51100000000E-03 0.  1.
         12    1    4    4    0    0 -0.24274318006E+02 -0.49703038619E+01 -0.62450099698E+01  0.25552819505E+02  0.00000000000E+00 0. -1.
</event>
<event>
 8    1  0.1238315E-006  0.9118800E+02  0.7816164E-02  0.1184000E+00
        -11   -1    0    0    0    0  0.00000000000E+00  0.00000000000E+00  0.45593999997E+02  0.45594000000E+02  0.51100000000E-03 0. -1.
         11   -1    0    0    0    0 -0.00000000000E+00 -0.00000000000E+00 -0.45593999997E+02  0.45594000000E+02  0.51100000000E-03 0.  1.
         23    2    1    2    0    0 -0.35527136788E-14  0.71054273576E-14  0.44408920985E-15  0.91188000000E+02  0.91188000000E+02 0.  0.
    9900012    2    3    3    0    0  0.19782720633E+02 -0.30924723425E+02 -0.28435296394E+01  0.54367079108E+02  0.39999988442E+02 0.  0.
         12    1    3    3    0    0 -0.19782720633E+02  0.30924723425E+02  0.28435296394E+01  0.36820920892E+02  0.00000000000E+00 0. -1.
         11    1    4    4    0    0 -0.10085147520E+01 -0.26541631412E+01  0.70573253805E+01  0.76070707748E+01  0.51100000000E-03 0. -1.
        -11    1    4    4    0    0  0.92526027930E+01 -0.24813767151E+02  0.56610643846E+01  0.27081014547E+02  0.51100000000E-03 0.  1.
         12    1    4    4    0    0  0.11538632592E+02 -0.34567931323E+01 -0.15561919404E+02  0.19678993785E+02  0.00000000000E+00 0. -1.
</event>
<event>
 8    1  0.1238315E-006  0.9118800E+02  0.7816164E-02  0.1184000E+00
        -11   -1    0    0    0    0  0.00000000000E+00  0.00000000000E+00  0.45593999997E+02  0.45594000000E+02  0.51100000000E-03 0. -1.
         11   -1    0    0    0    0 -0.00000000000E+00 -0.00000000000E+00 -0.45593999997E+02  0.45594000000E+02  0.51100000000E-03 0.  1.
         23    2    1    2    0    0 -0.17763568394E-14  0.88817841970E-15  0.00000000000E+00  0.91188000000E+02  0.91188000000E+02 0.  0.
    9900012    2    3    3    0    0  0.14718981565E+02 -0.79772316828E+01  0.32794746231E+02  0.54367081706E+02  0.39999994365E+02 0.  0.
        -12    1    3    3    0    0 -0.14718981565E+02  0.79772316828E+01 -0.32794746231E+02  0.36820918294E+02  0.00000000000E+00 0.  1.
         11    1    4    4    0    0 -0.32741317355E+01 -0.41122344367E+00  0.20720977946E+02  0.20982086899E+02  0.51100000000E-03 0. -1.
        -11    1    4    4    0    0  0.16339882410E+02  0.52226408880E+00  0.17150063919E+02  0.23693653363E+02  0.51100000000E-03 0.  1.
        -12    1    4    4    0    0  0.16532308905E+01 -0.80882723280E+01 -0.50762956342E+01  0.96913414445E+01  0.00000000000E+00 0.  1.
</event>
<event>
 8    1  0.1238315E-006  0.9118800E+02  0.7816164E-02  0.1184000E+00
        -11   -1    0    0    0    0  0.00000000000E+00  0.00000000000E+00  0.45593999997E+02  0.45594000000E+02  0.51100000000E-03 0. -1.
         11   -1    0    0    0    0 -0.00000000000E+00 -0.00000000000E+00 -0.45593999997E+02  0.45594000000E+02  0.51100000000E-03 0.  1.
         23    2    1    2    0    0 -0.44408920985E-15  0.66613381478E-15  0.00000000000E+00  0.91188000000E+02  0.91188000000E+02 0.  0.
    9900012    2    3    3    0    0  0.17165526167E+01 -0.13745413145E+01  0.36755189868E+02  0.54367083404E+02  0.39999998237E+02 0.  0.
        -12    1    3    3    0    0 -0.17165526167E+01  0.13745413145E+01 -0.36755189868E+02  0.36820916596E+02  0.00000000000E+00 0.  1.
         11    1    4    4    0    0 -0.78760781873E+01 -0.63256301787E+01  0.22529603369E+02  0.24690670971E+02  0.51100000000E-03 0. -1.
        -11    1    4    4    0    0  0.39652369779E+01 -0.45213395907E+01 -0.47974989377E+01  0.76929586183E+01  0.51100000000E-03 0.  1.
         12    1    4    4    0    0  0.56273938262E+01  0.94724284549E+01  0.19023085436E+02  0.21983453815E+02  0.00000000000E+00 0. -1.
</event>
<event>
 8    1  0.1238315E-006  0.9118800E+02  0.7816164E-02  0.1184000E+00
        -11   -1    0    0    0    0  0.00000000000E+00  0.00000000000E+00  0.45593999997E+02  0.45594000000E+02  0.51100000000E-03 0.  1.
         11   -1    0    0    0    0 -0.00000000000E+00 -0.00000000000E+00 -0.45593999997E+02  0.45594000000E+02  0.51100000000E-03 0. -1.
         23    2    1    2    0    0  0.17763568394E-14  0.00000000000E+00  0.00000000000E+00  0.91188000000E+02  0.91188000000E+02 0.  0.
    9900012    2    3    3    0    0 -0.15210968358E+01  0.35104210282E+02  0.11007339595E+02  0.54367070624E+02  0.39999969102E+02 0.  0.
        -12    1    3    3    0    0  0.15210968358E+01 -0.35104210282E+02 -0.11007339595E+02  0.36820929376E+02  0.00000000000E+00 0.  1.
         11    1    4    4    0    0 -0.12808089540E+02  0.46896243274E+01 -0.23399458632E+01  0.13838897388E+02  0.51100000000E-03 0. -1.
        -11    1    4    4    0    0  0.44889367064E+01  0.15630266663E+02  0.17340660285E+02  0.23772973901E+02  0.51100000000E-03 0.  1.
        -12    1    4    4    0    0  0.67980559982E+01  0.14784319292E+02 -0.39933748263E+01  0.16755199336E+02  0.00000000000E+00 0.  1.
</event>
<event>
 8    1  0.1238315E-006  0.9118800E+02  0.7816164E-02  0.1184000E+00
        -11   -1    0    0    0    0  0.00000000000E+00  0.00000000000E+00  0.45593999997E+02  0.45594000000E+02  0.51100000000E-03 0. -1.
         11   -1    0    0    0    0 -0.00000000000E+00 -0.00000000000E+00 -0.45593999997E+02  0.45594000000E+02  0.51100000000E-03 0.  1.
         23    2    1    2    0    0  0.00000000000E+00  0.00000000000E+00  0.35527136788E-14  0.91188000000E+02  0.91188000000E+02 0.  0.
    9900012    2    3    3    0    0 -0.74956675318E+01  0.25711470208E+02  0.25268865963E+02  0.54367077699E+02  0.39999985231E+02 0.  0.
        -12    1    3    3    0    0  0.74956675318E+01 -0.25711470208E+02 -0.25268865963E+02  0.36820922301E+02  0.00000000000E+00 0.  1.
         11    1    4    4    0    0  0.42254940269E+01 -0.31833256286E+01  0.16220085567E+02  0.17061053247E+02  0.51100000000E-03 0. -1.
        -11    1    4    4    0    0 -0.25701789950E+01 -0.22167348553E+01  0.25165356992E+01  0.42252438594E+01  0.51100000000E-03 0.  1.
        -12    1    4    4    0    0 -0.91509825636E+01  0.31111530692E+02  0.65322446968E+01  0.33080780593E+02  0.00000000000E+00 0.  1.
</event>
<event>
 8    1  0.1238315E-006  0.9118800E+02  0.7816164E-02  0.1184000E+00
        -11   -1    0    0    0    0  0.00000000000E+00  0.00000000000E+00  0.45593999997E+02  0.45594000000E+02  0.51100000000E-03 0.  1.
         11   -1    0    0    0    0 -0.00000000000E+00 -0.00000000000E+00 -0.45593999997E+02  0.45594000000E+02  0.51100000000E-03 0. -1.
         23    2    1    2    0    0  0.00000000000E+00 -0.22204460493E-14  0.14210854715E-13  0.91188000000E+02  0.91188000000E+02 0.  0.
    9900012    2    3    3    0    0  0.71150375353E+01 -0.11290989116E+01  0.36109281240E+02  0.54367098122E+02  0.40000031788E+02 0.  0.
         12    1    3    3    0    0 -0.71150375353E+01  0.11290989116E+01 -0.36109281240E+02  0.36820901878E+02  0.00000000000E+00 0. -1.
         11    1    4    4    0    0  0.58662491968E+01  0.65322139080E+01  0.12089167430E+01  0.88625153389E+01  0.51100000000E-03 0. -1.
        -11    1    4    4    0    0  0.12058916264E+02 -0.77790268188E+01  0.30733264323E+02  0.33918494305E+02  0.51100000000E-03 0.  1.
         12    1    4    4    0    0 -0.10810127926E+02  0.11771399923E+00  0.41671001744E+01  0.11586088478E+02  0.00000000000E+00 0. -1.
</event>
<event>
 8    1  0.1238315E-006  0.9118800E+02  0.7816164E-02  0.1184000E+00
        -11   -1    0    0    0    0  0.00000000000E+00  0.00000000000E+00  0.45593999997E+02  0.45594000000E+02  0.51100000000E-03 0. -1.
         11   -1    0    0    0    0 -0.00000000000E+00 -0.00000000000E+00 -0.45593999997E+02  0.45594000000E+02  0.51100000000E-03 0.  1.
         23    2    1    2    0    0  0.35527136788E-14  0.00000000000E+00  0.00000000000E+00  0.91188000000E+02  0.91188000000E+02 0.  0.
    9900012    2    3    3    0    0 -0.22575401885E+02 -0.24349763564E+02 -0.15912885833E+02  0.54367086223E+02  0.40000004662E+02 0.  0.
         12    1    3    3    0    0  0.22575401885E+02  0.24349763564E+02  0.15912885833E+02  0.36820913777E+02  0.00000000000E+00 0. -1.
         11    1    4    4    0    0 -0.22760667931E+02 -0.28580910442E+01  0.97696325563E+00  0.22960207894E+02  0.51100000000E-03 0. -1.
        -11    1    4    4    0    0 -0.31291021433E+00 -0.15217569154E+02 -0.21401921253E+01  0.15370515488E+02  0.51100000000E-03 0.  1.
        -12    1    4    4    0    0  0.49817626037E+00 -0.62741033655E+01 -0.14749656963E+02  0.16036362841E+02  0.00000000000E+00 0.  1.
</event>
<event>
 8    1  0.1238315E-006  0.9118800E+02  0.7816164E-02  0.1184000E+00
        -11   -1    0    0    0    0  0.00000000000E+00  0.00000000000E+00  0.45593999997E+02  0.45594000000E+02  0.51100000000E-03 0. -1.
         11   -1    0    0    0    0 -0.00000000000E+00 -0.00000000000E+00 -0.45593999997E+02  0.45594000000E+02  0.51100000000E-03 0.  1.
         23    2    1    2    0    0  0.00000000000E+00  0.00000000000E+00 -0.35527136788E-14  0.91188000000E+02  0.91188000000E+02 0.  0.
    9900012    2    3    3    0    0  0.17407166976E+02  0.24802273145E+02  0.20919239629E+02  0.54367125459E+02  0.40000094110E+02 0.  0.
        -12    1    3    3    0    0 -0.17407166976E+02 -0.24802273145E+02 -0.20919239629E+02  0.36820874541E+02  0.00000000000E+00 0.  1.
         11    1    4    4    0    0  0.16836967290E+02  0.23014369876E+02  0.24736289707E+02  0.37749552541E+02  0.51100000000E-03 0. -1.
        -11    1    4    4    0    0  0.62080865969E+01  0.20028791325E+01  0.34802820940E+01  0.73935260687E+01  0.51100000000E-03 0.  1.
        -12    1    4    4    0    0 -0.56378869108E+01 -0.21497586352E+00 -0.72973321727E+01  0.92240468494E+01  0.00000000000E+00 0.  1.
</event>
<event>
 8    1  0.1238315E-006  0.9118800E+02  0.7816164E-02  0.1184000E+00
        -11   -1    0    0    0    0  0.00000000000E+00  0.00000000000E+00  0.45593999997E+02  0.45594000000E+02  0.51100000000E-03 0.  1.
         11   -1    0    0    0    0 -0.00000000000E+00 -0.00000000000E+00 -0.45593999997E+02  0.45594000000E+02  0.51100000000E-03 0. -1.
         23    2    1    2    0    0 -0.35527136788E-14  0.00000000000E+00  0.00000000000E+00  0.91188000000E+02  0.91188000000E+02 0.  0.
    9900012    2    3    3    0    0 -0.28834654472E+02 -0.68689520496E+01  0.21843977891E+02  0.54367093290E+02  0.40000020774E+02 0.  0.
         12    1    3    3    0    0  0.28834654472E+02  0.68689520496E+01 -0.21843977891E+02  0.36820906710E+02  0.00000000000E+00 0. -1.
         11    1    4    4    0    0  0.50368150054E+01  0.32349680808E+01  0.19495728561E+01  0.62956618767E+01  0.51100000000E-03 0. -1.
        -11    1    4    4    0    0 -0.16381867750E+02  0.76676052565E+01  0.12764180356E+02  0.22137797130E+02  0.51100000000E-03 0.  1.
        -12    1    4    4    0    0 -0.17489601728E+02 -0.17771525387E+02  0.71302246793E+01  0.25933634283E+02  0.00000000000E+00 0.  1.
</event>
<event>
 8    1  0.1238315E-006  0.9118800E+02  0.7816164E-02  0.1184000E+00
        -11   -1    0    0    0    0  0.00000000000E+00  0.00000000000E+00  0.45593999997E+02  0.45594000000E+02  0.51100000000E-03 0.  1.
         11   -1    0    0    0    0 -0.00000000000E+00 -0.00000000000E+00 -0.45593999997E+02  0.45594000000E+02  0.51100000000E-03 0. -1.
         23    2    1    2    0    0 -0.17763568394E-14  0.88817841970E-15  0.00000000000E+00  0.91188000000E+02  0.91188000000E+02 0.  0.
    9900012    2    3    3    0    0 -0.13778928920E+02  0.45007166121E+01  0.33847660800E+02  0.54367089177E+02  0.40000011396E+02 0.  0.
         12    1    3    3    0    0  0.13778928920E+02 -0.45007166121E+01 -0.33847660800E+02  0.36820910823E+02  0.00000000000E+00 0. -1.
         11    1    4    4    0    0  0.43714185006E+01  0.27636554900E+00  0.49519080451E+01  0.66111323669E+01  0.51100000000E-03 0. -1.
        -11    1    4    4    0    0 -0.16110118924E+02 -0.54773940376E+01  0.32919051112E+02  0.37056736278E+02  0.51100000000E-03 0.  1.
         12    1    4    4    0    0 -0.20402284963E+01  0.97017451007E+01 -0.40232983571E+01  0.10699220532E+02  0.00000000000E+00 0. -1.
</event>
<event>
 8    1  0.1238315E-006  0.9118800E+02  0.7816164E-02  0.1184000E+00
        -11   -1    0    0    0    0  0.00000000000E+00  0.00000000000E+00  0.45593999997E+02  0.45594000000E+02  0.51100000000E-03 0. -1.
         11   -1    0    0    0    0 -0.00000000000E+00 -0.00000000000E+00 -0.45593999997E+02  0.45594000000E+02  0.51100000000E-03 0.  1.
         23    2    1    2    0    0  0.17763568394E-14  0.00000000000E+00  0.17763568394E-14  0.91188000000E+02  0.91188000000E+02 0.  0.
    9900012    2    3    3    0    0 -0.14156398163E+02 -0.32388319360E+02 -0.10313233549E+02  0.54367222901E+02  0.40000316247E+02 0.  0.
         12    1    3    3    0    0  0.14156398163E+02  0.32388319360E+02  0.10313233549E+02  0.36820777099E+02  0.00000000000E+00 0. -1.
         11    1    4    4    0    0  0.73725764033E+01 -0.13635852177E+02  0.19097735650E+01  0.15618533309E+02  0.51100000000E-03 0. -1.
        -11    1    4    4    0    0 -0.13572969162E+02  0.18313597346E+01 -0.37433777359E+00  0.13701076577E+02  0.51100000000E-03 0.  1.
         12    1    4    4    0    0 -0.79560054041E+01 -0.20583826918E+02 -0.11848669341E+02  0.25047613015E+02  0.00000000000E+00 0. -1.
</event>
<event>
 8    1  0.1238315E-006  0.9118800E+02  0.7816164E-02  0.1184000E+00
        -11   -1    0    0    0    0  0.00000000000E+00  0.00000000000E+00  0.45593999997E+02  0.45594000000E+02  0.51100000000E-03 0.  1.
         11   -1    0    0    0    0 -0.00000000000E+00 -0.00000000000E+00 -0.45593999997E+02  0.45594000000E+02  0.51100000000E-03 0. -1.
         23    2    1    2    0    0  0.17763568394E-14  0.71054273576E-14  0.17763568394E-14  0.91188000000E+02  0.91188000000E+02 0.  0.
    9900012    2    3    3    0    0 -0.86819726191E+01 -0.33236586622E+02  0.13256440332E+02  0.54367074575E+02  0.39999978110E+02 0.  0.
         12    1    3    3    0    0  0.86819726191E+01  0.33236586622E+02 -0.13256440332E+02  0.36820925425E+02  0.00000000000E+00 0. -1.
         11    1    4    4    0    0 -0.10972548495E+02 -0.29504651775E+02  0.16643020553E+02  0.35607743965E+02  0.51100000000E-03 0.  1.
        -11    1    4    4    0    0  0.13748214502E+01  0.35444908356E+01  0.58428874187E+01  0.69708595562E+01  0.51100000000E-03 0. -1.
        -12    1    4    4    0    0  0.91575442594E+00 -0.72764256826E+01 -0.92294676402E+01  0.11788471055E+02  0.00000000000E+00 0.  1.
</event>
<event>
 8    1  0.1238315E-006  0.9118800E+02  0.7816164E-02  0.1184000E+00
        -11   -1    0    0    0    0  0.00000000000E+00  0.00000000000E+00  0.45593999997E+02  0.45594000000E+02  0.51100000000E-03 0.  1.
         11   -1    0    0    0    0 -0.00000000000E+00 -0.00000000000E+00 -0.45593999997E+02  0.45594000000E+02  0.51100000000E-03 0. -1.
         23    2    1    2    0    0 -0.88817841970E-15  0.00000000000E+00 -0.35527136788E-14  0.91188000000E+02  0.91188000000E+02 0.  0.
    9900012    2    3    3    0    0 -0.62426798806E+01  0.17383597867E+02  0.31853116288E+02  0.54367061064E+02  0.39999947308E+02 0.  0.
         12    1    3    3    0    0  0.62426798806E+01 -0.17383597867E+02 -0.31853116288E+02  0.36820938936E+02  0.00000000000E+00 0. -1.
         11    1    4    4    0    0 -0.91172072182E+01 -0.17066686535E+01 -0.48549601006E+01  0.10469327734E+02  0.51100000000E-03 0. -1.
        -11    1    4    4    0    0  0.23295116612E+01  0.20672470731E+02  0.36743454204E+02  0.42223916183E+02  0.51100000000E-03 0.  1.
        -12    1    4    4    0    0  0.54501567645E+00 -0.15822042112E+01 -0.35377815880E-01  0.16738171475E+01  0.00000000000E+00 0.  1.
</event>
<event>
 8    1  0.1238315E-006  0.9118800E+02  0.7816164E-02  0.1184000E+00
        -11   -1    0    0    0    0  0.00000000000E+00  0.00000000000E+00  0.45593999997E+02  0.45594000000E+02  0.51100000000E-03 0.  1.
         11   -1    0    0    0    0 -0.00000000000E+00 -0.00000000000E+00 -0.45593999997E+02  0.45594000000E+02  0.51100000000E-03 0. -1.
         23    2    1    2    0    0 -0.17486012638E-14  0.17763568394E-14  0.00000000000E+00  0.91188000000E+02  0.91188000000E+02 0.  0.
    9900012    2    3    3    0    0 -0.18438872483E+00  0.13102172453E+02 -0.34410445900E+02  0.54367085980E+02  0.40000004109E+02 0.  0.
        -12    1    3    3    0    0  0.18438872483E+00 -0.13102172453E+02  0.34410445900E+02  0.36820914020E+02  0.00000000000E+00 0.  1.
         11    1    4    4    0    0  0.14617333435E+02  0.62230583195E+01 -0.28623895695E+02  0.32737139408E+02  0.51100000000E-03 0. -1.
        -11    1    4    4    0    0 -0.95077363876E+01 -0.26736799072E+01 -0.20517917414E+01  0.10087391391E+02  0.51100000000E-03 0.  1.
         12    1    4    4    0    0 -0.52939857723E+01  0.95527940404E+01 -0.37347584642E+01  0.11542555182E+02  0.00000000000E+00 0. -1.
</event>
<event>
 8    1  0.1238315E-006  0.9118800E+02  0.7816164E-02  0.1184000E+00
        -11   -1    0    0    0    0  0.00000000000E+00  0.00000000000E+00  0.45593999997E+02  0.45594000000E+02  0.51100000000E-03 0.  1.
         11   -1    0    0    0    0 -0.00000000000E+00 -0.00000000000E+00 -0.45593999997E+02  0.45594000000E+02  0.51100000000E-03 0. -1.
         23    2    1    2    0    0 -0.71054273576E-14 -0.49960036108E-15  0.00000000000E+00  0.91188000000E+02  0.91188000000E+02 0.  0.
    9900012    2    3    3    0    0 -0.26488742097E+02 -0.37478982297E+00 -0.25573207332E+02  0.54367043215E+02  0.39999906618E+02 0.  0.
        -12    1    3    3    0    0  0.26488742097E+02  0.37478982297E+00  0.25573207332E+02  0.36820956785E+02  0.00000000000E+00 0.  1.
         11    1    4    4    0    0 -0.15868961635E+01  0.25307177774E+01  0.24339274660E+01  0.38531513173E+01  0.51100000000E-03 0. -1.
        -11    1    4    4    0    0  0.72937843241E+01 -0.62475439324E+01 -0.52394431194E+01  0.10939966152E+02  0.51100000000E-03 0.  1.
         12    1    4    4    0    0 -0.32195630258E+02  0.33420363320E+01 -0.22767691679E+02  0.39573925745E+02  0.00000000000E+00 0. -1.
</event>
<event>
 8    1  0.1238315E-006  0.9118800E+02  0.7816164E-02  0.1184000E+00
        -11   -1    0    0    0    0  0.00000000000E+00  0.00000000000E+00  0.45593999997E+02  0.45594000000E+02  0.51100000000E-03 0.  1.
         11   -1    0    0    0    0 -0.00000000000E+00 -0.00000000000E+00 -0.45593999997E+02  0.45594000000E+02  0.51100000000E-03 0. -1.
         23    2    1    2    0    0  0.35527136788E-14 -0.35527136788E-14  0.35527136788E-14  0.91188000000E+02  0.91188000000E+02 0.  0.
    9900012    2    3    3    0    0 -0.18396196134E+02  0.19811288162E+02 -0.24997457545E+02  0.54367081291E+02  0.39999993420E+02 0.  0.
        -12    1    3    3    0    0  0.18396196134E+02 -0.19811288162E+02  0.24997457545E+02  0.36820918709E+02  0.00000000000E+00 0.  1.
         11    1    4    4    0    0 -0.88483951648E+01  0.57750706935E+00 -0.68234916196E+01  0.11188728683E+02  0.51100000000E-03 0. -1.
        -11    1    4    4    0    0 -0.45924986964E+01 -0.77147909950E+01 -0.12177567295E+02  0.15129513867E+02  0.51100000000E-03 0.  1.
        -12    1    4    4    0    0 -0.49553022730E+01  0.26948572087E+02 -0.59963986304E+01  0.28048838741E+02  0.00000000000E+00 0.  1.
</event>
<event>
 8    1  0.1238315E-006  0.9118800E+02  0.7816164E-02  0.1184000E+00
        -11   -1    0    0    0    0  0.00000000000E+00  0.00000000000E+00  0.45593999997E+02  0.45594000000E+02  0.51100000000E-03 0.  1.
         11   -1    0    0    0    0 -0.00000000000E+00 -0.00000000000E+00 -0.45593999997E+02  0.45594000000E+02  0.51100000000E-03 0. -1.
         23    2    1    2    0    0 -0.35527136788E-14 -0.17763568394E-14  0.71054273576E-14  0.91188000000E+02  0.91188000000E+02 0.  0.
    9900012    2    3    3    0    0 -0.13777821226E+02 -0.11881943423E+02  0.32012029554E+02  0.54367095973E+02  0.40000026889E+02 0.  0.
         12    1    3    3    0    0  0.13777821226E+02  0.11881943423E+02 -0.32012029554E+02  0.36820904027E+02  0.00000000000E+00 0. -1.
         11    1    4    4    0    0 -0.40672486258E+01  0.42822490244E+01 -0.27954123683E+01  0.65341027433E+01  0.51100000000E-03 0. -1.
        -11    1    4    4    0    0  0.13433881609E+00  0.71394770569E+01  0.10866035898E+02  0.13002342711E+02  0.51100000000E-03 0.  1.
         12    1    4    4    0    0 -0.98449114160E+01 -0.23303669504E+02  0.23941406024E+02  0.34830650519E+02  0.00000000000E+00 0. -1.
</event>
<event>
 8    1  0.1238315E-006  0.9118800E+02  0.7816164E-02  0.1184000E+00
        -11   -1    0    0    0    0  0.00000000000E+00  0.00000000000E+00  0.45593999997E+02  0.45594000000E+02  0.51100000000E-03 0. -1.
         11   -1    0    0    0    0 -0.00000000000E+00 -0.00000000000E+00 -0.45593999997E+02  0.45594000000E+02  0.51100000000E-03 0.  1.
         23    2    1    2    0    0 -0.53290705182E-14 -0.35527136788E-14  0.35527136788E-14  0.91188000000E+02  0.91188000000E+02 0.  0.
    9900012    2    3    3    0    0 -0.14846257069E+02 -0.13699634096E+02  0.30784550518E+02  0.54367083744E+02  0.39999999011E+02 0.  0.
        -12    1    3    3    0    0  0.14846257069E+02  0.13699634096E+02 -0.30784550518E+02  0.36820916256E+02  0.00000000000E+00 0.  1.
         11    1    4    4    0    0  0.18797149015E+01  0.59425499351E+00  0.19290880096E+02  0.19391351739E+02  0.51100000000E-03 0. -1.
        -11    1    4    4    0    0  0.42478759877E+01 -0.70432672523E+01  0.96909445099E+01  0.12710879975E+02  0.51100000000E-03 0.  1.
         12    1    4    4    0    0 -0.20973847958E+02 -0.72506218372E+01  0.18027259122E+01  0.22264852030E+02  0.00000000000E+00 0. -1.
</event>
<event>
 8    1  0.1238315E-006  0.9118800E+02  0.7816164E-02  0.1184000E+00
        -11   -1    0    0    0    0  0.00000000000E+00  0.00000000000E+00  0.45593999997E+02  0.45594000000E+02  0.51100000000E-03 0.  1.
         11   -1    0    0    0    0 -0.00000000000E+00 -0.00000000000E+00 -0.45593999997E+02  0.45594000000E+02  0.51100000000E-03 0. -1.
         23    2    1    2    0    0 -0.17763568394E-14 -0.35527136788E-14 -0.35527136788E-14  0.91188000000E+02  0.91188000000E+02 0.  0.
    9900012    2    3    3    0    0  0.51383962903E+01  0.24341259719E+02  0.27145504349E+02  0.54367103114E+02  0.40000043169E+02 0.  0.
         12    1    3    3    0    0 -0.51383962903E+01 -0.24341259719E+02 -0.27145504349E+02  0.36820896886E+02  0.00000000000E+00 0. -1.
         11    1    4    4    0    0 -0.10389698006E+02 -0.42924943502E+01  0.35104463278E+01  0.11776865715E+02  0.51100000000E-03 0. -1.
        -11    1    4    4    0    0  0.28474666694E+01  0.61323744412E+00  0.70927150367E+01  0.76675115552E+01  0.51100000000E-03 0.  1.
         12    1    4    4    0    0  0.12680627627E+02  0.28020516625E+02  0.16542342984E+02  0.34922725844E+02  0.00000000000E+00 0. -1.
</event>
<event>
 8    1  0.1238315E-006  0.9118800E+02  0.7816164E-02  0.1184000E+00
        -11   -1    0    0    0    0  0.00000000000E+00  0.00000000000E+00  0.45593999997E+02  0.45594000000E+02  0.51100000000E-03 0.  1.
         11   -1    0    0    0    0 -0.00000000000E+00 -0.00000000000E+00 -0.45593999997E+02  0.45594000000E+02  0.51100000000E-03 0. -1.
         23    2    1    2    0    0  0.35527136788E-14  0.00000000000E+00 -0.35527136788E-14  0.91188000000E+02  0.91188000000E+02 0.  0.
    9900012    2    3    3    0    0  0.18999687281E+02  0.21125641005E+02 -0.23420050787E+02  0.54367087416E+02  0.40000007382E+02 0.  0.
        -12    1    3    3    0    0 -0.18999687281E+02 -0.21125641005E+02  0.23420050787E+02  0.36820912584E+02  0.00000000000E+00 0.  1.
         11    1    4    4    0    0 -0.70130101992E+01 -0.37176043985E+00 -0.75707694022E+01  0.10326522526E+02  0.51100000000E-03 0.  1.
        -11    1    4    4    0    0  0.11538347052E+02  0.20652473631E+02 -0.15991145027E+01  0.23711079419E+02  0.51100000000E-03 0. -1.
         12    1    4    4    0    0  0.14474350428E+02  0.84492781374E+00 -0.14250166882E+02  0.20329485471E+02  0.00000000000E+00 0. -1.
</event>
<event>
 8    1  0.1238315E-006  0.9118800E+02  0.7816164E-02  0.1184000E+00
        -11   -1    0    0    0    0  0.00000000000E+00  0.00000000000E+00  0.45593999997E+02  0.45594000000E+02  0.51100000000E-03 0. -1.
         11   -1    0    0    0    0 -0.00000000000E+00 -0.00000000000E+00 -0.45593999997E+02  0.45594000000E+02  0.51100000000E-03 0.  1.
         23    2    1    2    0    0 -0.17763568394E-14  0.00000000000E+00  0.00000000000E+00  0.91188000000E+02  0.91188000000E+02 0.  0.
    9900012    2    3    3    0    0  0.14122695233E+02 -0.15216165327E+02 -0.30410388994E+02  0.54367163960E+02  0.40000181879E+02 0.  0.
         12    1    3    3    0    0 -0.14122695233E+02  0.15216165327E+02  0.30410388994E+02  0.36820836040E+02  0.00000000000E+00 0. -1.
         11    1    4    4    0    0  0.50815611660E+01  0.69973208993E-01 -0.28863963510E+02  0.29307943461E+02  0.51100000000E-03 0. -1.
        -11    1    4    4    0    0  0.70321425305E+01 -0.13244294548E+02 -0.87118906967E+01  0.17342416395E+02  0.51100000000E-03 0.  1.
         12    1    4    4    0    0  0.20089915368E+01 -0.20418439875E+01  0.71654652123E+01  0.77168041036E+01  0.00000000000E+00 0. -1.
</event>
<event>
 8    1  0.1238315E-006  0.9118800E+02  0.7816164E-02  0.1184000E+00
        -11   -1    0    0    0    0  0.00000000000E+00  0.00000000000E+00  0.45593999997E+02  0.45594000000E+02  0.51100000000E-03 0. -1.
         11   -1    0    0    0    0 -0.00000000000E+00 -0.00000000000E+00 -0.45593999997E+02  0.45594000000E+02  0.51100000000E-03 0.  1.
         23    2    1    2    0    0 -0.26645352591E-14  0.00000000000E+00 -0.44408920985E-15  0.91188000000E+02  0.91188000000E+02 0.  0.
    9900012    2    3    3    0    0 -0.75694540089E+01 -0.36012861625E+02 -0.12474453599E+01  0.54367096204E+02  0.40000027416E+02 0.  0.
         12    1    3    3    0    0  0.75694540089E+01  0.36012861625E+02  0.12474453599E+01  0.36820903796E+02  0.00000000000E+00 0. -1.
         11    1    4    4    0    0  0.78260178805E+01 -0.65125491412E+01 -0.43506858691E+01  0.11071960981E+02  0.51100000000E-03 0. -1.
        -11    1    4    4    0    0  0.46818751134E+01  0.10800239558E+01  0.46415700564E+01  0.66806121854E+01  0.51100000000E-03 0.  1.
        -12    1    4    4    0    0 -0.20077347003E+02 -0.30580336440E+02 -0.15383295472E+01  0.36614523037E+02  0.00000000000E+00 0.  1.
</event>
<event>
 8    1  0.1238315E-006  0.9118800E+02  0.7816164E-02  0.1184000E+00
        -11   -1    0    0    0    0  0.00000000000E+00  0.00000000000E+00  0.45593999997E+02  0.45594000000E+02  0.51100000000E-03 0.  1.
         11   -1    0    0    0    0 -0.00000000000E+00 -0.00000000000E+00 -0.45593999997E+02  0.45594000000E+02  0.51100000000E-03 0. -1.
         23    2    1    2    0    0  0.00000000000E+00  0.00000000000E+00  0.00000000000E+00  0.91188000000E+02  0.91188000000E+02 0.  0.
    9900012    2    3    3    0    0  0.38534582926E+01 -0.36609424259E+02  0.82644669293E+00  0.54367053522E+02  0.39999930114E+02 0.  0.
        -12    1    3    3    0    0 -0.38534582926E+01  0.36609424259E+02 -0.82644669293E+00  0.36820946478E+02  0.00000000000E+00 0.  1.
         11    1    4    4    0    0 -0.10921741464E+02  0.15140974509E+00  0.77830750721E+00  0.10950485119E+02  0.51100000000E-03 0. -1.
        -11    1    4    4    0    0  0.80817497818E+01 -0.35531869529E+02  0.14505159052E+01  0.36468238625E+02  0.51100000000E-03 0.  1.
        -12    1    4    4    0    0  0.66934499742E+01 -0.12289644756E+01 -0.14023767195E+01  0.69483297780E+01  0.00000000000E+00 0.  1.
</event>
<event>
 8    1  0.1238315E-006  0.9118800E+02  0.7816164E-02  0.1184000E+00
        -11   -1    0    0    0    0  0.00000000000E+00  0.00000000000E+00  0.45593999997E+02  0.45594000000E+02  0.51100000000E-03 0.  1.
         11   -1    0    0    0    0 -0.00000000000E+00 -0.00000000000E+00 -0.45593999997E+02  0.45594000000E+02  0.51100000000E-03 0. -1.
         23    2    1    2    0    0  0.00000000000E+00 -0.88817841970E-15  0.00000000000E+00  0.91188000000E+02  0.91188000000E+02 0.  0.
    9900012    2    3    3    0    0  0.36119250625E+02 -0.64774125535E+01  0.30369080590E+01  0.54367082716E+02  0.39999996668E+02 0.  0.
        -12    1    3    3    0    0 -0.36119250625E+02  0.64774125535E+01 -0.30369080590E+01  0.36820917284E+02  0.00000000000E+00 0.  1.
         11    1    4    4    0    0  0.20328487361E+02  0.91722208162E+01  0.46622888452E+01  0.22784072740E+02  0.51100000000E-03 0. -1.
        -11    1    4    4    0    0 -0.54592387973E+01 -0.62657729228E+01 -0.54024299974E+00  0.83279686194E+01  0.51100000000E-03 0.  1.
         12    1    4    4    0    0  0.21250002061E+02 -0.93838604469E+01 -0.10851377864E+01  0.23255041357E+02  0.00000000000E+00 0. -1.
</event>
<event>
 8    1  0.1238315E-006  0.9118800E+02  0.7816164E-02  0.1184000E+00
        -11   -1    0    0    0    0  0.00000000000E+00  0.00000000000E+00  0.45593999997E+02  0.45594000000E+02  0.51100000000E-03 0.  1.
         11   -1    0    0    0    0 -0.00000000000E+00 -0.00000000000E+00 -0.45593999997E+02  0.45594000000E+02  0.51100000000E-03 0. -1.
         23    2    1    2    0    0  0.88817841970E-15  0.00000000000E+00  0.35527136788E-14  0.91188000000E+02  0.91188000000E+02 0.  0.
    9900012    2    3    3    0    0 -0.89981049408E+00 -0.24693956663E+02  0.27297954522E+02  0.54367089152E+02  0.40000011340E+02 0.  0.
         12    1    3    3    0    0  0.89981049408E+00  0.24693956663E+02 -0.27297954522E+02  0.36820910848E+02  0.00000000000E+00 0. -1.
         11    1    4    4    0    0  0.16224504438E+02 -0.31662975042E+01  0.12782111751E+02  0.20895989214E+02  0.51100000000E-03 0. -1.
        -11    1    4    4    0    0 -0.12874163587E+02 -0.62952158834E+01  0.74196699228E+01  0.16137699127E+02  0.51100000000E-03 0.  1.
         12    1    4    4    0    0 -0.42501513459E+01 -0.15232443275E+02  0.70961728475E+01  0.17333400811E+02  0.00000000000E+00 0. -1.
</event>
<event>
 8    1  0.1238315E-006  0.9118800E+02  0.7816164E-02  0.1184000E+00
        -11   -1    0    0    0    0  0.00000000000E+00  0.00000000000E+00  0.45593999997E+02  0.45594000000E+02  0.51100000000E-03 0.  1.
         11   -1    0    0    0    0 -0.00000000000E+00 -0.00000000000E+00 -0.45593999997E+02  0.45594000000E+02  0.51100000000E-03 0. -1.
         23    2    1    2    0    0 -0.17763568394E-14  0.35527136788E-14  0.35527136788E-14  0.91188000000E+02  0.91188000000E+02 0.  0.
    9900012    2    3    3    0    0  0.95461341746E+01 -0.16392091367E+02 -0.31558624549E+02  0.54367134713E+02  0.40000115206E+02 0.  0.
        -12    1    3    3    0    0 -0.95461341746E+01  0.16392091367E+02  0.31558624549E+02  0.36820865287E+02  0.00000000000E+00 0.  1.
         11    1    4    4    0    0 -0.49391022894E+01  0.93603446415E+01 -0.16469787510E+02  0.19577146986E+02  0.51100000000E-03 0. -1.
        -11    1    4    4    0    0  0.32613109717E+01 -0.14254940231E+02 -0.36659985287E+01  0.15075775792E+02  0.51100000000E-03 0.  1.
         12    1    4    4    0    0  0.11223925492E+02 -0.11497495777E+02 -0.11422838510E+02  0.19714211935E+02  0.00000000000E+00 0. -1.
</event>
<event>
 8    1  0.1238315E-006  0.9118800E+02  0.7816164E-02  0.1184000E+00
        -11   -1    0    0    0    0  0.00000000000E+00  0.00000000000E+00  0.45593999997E+02  0.45594000000E+02  0.51100000000E-03 0.  1.
         11   -1    0    0    0    0 -0.00000000000E+00 -0.00000000000E+00 -0.45593999997E+02  0.45594000000E+02  0.51100000000E-03 0. -1.
         23    2    1    2    0    0  0.35527136788E-14  0.00000000000E+00 -0.71054273576E-14  0.91188000000E+02  0.91188000000E+02 0.  0.
    9900012    2    3    3    0    0  0.14524673151E+02  0.87312721488E+01 -0.32689126394E+02  0.54367078937E+02  0.39999988054E+02 0.  0.
         12    1    3    3    0    0 -0.14524673151E+02 -0.87312721488E+01  0.32689126394E+02  0.36820921063E+02  0.00000000000E+00 0. -1.
         11    1    4    4    0    0  0.45364179801E+01  0.10564081014E+02 -0.11824488078E+01  0.11557555157E+02  0.51100000000E-03 0. -1.
        -11    1    4    4    0    0  0.16762158695E+02 -0.85018573890E+01 -0.16312264816E+02  0.24886573225E+02  0.51100000000E-03 0.  1.
         12    1    4    4    0    0 -0.67739035247E+01  0.66690485239E+01 -0.15194412771E+02  0.17922950556E+02  0.00000000000E+00 0. -1.
</event>
<event>
 8    1  0.1238315E-006  0.9118800E+02  0.7816164E-02  0.1184000E+00
        -11   -1    0    0    0    0  0.00000000000E+00  0.00000000000E+00  0.45593999997E+02  0.45594000000E+02  0.51100000000E-03 0.  1.
         11   -1    0    0    0    0 -0.00000000000E+00 -0.00000000000E+00 -0.45593999997E+02  0.45594000000E+02  0.51100000000E-03 0. -1.
         23    2    1    2    0    0  0.00000000000E+00  0.00000000000E+00 -0.71054273576E-14  0.91188000000E+02  0.91188000000E+02 0.  0.
    9900012    2    3    3    0    0 -0.15505489531E+02  0.79471237709E+01 -0.32437679737E+02  0.54367081373E+02  0.39999993606E+02 0.  0.
        -12    1    3    3    0    0  0.15505489531E+02 -0.79471237709E+01  0.32437679737E+02  0.36820918627E+02  0.00000000000E+00 0.  1.
         11    1    4    4    0    0  0.13032326043E+01  0.11182233452E+02 -0.11461219125E+02  0.16065500437E+02  0.51100000000E-03 0. -1.
        -11    1    4    4    0    0 -0.12408280487E+02  0.69098480049E+00  0.36710528736E+01  0.12958376214E+02  0.51100000000E-03 0.  1.
        -12    1    4    4    0    0 -0.44004416480E+01 -0.39260944817E+01 -0.24647513485E+02  0.25343204722E+02  0.00000000000E+00 0.  1.
</event>
<event>
 8    1  0.1238315E-006  0.9118800E+02  0.7816164E-02  0.1184000E+00
        -11   -1    0    0    0    0  0.00000000000E+00  0.00000000000E+00  0.45593999997E+02  0.45594000000E+02  0.51100000000E-03 0. -1.
         11   -1    0    0    0    0 -0.00000000000E+00 -0.00000000000E+00 -0.45593999997E+02  0.45594000000E+02  0.51100000000E-03 0.  1.
         23    2    1    2    0    0  0.00000000000E+00  0.00000000000E+00 -0.71054273576E-14  0.91188000000E+02  0.91188000000E+02 0.  0.
    9900012    2    3    3    0    0  0.29221324085E+02 -0.12119005907E+02  0.18842072537E+02  0.54367084980E+02  0.40000001828E+02 0.  0.
         12    1    3    3    0    0 -0.29221324085E+02  0.12119005907E+02 -0.18842072537E+02  0.36820915020E+02  0.00000000000E+00 0. -1.
         11    1    4    4    0    0 -0.22466099745E+01 -0.18963975565E+01 -0.30413195194E+00  0.29556854662E+01  0.51100000000E-03 0. -1.
        -11    1    4    4    0    0  0.23637536871E+02 -0.16948315586E+02 -0.64192153375E+00  0.29092793163E+02  0.51100000000E-03 0.  1.
        -12    1    4    4    0    0  0.78303971882E+01  0.67257072350E+01  0.19788126022E+02  0.22318606350E+02  0.00000000000E+00 0.  1.
</event>
<event>
 8    1  0.1238315E-006  0.9118800E+02  0.7816164E-02  0.1184000E+00
        -11   -1    0    0    0    0  0.00000000000E+00  0.00000000000E+00  0.45593999997E+02  0.45594000000E+02  0.51100000000E-03 0.  1.
         11   -1    0    0    0    0 -0.00000000000E+00 -0.00000000000E+00 -0.45593999997E+02  0.45594000000E+02  0.51100000000E-03 0. -1.
         23    2    1    2    0    0 -0.35527136788E-14 -0.17763568394E-14  0.00000000000E+00  0.91188000000E+02  0.91188000000E+02 0.  0.
    9900012    2    3    3    0    0 -0.31225528699E+02 -0.68191017539E+01 -0.18282432646E+02  0.54367066623E+02  0.39999959981E+02 0.  0.
        -12    1    3    3    0    0  0.31225528699E+02  0.68191017539E+01  0.18282432646E+02  0.36820933377E+02  0.00000000000E+00 0.  1.
         11    1    4    4    0    0 -0.16437081469E+01 -0.42049073828E+00  0.81468531003E+01  0.83216467500E+01  0.51100000000E-03 0. -1.
        -11    1    4    4    0    0 -0.73732546242E+01  0.51061252460E+01  0.88186867753E+00  0.90119416003E+01  0.51100000000E-03 0.  1.
         12    1    4    4    0    0 -0.22208565928E+02 -0.11504736262E+02 -0.27311154424E+02  0.37033478273E+02  0.00000000000E+00 0. -1.
</event>
<event>
 8    1  0.1238315E-006  0.9118800E+02  0.7816164E-02  0.1184000E+00
        -11   -1    0    0    0    0  0.00000000000E+00  0.00000000000E+00  0.45593999997E+02  0.45594000000E+02  0.51100000000E-03 0.  1.
         11   -1    0    0    0    0 -0.00000000000E+00 -0.00000000000E+00 -0.45593999997E+02  0.45594000000E+02  0.51100000000E-03 0. -1.
         23    2    1    2    0    0 -0.35527136788E-14 -0.17763568394E-14  0.00000000000E+00  0.91188000000E+02  0.91188000000E+02 0.  0.
    9900012    2    3    3    0    0 -0.26920577482E+02 -0.12136118773E+02 -0.21994952743E+02  0.54367070938E+02  0.39999969817E+02 0.  0.
         12    1    3    3    0    0  0.26920577482E+02  0.12136118773E+02  0.21994952743E+02  0.36820929062E+02  0.00000000000E+00 0. -1.
         11    1    4    4    0    0  0.92858410391E+01 -0.23609709412E+01 -0.60127992631E+01  0.11311709987E+02  0.51100000000E-03 0. -1.
        -11    1    4    4    0    0 -0.10241854447E+02 -0.28000279296E+00 -0.10875207627E+02  0.14941356206E+02  0.51100000000E-03 0.  1.
        -12    1    4    4    0    0 -0.25964564074E+02 -0.94951450389E+01 -0.51069458529E+01  0.28114004745E+02  0.00000000000E+00 0.  1.
</event>
<event>
 8    1  0.1238315E-006  0.9118800E+02  0.7816164E-02  0.1184000E+00
        -11   -1    0    0    0    0  0.00000000000E+00  0.00000000000E+00  0.45593999997E+02  0.45594000000E+02  0.51100000000E-03 0. -1.
         11   -1    0    0    0    0 -0.00000000000E+00 -0.00000000000E+00 -0.45593999997E+02  0.45594000000E+02  0.51100000000E-03 0.  1.
         23    2    1    2    0    0  0.17763568394E-14  0.00000000000E+00  0.00000000000E+00  0.91188000000E+02  0.91188000000E+02 0.  0.
    9900012    2    3    3    0    0  0.10066079942E+02  0.35207053575E+02 -0.38620914526E+01  0.54367104611E+02  0.40000046582E+02 0.  0.
         12    1    3    3    0    0 -0.10066079942E+02 -0.35207053575E+02  0.38620914526E+01  0.36820895389E+02  0.00000000000E+00 0. -1.
         11    1    4    4    0    0 -0.10198226442E+02 -0.31503412691E+01 -0.90017442256E+00  0.10711619249E+02  0.51100000000E-03 0. -1.
        -11    1    4    4    0    0  0.44813881520E+01  0.94090015576E+01  0.89122225191E+00  0.10459752743E+02  0.51100000000E-03 0.  1.
         12    1    4    4    0    0  0.15782918233E+02  0.28948393286E+02 -0.38531392819E+01  0.33195732619E+02  0.00000000000E+00 0. -1.
</event>
<event>
 8    1  0.1238315E-006  0.9118800E+02  0.7816164E-02  0.1184000E+00
        -11   -1    0    0    0    0  0.00000000000E+00  0.00000000000E+00  0.45593999997E+02  0.45594000000E+02  0.51100000000E-03 0.  1.
         11   -1    0    0    0    0 -0.00000000000E+00 -0.00000000000E+00 -0.45593999997E+02  0.45594000000E+02  0.51100000000E-03 0. -1.
         23    2    1    2    0    0  0.35527136788E-14  0.00000000000E+00  0.35527136788E-14  0.91188000000E+02  0.91188000000E+02 0.  0.
    9900012    2    3    3    0    0 -0.14730032158E+02 -0.21906595017E+02  0.25669190652E+02  0.54367080656E+02  0.39999991971E+02 0.  0.
         12    1    3    3    0    0  0.14730032158E+02  0.21906595017E+02 -0.25669190652E+02  0.36820919344E+02  0.00000000000E+00 0. -1.
         11    1    4    4    0    0  0.17162999973E+01 -0.15460814044E+02  0.26441804280E+02  0.30678192098E+02  0.51100000000E-03 0. -1.
        -11    1    4    4    0    0  0.12947595156E+01 -0.56511174199E+01  0.83510761147E+00  0.58573829720E+01  0.51100000000E-03 0.  1.
         12    1    4    4    0    0 -0.17741091671E+02 -0.79466355377E+00 -0.16077212400E+01  0.17831505585E+02  0.00000000000E+00 0. -1.
</event>
<event>
 8    1  0.1238315E-006  0.9118800E+02  0.7816164E-02  0.1184000E+00
        -11   -1    0    0    0    0  0.00000000000E+00  0.00000000000E+00  0.45593999997E+02  0.45594000000E+02  0.51100000000E-03 0.  1.
         11   -1    0    0    0    0 -0.00000000000E+00 -0.00000000000E+00 -0.45593999997E+02  0.45594000000E+02  0.51100000000E-03 0. -1.
         23    2    1    2    0    0 -0.35527136788E-14  0.17763568394E-14 -0.35527136788E-14  0.91188000000E+02  0.91188000000E+02 0.  0.
    9900012    2    3    3    0    0 -0.23371086017E+02  0.77340844885E+01  0.27381682401E+02  0.54367078562E+02  0.39999987197E+02 0.  0.
         12    1    3    3    0    0  0.23371086017E+02 -0.77340844885E+01 -0.27381682401E+02  0.36820921438E+02  0.00000000000E+00 0. -1.
         11    1    4    4    0    0  0.90295336814E+00 -0.38927757988E+01 -0.45964924013E+01  0.60907118518E+01  0.51100000000E-03 0. -1.
        -11    1    4    4    0    0 -0.26773714474E+02  0.11804579639E+02  0.34142288023E+02  0.44965272366E+02  0.51100000000E-03 0.  1.
        -12    1    4    4    0    0  0.24996750890E+01 -0.17771935190E+00 -0.21641132214E+01  0.33110943439E+01  0.00000000000E+00 0.  1.
</event>
<event>
 8    1  0.1238315E-006  0.9118800E+02  0.7816164E-02  0.1184000E+00
        -11   -1    0    0    0    0  0.00000000000E+00  0.00000000000E+00  0.45593999997E+02  0.45594000000E+02  0.51100000000E-03 0.  1.
         11   -1    0    0    0    0 -0.00000000000E+00 -0.00000000000E+00 -0.45593999997E+02  0.45594000000E+02  0.51100000000E-03 0. -1.
         23    2    1    2    0    0  0.35527136788E-14  0.35527136788E-14  0.49960036108E-15  0.91188000000E+02  0.91188000000E+02 0.  0.
    9900012    2    3    3    0    0  0.27590068926E+02  0.24383445669E+02 -0.10341102525E+00  0.54367149659E+02  0.40000149276E+02 0.  0.
         12    1    3    3    0    0 -0.27590068926E+02 -0.24383445669E+02  0.10341102525E+00  0.36820850341E+02  0.00000000000E+00 0. -1.
         11    1    4    4    0    0  0.95055355467E+01  0.54564191121E+00  0.41880335183E+01  0.10401565081E+02  0.51100000000E-03 0. -1.
        -11    1    4    4    0    0  0.25451796481E+02  0.24645548213E+02 -0.54979102870E-01  0.35428802037E+02  0.51100000000E-03 0.  1.
         12    1    4    4    0    0 -0.73672631016E+01 -0.80774445510E+00 -0.42364654407E+01  0.85367825404E+01  0.00000000000E+00 0. -1.
</event>
<event>
 8    1  0.1238315E-006  0.9118800E+02  0.7816164E-02  0.1184000E+00
        -11   -1    0    0    0    0  0.00000000000E+00  0.00000000000E+00  0.45593999997E+02  0.45594000000E+02  0.51100000000E-03 0. -1.
         11   -1    0    0    0    0 -0.00000000000E+00 -0.00000000000E+00 -0.45593999997E+02  0.45594000000E+02  0.51100000000E-03 0.  1.
         23    2    1    2    0    0  0.35527136788E-14  0.17763568394E-14  0.71054273576E-14  0.91188000000E+02  0.91188000000E+02 0.  0.
    9900012    2    3    3    0    0  0.26274660747E+02  0.62468789206E+01  0.25027947425E+02  0.54367089556E+02  0.40000012260E+02 0.  0.
        -12    1    3    3    0    0 -0.26274660747E+02 -0.62468789206E+01 -0.25027947425E+02  0.36820910444E+02  0.00000000000E+00 0.  1.
         11    1    4    4    0    0  0.12294530163E+00 -0.62050375961E+01  0.15407292966E+01  0.63946426126E+01  0.51100000000E-03 0. -1.
        -11    1    4    4    0    0 -0.32964935793E+01  0.85029510524E+00 -0.45544239440E+01  0.56861805641E+01  0.51100000000E-03 0.  1.
         12    1    4    4    0    0  0.29448209025E+02  0.11601621412E+02  0.28041642073E+02  0.42286266379E+02  0.00000000000E+00 0. -1.
</event>
<event>
 8    1  0.1238315E-006  0.9118800E+02  0.7816164E-02  0.1184000E+00
        -11   -1    0    0    0    0  0.00000000000E+00  0.00000000000E+00  0.45593999997E+02  0.45594000000E+02  0.51100000000E-03 0.  1.
         11   -1    0    0    0    0 -0.00000000000E+00 -0.00000000000E+00 -0.45593999997E+02  0.45594000000E+02  0.51100000000E-03 0. -1.
         23    2    1    2    0    0  0.17763568394E-14 -0.35527136788E-14  0.00000000000E+00  0.91188000000E+02  0.91188000000E+02 0.  0.
    9900012    2    3    3    0    0 -0.77928444787E+01  0.31724432493E+02 -0.16988542978E+02  0.54367100573E+02  0.40000037376E+02 0.  0.
        -12    1    3    3    0    0  0.77928444787E+01 -0.31724432493E+02  0.16988542978E+02  0.36820899427E+02  0.00000000000E+00 0.  1.
         11    1    4    4    0    0 -0.14314660947E+02  0.16222747027E+02 -0.59460589759E+00  0.21643488526E+02  0.51100000000E-03 0. -1.
        -11    1    4    4    0    0  0.14639045123E+02  0.60070275862E+01 -0.88323839716E+01  0.18121728103E+02  0.51100000000E-03 0.  1.
        -12    1    4    4    0    0 -0.81172286547E+01  0.94946578799E+01 -0.75615531092E+01  0.14601883944E+02  0.00000000000E+00 0.  1.
</event>
<event>
 8    1  0.1238315E-006  0.9118800E+02  0.7816164E-02  0.1184000E+00
        -11   -1    0    0    0    0  0.00000000000E+00  0.00000000000E+00  0.45593999997E+02  0.45594000000E+02  0.51100000000E-03 0.  1.
         11   -1    0    0    0    0 -0.00000000000E+00 -0.00000000000E+00 -0.45593999997E+02  0.45594000000E+02  0.51100000000E-03 0. -1.
         23    2    1    2    0    0  0.00000000000E+00  0.00000000000E+00  0.00000000000E+00  0.91188000000E+02  0.91188000000E+02 0.  0.
    9900012    2    3    3    0    0  0.20079934424E+02 -0.65138524723E+01  0.30168633147E+02  0.54367075698E+02  0.39999980668E+02 0.  0.
         12    1    3    3    0    0 -0.20079934424E+02  0.65138524723E+01 -0.30168633147E+02  0.36820924302E+02  0.00000000000E+00 0. -1.
         11    1    4    4    0    0  0.68775637510E+01  0.43033548561E+01  0.12185404790E+02  0.14639120067E+02  0.51100000000E-03 0. -1.
        -11    1    4    4    0    0  0.16697192015E+02 -0.77062178440E+01  0.25157862259E+02  0.31162478212E+02  0.51100000000E-03 0.  1.
        -12    1    4    4    0    0 -0.34948213423E+01 -0.31109894844E+01 -0.71746339015E+01  0.85654774185E+01  0.00000000000E+00 0.  1.
</event>
<event>
 8    1  0.1238315E-006  0.9118800E+02  0.7816164E-02  0.1184000E+00
        -11   -1    0    0    0    0  0.00000000000E+00  0.00000000000E+00  0.45593999997E+02  0.45594000000E+02  0.51100000000E-03 0.  1.
         11   -1    0    0    0    0 -0.00000000000E+00 -0.00000000000E+00 -0.45593999997E+02  0.45594000000E+02  0.51100000000E-03 0. -1.
         23    2    1    2    0    0 -0.13322676296E-14  0.00000000000E+00  0.00000000000E+00  0.91188000000E+02  0.91188000000E+02 0.  0.
    9900012    2    3    3    0    0 -0.34872254631E+01 -0.12079162144E+02  0.34607996210E+02  0.54367077942E+02  0.39999985784E+02 0.  0.
         12    1    3    3    0    0  0.34872254631E+01  0.12079162144E+02 -0.34607996210E+02  0.36820922058E+02  0.00000000000E+00 0. -1.
         11    1    4    4    0    0 -0.84792684763E+00 -0.12072909573E+02  0.32191040357E+01  0.12523448269E+02  0.51100000000E-03 0. -1.
        -11    1    4    4    0    0  0.88023415648E+01 -0.73604354818E+01  0.23420110044E+02  0.26079853954E+02  0.51100000000E-03 0.  1.
        -12    1    4    4    0    0 -0.11441640180E+02  0.73541829103E+01  0.79687821300E+01  0.15763775719E+02  0.00000000000E+00 0.  1.
</event>
<event>
 8    1  0.1238315E-006  0.9118800E+02  0.7816164E-02  0.1184000E+00
        -11   -1    0    0    0    0  0.00000000000E+00  0.00000000000E+00  0.45593999997E+02  0.45594000000E+02  0.51100000000E-03 0. -1.
         11   -1    0    0    0    0 -0.00000000000E+00 -0.00000000000E+00 -0.45593999997E+02  0.45594000000E+02  0.51100000000E-03 0.  1.
         23    2    1    2    0    0  0.00000000000E+00  0.00000000000E+00  0.00000000000E+00  0.91188000000E+02  0.91188000000E+02 0.  0.
    9900012    2    3    3    0    0 -0.17473828292E+02 -0.80468135933E+01 -0.31395759355E+02  0.54367087605E+02  0.40000007812E+02 0.  0.
         12    1    3    3    0    0  0.17473828292E+02  0.80468135933E+01  0.31395759355E+02  0.36820912395E+02  0.00000000000E+00 0. -1.
         11    1    4    4    0    0 -0.44257303953E+01 -0.71481462430E+01  0.25816713394E+01  0.87947775077E+01  0.51100000000E-03 0. -1.
        -11    1    4    4    0    0 -0.13959419153E+02 -0.10409254315E+02 -0.10768677692E+02  0.20473943880E+02  0.51100000000E-03 0.  1.
        -12    1    4    4    0    0  0.91132125678E+00  0.95105869651E+01 -0.23208753002E+02  0.25098366217E+02  0.00000000000E+00 0.  1.
</event>
<event>
 8    1  0.1238315E-006  0.9118800E+02  0.7816164E-02  0.1184000E+00
        -11   -1    0    0    0    0  0.00000000000E+00  0.00000000000E+00  0.45593999997E+02  0.45594000000E+02  0.51100000000E-03 0.  1.
         11   -1    0    0    0    0 -0.00000000000E+00 -0.00000000000E+00 -0.45593999997E+02  0.45594000000E+02  0.51100000000E-03 0. -1.
         23    2    1    2    0    0 -0.35527136788E-14 -0.35527136788E-14  0.17763568394E-14  0.91188000000E+02  0.91188000000E+02 0.  0.
    9900012    2    3    3    0    0 -0.24371637494E+02 -0.24916830060E+02  0.11872509427E+02  0.54367060109E+02  0.39999945131E+02 0.  0.
         12    1    3    3    0    0  0.24371637494E+02  0.24916830060E+02 -0.11872509427E+02  0.36820939891E+02  0.00000000000E+00 0. -1.
         11    1    4    4    0    0 -0.11867652339E+02 -0.27096507222E+02  0.19900864196E+02  0.35652577350E+02  0.51100000000E-03 0. -1.
        -11    1    4    4    0    0  0.31875112059E+00 -0.15498089861E+00 -0.54086764000E+01  0.54202769317E+01  0.51100000000E-03 0.  1.
        -12    1    4    4    0    0 -0.12822736275E+02  0.23346580605E+01 -0.26196783693E+01  0.13294205828E+02  0.00000000000E+00 0.  1.
</event>
<event>
 8    1  0.1238315E-006  0.9118800E+02  0.7816164E-02  0.1184000E+00
        -11   -1    0    0    0    0  0.00000000000E+00  0.00000000000E+00  0.45593999997E+02  0.45594000000E+02  0.51100000000E-03 0.  1.
         11   -1    0    0    0    0 -0.00000000000E+00 -0.00000000000E+00 -0.45593999997E+02  0.45594000000E+02  0.51100000000E-03 0. -1.
         23    2    1    2    0    0  0.35527136788E-14 -0.71054273576E-14 -0.44408920985E-15  0.91188000000E+02  0.91188000000E+02 0.  0.
    9900012    2    3    3    0    0  0.16366968665E+02 -0.32777637402E+02 -0.36782337872E+01  0.54367074146E+02  0.39999977130E+02 0.  0.
         12    1    3    3    0    0 -0.16366968665E+02  0.32777637402E+02  0.36782337872E+01  0.36820925854E+02  0.00000000000E+00 0. -1.
         11    1    4    4    0    0  0.86971762784E+01 -0.76413933767E+01 -0.25091861743E+00  0.11579927822E+02  0.51100000000E-03 0. -1.
        -11    1    4    4    0    0  0.21041162973E+02 -0.14664685138E+02 -0.26808163067E+01  0.25787018164E+02  0.51100000000E-03 0.  1.
        -12    1    4    4    0    0 -0.13371370586E+02 -0.10471558887E+02 -0.74649886306E+00  0.17000128159E+02  0.00000000000E+00 0.  1.
</event>
<event>
 8    1  0.1238315E-006  0.9118800E+02  0.7816164E-02  0.1184000E+00
        -11   -1    0    0    0    0  0.00000000000E+00  0.00000000000E+00  0.45593999997E+02  0.45594000000E+02  0.51100000000E-03 0.  1.
         11   -1    0    0    0    0 -0.00000000000E+00 -0.00000000000E+00 -0.45593999997E+02  0.45594000000E+02  0.51100000000E-03 0. -1.
         23    2    1    2    0    0  0.00000000000E+00  0.00000000000E+00  0.00000000000E+00  0.91188000000E+02  0.91188000000E+02 0.  0.
    9900012    2    3    3    0    0 -0.14588869298E+02  0.23779545114E+02  0.24030763587E+02  0.54367089204E+02  0.40000011459E+02 0.  0.
         12    1    3    3    0    0  0.14588869298E+02 -0.23779545114E+02 -0.24030763587E+02  0.36820910796E+02  0.00000000000E+00 0. -1.
         11    1    4    4    0    0 -0.97136010047E+00 -0.49332646552E+00  0.57170778539E+01  0.58199562623E+01  0.51100000000E-03 0. -1.
        -11    1    4    4    0    0 -0.22829038529E+02  0.11437328339E+02  0.20305175163E+02  0.32623268052E+02  0.51100000000E-03 0.  1.
        -12    1    4    4    0    0  0.92115293314E+01  0.12835543240E+02 -0.19914894298E+01  0.15923864890E+02  0.00000000000E+00 0.  1.
</event>
<event>
 8    1  0.1238315E-006  0.9118800E+02  0.7816164E-02  0.1184000E+00
        -11   -1    0    0    0    0  0.00000000000E+00  0.00000000000E+00  0.45593999997E+02  0.45594000000E+02  0.51100000000E-03 0.  1.
         11   -1    0    0    0    0 -0.00000000000E+00 -0.00000000000E+00 -0.45593999997E+02  0.45594000000E+02  0.51100000000E-03 0. -1.
         23    2    1    2    0    0  0.00000000000E+00 -0.17763568394E-14  0.00000000000E+00  0.91188000000E+02  0.91188000000E+02 0.  0.
    9900012    2    3    3    0    0  0.34781571040E+02 -0.84265643578E+01 -0.86611561155E+01  0.54367078011E+02  0.39999985941E+02 0.  0.
        -12    1    3    3    0    0 -0.34781571040E+02  0.84265643578E+01  0.86611561155E+01  0.36820921989E+02  0.00000000000E+00 0.  1.
         11    1    4    4    0    0  0.17272099913E+01 -0.15503023518E+01  0.92534416372E-01  0.23227687391E+01  0.51100000000E-03 0. -1.
        -11    1    4    4    0    0  0.41891427131E+02 -0.49891817383E+01 -0.60985648979E+01  0.42626002576E+02  0.51100000000E-03 0.  1.
        -12    1    4    4    0    0 -0.88370660825E+01 -0.18870802678E+01 -0.26551256340E+01  0.94183066958E+01  0.00000000000E+00 0.  1.
</event>
<event>
 8    1  0.1238315E-006  0.9118800E+02  0.7816164E-02  0.1184000E+00
        -11   -1    0    0    0    0  0.00000000000E+00  0.00000000000E+00  0.45593999997E+02  0.45594000000E+02  0.51100000000E-03 0. -1.
         11   -1    0    0    0    0 -0.00000000000E+00 -0.00000000000E+00 -0.45593999997E+02  0.45594000000E+02  0.51100000000E-03 0.  1.
         23    2    1    2    0    0  0.00000000000E+00 -0.35527136788E-14  0.17763568394E-14  0.91188000000E+02  0.91188000000E+02 0.  0.
    9900012    2    3    3    0    0 -0.30046072426E+02  0.16511989837E+02 -0.13430153002E+02  0.54367064566E+02  0.39999955291E+02 0.  0.
        -12    1    3    3    0    0  0.30046072426E+02 -0.16511989837E+02  0.13430153002E+02  0.36820935434E+02  0.00000000000E+00 0.  1.
         11    1    4    4    0    0  0.17095619702E+01  0.14618283535E+01  0.35536553210E-01  0.22496238291E+01  0.51100000000E-03 0. -1.
        -11    1    4    4    0    0 -0.19180990554E+02  0.12662357056E+02 -0.25653613280E+02  0.34443483555E+02  0.51100000000E-03 0.  1.
         12    1    4    4    0    0 -0.12574643842E+02  0.23878044280E+01  0.12187923725E+02  0.17673957181E+02  0.00000000000E+00 0. -1.
</event>
<event>
 8    1  0.1238315E-006  0.9118800E+02  0.7816164E-02  0.1184000E+00
        -11   -1    0    0    0    0  0.00000000000E+00  0.00000000000E+00  0.45593999997E+02  0.45594000000E+02  0.51100000000E-03 0.  1.
         11   -1    0    0    0    0 -0.00000000000E+00 -0.00000000000E+00 -0.45593999997E+02  0.45594000000E+02  0.51100000000E-03 0. -1.
         23    2    1    2    0    0 -0.17763568394E-14  0.71054273576E-14  0.35527136788E-14  0.91188000000E+02  0.91188000000E+02 0.  0.
    9900012    2    3    3    0    0 -0.51946550580E+01  0.32130836461E+02  0.17216424561E+02  0.54367077041E+02  0.39999983731E+02 0.  0.
         12    1    3    3    0    0  0.51946550580E+01 -0.32130836461E+02 -0.17216424561E+02  0.36820922959E+02  0.00000000000E+00 0. -1.
         11    1    4    4    0    0  0.46967860456E+01 -0.10167365261E+01 -0.41711035115E+01  0.63633055157E+01  0.51100000000E-03 0. -1.
        -11    1    4    4    0    0  0.15414219845E+01  0.17412097096E+02 -0.19897109174E+01  0.17593068431E+02  0.51100000000E-03 0.  1.
         12    1    4    4    0    0 -0.11432863088E+02  0.15735475891E+02  0.23377238990E+02  0.30410703095E+02  0.00000000000E+00 0. -1.
</event>
<event>
 8    1  0.1238315E-006  0.9118800E+02  0.7816164E-02  0.1184000E+00
        -11   -1    0    0    0    0  0.00000000000E+00  0.00000000000E+00  0.45593999997E+02  0.45594000000E+02  0.51100000000E-03 0.  1.
         11   -1    0    0    0    0 -0.00000000000E+00 -0.00000000000E+00 -0.45593999997E+02  0.45594000000E+02  0.51100000000E-03 0. -1.
         23    2    1    2    0    0 -0.88817841970E-15  0.71054273576E-14  0.00000000000E+00  0.91188000000E+02  0.91188000000E+02 0.  0.
    9900012    2    3    3    0    0  0.44224190695E+01 -0.32624196660E+02 -0.16488928444E+02  0.54367071721E+02  0.39999971602E+02 0.  0.
         12    1    3    3    0    0 -0.44224190695E+01  0.32624196660E+02  0.16488928444E+02  0.36820928279E+02  0.00000000000E+00 0. -1.
         11    1    4    4    0    0 -0.74633950035E+01 -0.16403088317E+02 -0.20097390353E+02  0.26993863573E+02  0.51100000000E-03 0. -1.
        -11    1    4    4    0    0 -0.48436635221E+01 -0.51325622078E+01  0.12010383717E+01  0.71586845554E+01  0.51100000000E-03 0.  1.
        -12    1    4    4    0    0  0.16729477595E+02 -0.11088546134E+02  0.24074235372E+01  0.20214523592E+02  0.00000000000E+00 0.  1.
</event>
<event>
 8    1  0.1238315E-006  0.9118800E+02  0.7816164E-02  0.1184000E+00
        -11   -1    0    0    0    0  0.00000000000E+00  0.00000000000E+00  0.45593999997E+02  0.45594000000E+02  0.51100000000E-03 0.  1.
         11   -1    0    0    0    0 -0.00000000000E+00 -0.00000000000E+00 -0.45593999997E+02  0.45594000000E+02  0.51100000000E-03 0. -1.
         23    2    1    2    0    0  0.00000000000E+00  0.17763568394E-14  0.00000000000E+00  0.91188000000E+02  0.91188000000E+02 0.  0.
    9900012    2    3    3    0    0  0.94178924961E+01 -0.10491673455E+02  0.34014797573E+02  0.54367104236E+02  0.40000045726E+02 0.  0.
         12    1    3    3    0    0 -0.94178924961E+01  0.10491673455E+02 -0.34014797573E+02  0.36820895764E+02  0.00000000000E+00 0. -1.
         11    1    4    4    0    0  0.39971528665E+01  0.75894101565E+01  0.45505106823E+01  0.97099704063E+01  0.51100000000E-03 0.  1.
        -11    1    4    4    0    0  0.55755188501E+01 -0.70530579268E+00 -0.40355733263E+01  0.69187946235E+01  0.51100000000E-03 0. -1.
        -12    1    4    4    0    0 -0.15477922052E+00 -0.17375777819E+02  0.33499860217E+02  0.37738339206E+02  0.00000000000E+00 0.  1.
</event>
<event>
 8    1  0.1238315E-006  0.9118800E+02  0.7816164E-02  0.1184000E+00
        -11   -1    0    0    0    0  0.00000000000E+00  0.00000000000E+00  0.45593999997E+02  0.45594000000E+02  0.51100000000E-03 0. -1.
         11   -1    0    0    0    0 -0.00000000000E+00 -0.00000000000E+00 -0.45593999997E+02  0.45594000000E+02  0.51100000000E-03 0.  1.
         23    2    1    2    0    0  0.35527136788E-14  0.35527136788E-14  0.44408920985E-15  0.91188000000E+02  0.91188000000E+02 0.  0.
    9900012    2    3    3    0    0  0.31422357010E+02  0.18972396287E+02 -0.29092787326E+01  0.54367078723E+02  0.39999987566E+02 0.  0.
         12    1    3    3    0    0 -0.31422357010E+02 -0.18972396287E+02  0.29092787326E+01  0.36820921277E+02  0.00000000000E+00 0. -1.
         11    1    4    4    0    0  0.73809625946E+01  0.51093287262E+01 -0.14118108029E+02  0.16730356345E+02  0.51100000000E-03 0. -1.
        -11    1    4    4    0    0  0.12802856312E+02  0.19415590317E+02  0.57049398719E+01  0.23946286065E+02  0.51100000000E-03 0.  1.
         12    1    4    4    0    0  0.11238538103E+02 -0.55525227557E+01  0.55038894248E+01  0.13690436313E+02  0.00000000000E+00 0. -1.
</event>
<event>
 8    1  0.1238315E-006  0.9118800E+02  0.7816164E-02  0.1184000E+00
        -11   -1    0    0    0    0  0.00000000000E+00  0.00000000000E+00  0.45593999997E+02  0.45594000000E+02  0.51100000000E-03 0.  1.
         11   -1    0    0    0    0 -0.00000000000E+00 -0.00000000000E+00 -0.45593999997E+02  0.45594000000E+02  0.51100000000E-03 0. -1.
         23    2    1    2    0    0  0.00000000000E+00  0.00000000000E+00  0.00000000000E+00  0.91188000000E+02  0.91188000000E+02 0.  0.
    9900012    2    3    3    0    0 -0.35214177162E+02 -0.45662706661E+01 -0.97411906429E+01  0.54367083443E+02  0.39999998324E+02 0.  0.
        -12    1    3    3    0    0  0.35214177162E+02  0.45662706661E+01  0.97411906429E+01  0.36820916557E+02  0.00000000000E+00 0.  1.
         11    1    4    4    0    0 -0.29426285351E+01  0.65046450566E+01  0.49424155448E+01  0.86831412338E+01  0.51100000000E-03 0. -1.
        -11    1    4    4    0    0  0.29065823728E+01  0.38475021505E+01 -0.21865063161E+00  0.48269350781E+01  0.51100000000E-03 0.  1.
         12    1    4    4    0    0 -0.35178130999E+02 -0.14918417873E+02 -0.14464955556E+02  0.40857007131E+02  0.00000000000E+00 0. -1.
</event>
<event>
 8    1  0.1238315E-006  0.9118800E+02  0.7816164E-02  0.1184000E+00
        -11   -1    0    0    0    0  0.00000000000E+00  0.00000000000E+00  0.45593999997E+02  0.45594000000E+02  0.51100000000E-03 0. -1.
         11   -1    0    0    0    0 -0.00000000000E+00 -0.00000000000E+00 -0.45593999997E+02  0.45594000000E+02  0.51100000000E-03 0.  1.
         23    2    1    2    0    0  0.35527136788E-14  0.00000000000E+00  0.35527136788E-14  0.91188000000E+02  0.91188000000E+02 0.  0.
    9900012    2    3    3    0    0 -0.15925090480E+02 -0.19661506436E+02 -0.26750645052E+02  0.54367077241E+02  0.39999984187E+02 0.  0.
         12    1    3    3    0    0  0.15925090480E+02  0.19661506436E+02  0.26750645052E+02  0.36820922759E+02  0.00000000000E+00 0. -1.
         11    1    4    4    0    0 -0.70131821258E+00  0.56397929712E+01 -0.17486533381E+02  0.18386896474E+02  0.51100000000E-03 0.  1.
        -11    1    4    4    0    0  0.39377753113E+01 -0.19565592318E+01 -0.23956512066E+01  0.50073289681E+01  0.51100000000E-03 0. -1.
        -12    1    4    4    0    0 -0.19161547579E+02 -0.23344740175E+02 -0.68684604647E+01  0.30972851800E+02  0.00000000000E+00 0.  1.
</event>
<event>
 8    1  0.1238315E-006  0.9118800E+02  0.7816164E-02  0.1184000E+00
        -11   -1    0    0    0    0  0.00000000000E+00  0.00000000000E+00  0.45593999997E+02  0.45594000000E+02  0.51100000000E-03 0.  1.
         11   -1    0    0    0    0 -0.00000000000E+00 -0.00000000000E+00 -0.45593999997E+02  0.45594000000E+02  0.51100000000E-03 0. -1.
         23    2    1    2    0    0 -0.35527136788E-14  0.35527136788E-14  0.00000000000E+00  0.91188000000E+02  0.91188000000E+02 0.  0.
    9900012    2    3    3    0    0 -0.19806060100E+02 -0.29818019116E+02  0.86246017350E+01  0.54367108705E+02  0.40000055915E+02 0.  0.
         12    1    3    3    0    0  0.19806060100E+02  0.29818019116E+02 -0.86246017350E+01  0.36820891295E+02  0.00000000000E+00 0. -1.
         11    1    4    4    0    0 -0.10045425596E+01 -0.42226632405E+01  0.12114955215E+02  0.12869037677E+02  0.51100000000E-03 0.  1.
        -11    1    4    4    0    0  0.54600361856E+01 -0.16377861145E+01 -0.46877071981E+01  0.73803074151E+01  0.51100000000E-03 0. -1.
         12    1    4    4    0    0 -0.24261553726E+02 -0.23957569761E+02  0.11973537178E+01  0.34117763613E+02  0.00000000000E+00 0. -1.
</event>
<event>
 8    1  0.1238315E-006  0.9118800E+02  0.7816164E-02  0.1184000E+00
        -11   -1    0    0    0    0  0.00000000000E+00  0.00000000000E+00  0.45593999997E+02  0.45594000000E+02  0.51100000000E-03 0.  1.
         11   -1    0    0    0    0 -0.00000000000E+00 -0.00000000000E+00 -0.45593999997E+02  0.45594000000E+02  0.51100000000E-03 0. -1.
         23    2    1    2    0    0  0.00000000000E+00  0.17763568394E-14  0.00000000000E+00  0.91188000000E+02  0.91188000000E+02 0.  0.
    9900012    2    3    3    0    0 -0.30397213956E+02  0.10740484790E+02 -0.17788511303E+02  0.54367085234E+02  0.40000002408E+02 0.  0.
        -12    1    3    3    0    0  0.30397213956E+02 -0.10740484790E+02  0.17788511303E+02  0.36820914766E+02  0.00000000000E+00 0.  1.
         11    1    4    4    0    0 -0.37171123604E+02  0.31852295091E+01 -0.15366139998E+02  0.40347941406E+02  0.51100000000E-03 0. -1.
        -11    1    4    4    0    0 -0.43760582959E+00  0.44146577616E+00  0.26277876521E+01  0.27003072232E+01  0.51100000000E-03 0.  1.
         12    1    4    4    0    0  0.72115154771E+01  0.71137895052E+01 -0.50501589567E+01  0.11318836605E+02  0.00000000000E+00 0. -1.
</event>
<event>
 8    1  0.1238315E-006  0.9118800E+02  0.7816164E-02  0.1184000E+00
        -11   -1    0    0    0    0  0.00000000000E+00  0.00000000000E+00  0.45593999997E+02  0.45594000000E+02  0.51100000000E-03 0.  1.
         11   -1    0    0    0    0 -0.00000000000E+00 -0.00000000000E+00 -0.45593999997E+02  0.45594000000E+02  0.51100000000E-03 0. -1.
         23    2    1    2    0    0  0.00000000000E+00 -0.17763568394E-14  0.00000000000E+00  0.91188000000E+02  0.91188000000E+02 0.  0.
    9900012    2    3    3    0    0  0.34888862476E+02 -0.10130479897E+02  0.59934705084E+01  0.54367067957E+02  0.39999963021E+02 0.  0.
        -12    1    3    3    0    0 -0.34888862476E+02  0.10130479897E+02 -0.59934705084E+01  0.36820932043E+02  0.00000000000E+00 0.  1.
         11    1    4    4    0    0  0.29336752006E+01  0.44988456706E+01 -0.70150540742E+01  0.88349898968E+01  0.51100000000E-03 0. -1.
        -11    1    4    4    0    0  0.13524066893E+02  0.68667408296E+01  0.63550807002E+01  0.16445046850E+02  0.51100000000E-03 0.  1.
         12    1    4    4    0    0  0.18431120382E+02 -0.21496066397E+02  0.66534438824E+01  0.29087031210E+02  0.00000000000E+00 0. -1.
</event>
<event>
 8    1  0.1238315E-006  0.9118800E+02  0.7816164E-02  0.1184000E+00
        -11   -1    0    0    0    0  0.00000000000E+00  0.00000000000E+00  0.45593999997E+02  0.45594000000E+02  0.51100000000E-03 0.  1.
         11   -1    0    0    0    0 -0.00000000000E+00 -0.00000000000E+00 -0.45593999997E+02  0.45594000000E+02  0.51100000000E-03 0. -1.
         23    2    1    2    0    0 -0.99920072216E-15  0.88817841970E-15  0.00000000000E+00  0.91188000000E+02  0.91188000000E+02 0.  0.
    9900012    2    3    3    0    0 -0.87532054560E+00  0.55598388552E+01 -0.36388193788E+02  0.54367100482E+02  0.40000037170E+02 0.  0.
        -12    1    3    3    0    0  0.87532054560E+00 -0.55598388552E+01  0.36388193788E+02  0.36820899518E+02  0.00000000000E+00 0.  1.
         11    1    4    4    0    0  0.10493380446E+02 -0.67966937261E+01 -0.91000683582E+01  0.15463418871E+02  0.51100000000E-03 0. -1.
        -11    1    4    4    0    0  0.31265630968E+01  0.12846545523E+02 -0.13305906832E+02  0.18757832646E+02  0.51100000000E-03 0.  1.
        -12    1    4    4    0    0 -0.14495264088E+02 -0.49001294151E+00 -0.13982218597E+02  0.20145848966E+02  0.00000000000E+00 0.  1.
</event>
<event>
 8    1  0.1238315E-006  0.9118800E+02  0.7816164E-02  0.1184000E+00
        -11   -1    0    0    0    0  0.00000000000E+00  0.00000000000E+00  0.45593999997E+02  0.45594000000E+02  0.51100000000E-03 0. -1.
         11   -1    0    0    0    0 -0.00000000000E+00 -0.00000000000E+00 -0.45593999997E+02  0.45594000000E+02  0.51100000000E-03 0.  1.
         23    2    1    2    0    0  0.17763568394E-14  0.71054273576E-14 -0.17763568394E-14  0.91188000000E+02  0.91188000000E+02 0.  0.
    9900012    2    3    3    0    0  0.10773036403E+02  0.34964015762E+02 -0.41521515494E+01  0.54367067447E+02  0.39999961859E+02 0.  0.
         12    1    3    3    0    0 -0.10773036403E+02 -0.34964015762E+02  0.41521515494E+01  0.36820932553E+02  0.00000000000E+00 0. -1.
         11    1    4    4    0    0  0.18826426523E+01  0.89682109056E+01  0.82255394275E+01  0.12313920957E+02  0.51100000000E-03 0. -1.
        -11    1    4    4    0    0  0.18127120193E+02  0.17996931652E+02 -0.13266139373E+01  0.25578153572E+02  0.51100000000E-03 0.  1.
        -12    1    4    4    0    0 -0.92367264413E+01  0.79988732043E+01 -0.11051077040E+02  0.16474992917E+02  0.00000000000E+00 0.  1.
</event>
<event>
 8    1  0.1238315E-006  0.9118800E+02  0.7816164E-02  0.1184000E+00
        -11   -1    0    0    0    0  0.00000000000E+00  0.00000000000E+00  0.45593999997E+02  0.45594000000E+02  0.51100000000E-03 0.  1.
         11   -1    0    0    0    0 -0.00000000000E+00 -0.00000000000E+00 -0.45593999997E+02  0.45594000000E+02  0.51100000000E-03 0. -1.
         23    2    1    2    0    0 -0.71054273576E-14 -0.17763568394E-14  0.00000000000E+00  0.91188000000E+02  0.91188000000E+02 0.  0.
    9900012    2    3    3    0    0  0.36186774997E+02 -0.59139175764E+01  0.33648978812E+01  0.54367086872E+02  0.40000006143E+02 0.  0.
         12    1    3    3    0    0 -0.36186774997E+02  0.59139175764E+01 -0.33648978812E+01  0.36820913128E+02  0.00000000000E+00 0. -1.
         11    1    4    4    0    0 -0.93258533895E-01  0.45986930174E+01 -0.44954286705E+01  0.64316058504E+01  0.51100000000E-03 0. -1.
        -11    1    4    4    0    0  0.36384571404E+02 -0.17078736101E+02  0.41871513691E+01  0.40411044281E+02  0.51100000000E-03 0.  1.
        -12    1    4    4    0    0 -0.10453787258E+00  0.65661255072E+01  0.36731751825E+01  0.75244367407E+01  0.00000000000E+00 0.  1.
</event>
<event>
 8    1  0.1238315E-006  0.9118800E+02  0.7816164E-02  0.1184000E+00
        -11   -1    0    0    0    0  0.00000000000E+00  0.00000000000E+00  0.45593999997E+02  0.45594000000E+02  0.51100000000E-03 0. -1.
         11   -1    0    0    0    0 -0.00000000000E+00 -0.00000000000E+00 -0.45593999997E+02  0.45594000000E+02  0.51100000000E-03 0.  1.
         23    2    1    2    0    0  0.00000000000E+00 -0.17763568394E-14  0.00000000000E+00  0.91188000000E+02  0.91188000000E+02 0.  0.
    9900012    2    3    3    0    0 -0.85665491338E+01 -0.96029819409E+01 -0.34498941872E+02  0.54367081808E+02  0.39999994597E+02 0.  0.
         12    1    3    3    0    0  0.85665491338E+01  0.96029819409E+01  0.34498941872E+02  0.36820918192E+02  0.00000000000E+00 0. -1.
         11    1    4    4    0    0  0.28719839885E-01 -0.98830095755E+01 -0.21803402193E+01  0.10120700906E+02  0.51100000000E-03 0. -1.
        -11    1    4    4    0    0  0.10042794622E+02 -0.44598993039E+01 -0.11688320091E+02  0.16042607408E+02  0.51100000000E-03 0.  1.
        -12    1    4    4    0    0 -0.18638063596E+02  0.47399269384E+01 -0.20630281562E+02  0.28203773494E+02  0.00000000000E+00 0.  1.
</event>
<event>
 8    1  0.1238315E-006  0.9118800E+02  0.7816164E-02  0.1184000E+00
        -11   -1    0    0    0    0  0.00000000000E+00  0.00000000000E+00  0.45593999997E+02  0.45594000000E+02  0.51100000000E-03 0.  1.
         11   -1    0    0    0    0 -0.00000000000E+00 -0.00000000000E+00 -0.45593999997E+02  0.45594000000E+02  0.51100000000E-03 0. -1.
         23    2    1    2    0    0  0.00000000000E+00  0.00000000000E+00  0.00000000000E+00  0.91188000000E+02  0.91188000000E+02 0.  0.
    9900012    2    3    3    0    0 -0.21905036246E+02 -0.27184813004E+02 -0.11701744551E+02  0.54367143186E+02  0.40000134521E+02 0.  0.
         12    1    3    3    0    0  0.21905036246E+02  0.27184813004E+02  0.11701744551E+02  0.36820856814E+02  0.00000000000E+00 0. -1.
         11    1    4    4    0    0  0.34435156811E+00  0.55984662781E+01 -0.91089682118E+01  0.10697415801E+02  0.51100000000E-03 0. -1.
        -11    1    4    4    0    0 -0.14847014096E+02 -0.32778886708E+02 -0.37422525676E+01  0.36178635905E+02  0.51100000000E-03 0.  1.
        -12    1    4    4    0    0 -0.74023737182E+01 -0.43925731705E-02  0.11494762286E+01  0.74910914798E+01  0.00000000000E+00 0.  1.
</event>
<event>
 8    1  0.1238315E-006  0.9118800E+02  0.7816164E-02  0.1184000E+00
        -11   -1    0    0    0    0  0.00000000000E+00  0.00000000000E+00  0.45593999997E+02  0.45594000000E+02  0.51100000000E-03 0.  1.
         11   -1    0    0    0    0 -0.00000000000E+00 -0.00000000000E+00 -0.45593999997E+02  0.45594000000E+02  0.51100000000E-03 0. -1.
         23    2    1    2    0    0 -0.33306690739E-15  0.00000000000E+00  0.00000000000E+00  0.91188000000E+02  0.91188000000E+02 0.  0.
    9900012    2    3    3    0    0  0.42838683111E+00  0.24642686415E+02  0.27355699612E+02  0.54367084608E+02  0.40000000981E+02 0.  0.
         12    1    3    3    0    0 -0.42838683111E+00 -0.24642686415E+02 -0.27355699612E+02  0.36820915392E+02  0.00000000000E+00 0. -1.
         11    1    4    4    0    0  0.46492388165E+01  0.14905849347E+02  0.50999591794E+01  0.16425874413E+02  0.51100000000E-03 0. -1.
        -11    1    4    4    0    0 -0.15827288635E+02  0.86750424188E+01  0.18117366519E+02  0.25573392351E+02  0.51100000000E-03 0.  1.
         12    1    4    4    0    0  0.11606436649E+02  0.10617946492E+01  0.41383739140E+01  0.12367817844E+02  0.00000000000E+00 0. -1.
</event>
<event>
 8    1  0.1238315E-006  0.9118800E+02  0.7816164E-02  0.1184000E+00
        -11   -1    0    0    0    0  0.00000000000E+00  0.00000000000E+00  0.45593999997E+02  0.45594000000E+02  0.51100000000E-03 0.  1.
         11   -1    0    0    0    0 -0.00000000000E+00 -0.00000000000E+00 -0.45593999997E+02  0.45594000000E+02  0.51100000000E-03 0. -1.
         23    2    1    2    0    0  0.17763568394E-14  0.17763568394E-14  0.00000000000E+00  0.91188000000E+02  0.91188000000E+02 0.  0.
    9900012    2    3    3    0    0 -0.89785908111E+01 -0.89158744194E+01  0.34578504726E+02  0.54367069828E+02  0.39999967287E+02 0.  0.
         12    1    3    3    0    0  0.89785908111E+01  0.89158744194E+01 -0.34578504726E+02  0.36820930172E+02  0.00000000000E+00 0. -1.
         11    1    4    4    0    0  0.46876440564E+01 -0.71292372360E+00 -0.50223009434E+01  0.69069366627E+01  0.51100000000E-03 0. -1.
        -11    1    4    4    0    0 -0.29208496998E+01  0.65064512228E+01  0.16976784094E+02  0.18414029133E+02  0.51100000000E-03 0.  1.
        -12    1    4    4    0    0 -0.10745385168E+02 -0.14709401919E+02  0.22624021575E+02  0.29046104032E+02  0.00000000000E+00 0.  1.
</event>
<event>
 8    1  0.1238315E-006  0.9118800E+02  0.7816164E-02  0.1184000E+00
        -11   -1    0    0    0    0  0.00000000000E+00  0.00000000000E+00  0.45593999997E+02  0.45594000000E+02  0.51100000000E-03 0.  1.
         11   -1    0    0    0    0 -0.00000000000E+00 -0.00000000000E+00 -0.45593999997E+02  0.45594000000E+02  0.51100000000E-03 0. -1.
         23    2    1    2    0    0  0.00000000000E+00  0.00000000000E+00 -0.35527136788E-14  0.91188000000E+02  0.91188000000E+02 0.  0.
    9900012    2    3    3    0    0  0.10524111805E+02 -0.20232135558E+02 -0.28908204986E+02  0.54367074509E+02  0.39999977958E+02 0.  0.
        -12    1    3    3    0    0 -0.10524111805E+02  0.20232135558E+02  0.28908204986E+02  0.36820925491E+02  0.00000000000E+00 0.  1.
         11    1    4    4    0    0  0.57579793225E+01 -0.16112997451E+02 -0.34358345177E+01  0.17452448878E+02  0.51100000000E-03 0. -1.
        -11    1    4    4    0    0 -0.26783826047E+01  0.74467419428E+01  0.58918702404E-01  0.79139857603E+01  0.51100000000E-03 0.  1.
        -12    1    4    4    0    0  0.74445150873E+01 -0.11565880050E+02 -0.25531289170E+02  0.29000639871E+02  0.00000000000E+00 0.  1.
</event>
<event>
 8    1  0.1238315E-006  0.9118800E+02  0.7816164E-02  0.1184000E+00
        -11   -1    0    0    0    0  0.00000000000E+00  0.00000000000E+00  0.45593999997E+02  0.45594000000E+02  0.51100000000E-03 0. -1.
         11   -1    0    0    0    0 -0.00000000000E+00 -0.00000000000E+00 -0.45593999997E+02  0.45594000000E+02  0.51100000000E-03 0.  1.
         23    2    1    2    0    0  0.71054273576E-14 -0.17763568394E-14  0.00000000000E+00  0.91188000000E+02  0.91188000000E+02 0.  0.
    9900012    2    3    3    0    0 -0.36320449102E+02 -0.55172088374E+01  0.24828530294E+01  0.54367093228E+02  0.40000020632E+02 0.  0.
        -12    1    3    3    0    0  0.36320449102E+02  0.55172088374E+01 -0.24828530294E+01  0.36820906772E+02  0.00000000000E+00 0.  1.
         11    1    4    4    0    0 -0.13919527032E+02  0.11581703584E+02  0.22972823228E+01  0.18252851751E+02  0.51100000000E-03 0. -1.
        -11    1    4    4    0    0 -0.15870951813E+01  0.52448070579E+01 -0.92838990470E+00  0.55577675613E+01  0.51100000000E-03 0.  1.
        -12    1    4    4    0    0 -0.20813826888E+02 -0.22343719479E+02  0.11139606113E+01  0.30556473916E+02  0.00000000000E+00 0.  1.
</event>
<event>
 8    1  0.1238315E-006  0.9118800E+02  0.7816164E-02  0.1184000E+00
        -11   -1    0    0    0    0  0.00000000000E+00  0.00000000000E+00  0.45593999997E+02  0.45594000000E+02  0.51100000000E-03 0. -1.
         11   -1    0    0    0    0 -0.00000000000E+00 -0.00000000000E+00 -0.45593999997E+02  0.45594000000E+02  0.51100000000E-03 0.  1.
         23    2    1    2    0    0  0.00000000000E+00  0.00000000000E+00  0.00000000000E+00  0.91188000000E+02  0.91188000000E+02 0.  0.
    9900012    2    3    3    0    0 -0.26876633764E+02 -0.17971172938E+02 -0.17619859941E+02  0.54367136844E+02  0.40000120062E+02 0.  0.
         12    1    3    3    0    0  0.26876633764E+02  0.17971172938E+02  0.17619859941E+02  0.36820863156E+02  0.00000000000E+00 0. -1.
         11    1    4    4    0    0 -0.57385091390E+01  0.27867155814E+01  0.34901492177E+00  0.63889030785E+01  0.51100000000E-03 0. -1.
        -11    1    4    4    0    0 -0.78001244380E+01 -0.26331771366E+02 -0.37785709002E+01  0.27721502896E+02  0.51100000000E-03 0.  1.
         12    1    4    4    0    0 -0.13338000187E+02  0.55738828463E+01 -0.14190303962E+02  0.20256730869E+02  0.00000000000E+00 0. -1.
</event>
<event>
 8    1  0.1238315E-006  0.9118800E+02  0.7816164E-02  0.1184000E+00
        -11   -1    0    0    0    0  0.00000000000E+00  0.00000000000E+00  0.45593999997E+02  0.45594000000E+02  0.51100000000E-03 0. -1.
         11   -1    0    0    0    0 -0.00000000000E+00 -0.00000000000E+00 -0.45593999997E+02  0.45594000000E+02  0.51100000000E-03 0.  1.
         23    2    1    2    0    0  0.00000000000E+00 -0.88817841970E-15  0.00000000000E+00  0.91188000000E+02  0.91188000000E+02 0.  0.
    9900012    2    3    3    0    0  0.16737719045E+02 -0.65493440700E+01  0.32136194453E+02  0.54367080124E+02  0.39999990759E+02 0.  0.
        -12    1    3    3    0    0 -0.16737719045E+02  0.65493440700E+01 -0.32136194453E+02  0.36820919876E+02  0.00000000000E+00 0.  1.
         11    1    4    4    0    0  0.13053555908E+02  0.13528508627E+02  0.12939290806E+02  0.22821943702E+02  0.51100000000E-03 0. -1.
        -11    1    4    4    0    0  0.28326679075E+01 -0.21262532012E+02  0.20439123106E+02  0.29628989667E+02  0.51100000000E-03 0.  1.
        -12    1    4    4    0    0  0.85149522925E+00  0.11846793158E+01 -0.12422194588E+01  0.19161467560E+01  0.00000000000E+00 0.  1.
</event>
<event>
 8    1  0.1238315E-006  0.9118800E+02  0.7816164E-02  0.1184000E+00
        -11   -1    0    0    0    0  0.00000000000E+00  0.00000000000E+00  0.45593999997E+02  0.45594000000E+02  0.51100000000E-03 0.  1.
         11   -1    0    0    0    0 -0.00000000000E+00 -0.00000000000E+00 -0.45593999997E+02  0.45594000000E+02  0.51100000000E-03 0. -1.
         23    2    1    2    0    0 -0.35527136788E-14  0.00000000000E+00  0.00000000000E+00  0.91188000000E+02  0.91188000000E+02 0.  0.
    9900012    2    3    3    0    0 -0.13563667306E+02 -0.44257159462E+01 -0.33944366638E+02  0.54367081233E+02  0.39999993286E+02 0.  0.
        -12    1    3    3    0    0  0.13563667306E+02  0.44257159462E+01  0.33944366638E+02  0.36820918767E+02  0.00000000000E+00 0.  1.
         11    1    4    4    0    0 -0.11335971292E+02  0.88532785067E+01 -0.23443856204E+02  0.27504530162E+02  0.51100000000E-03 0. -1.
        -11    1    4    4    0    0  0.87085065930E+00  0.52535400279E+01 -0.49489349559E+01  0.72698020024E+01  0.51100000000E-03 0.  1.
        -12    1    4    4    0    0 -0.30985466734E+01 -0.18532534481E+02 -0.55515754784E+01  0.19592749069E+02  0.00000000000E+00 0.  1.
</event>
<event>
 8    1  0.1238315E-006  0.9118800E+02  0.7816164E-02  0.1184000E+00
        -11   -1    0    0    0    0  0.00000000000E+00  0.00000000000E+00  0.45593999997E+02  0.45594000000E+02  0.51100000000E-03 0. -1.
         11   -1    0    0    0    0 -0.00000000000E+00 -0.00000000000E+00 -0.45593999997E+02  0.45594000000E+02  0.51100000000E-03 0.  1.
         23    2    1    2    0    0 -0.17763568394E-14  0.00000000000E+00  0.35527136788E-14  0.91188000000E+02  0.91188000000E+02 0.  0.
    9900012    2    3    3    0    0  0.15838466366E+02 -0.12507418024E+02 -0.30797542475E+02  0.54367066484E+02  0.39999959664E+02 0.  0.
         12    1    3    3    0    0 -0.15838466366E+02  0.12507418024E+02  0.30797542475E+02  0.36820933516E+02  0.00000000000E+00 0. -1.
         11    1    4    4    0    0  0.90806829925E+01 -0.17308551699E+02 -0.60878871043E+01  0.20472106271E+02  0.51100000000E-03 0. -1.
        -11    1    4    4    0    0  0.29443947479E+01 -0.77095015522E+01 -0.34723004575E+01  0.89533650290E+01  0.51100000000E-03 0.  1.
        -12    1    4    4    0    0  0.38133886258E+01  0.12510635227E+02 -0.21237354913E+02  0.24941595184E+02  0.00000000000E+00 0.  1.
</event>
<event>
 8    1  0.1238315E-006  0.9118800E+02  0.7816164E-02  0.1184000E+00
        -11   -1    0    0    0    0  0.00000000000E+00  0.00000000000E+00  0.45593999997E+02  0.45594000000E+02  0.51100000000E-03 0. -1.
         11   -1    0    0    0    0 -0.00000000000E+00 -0.00000000000E+00 -0.45593999997E+02  0.45594000000E+02  0.51100000000E-03 0.  1.
         23    2    1    2    0    0  0.00000000000E+00 -0.14432899320E-14  0.00000000000E+00  0.91188000000E+02  0.91188000000E+02 0.  0.
    9900012    2    3    3    0    0  0.11900602164E+02 -0.29073036749E+00  0.34843523763E+02  0.54367081975E+02  0.39999994978E+02 0.  0.
        -12    1    3    3    0    0 -0.11900602164E+02  0.29073036749E+00 -0.34843523763E+02  0.36820918025E+02  0.00000000000E+00 0.  1.
         11    1    4    4    0    0 -0.28179785265E+01 -0.99223724809E+01  0.13128160259E+02  0.16695600338E+02  0.51100000000E-03 0.  1.
        -11    1    4    4    0    0  0.12988770846E+02  0.74775845954E+01 -0.77944544589E+00  0.15007663874E+02  0.51100000000E-03 0. -1.
        -12    1    4    4    0    0  0.17298098444E+01  0.21540575180E+01  0.22494808950E+02  0.22663817763E+02  0.00000000000E+00 0.  1.
</event>
<event>
 8    1  0.1238315E-006  0.9118800E+02  0.7816164E-02  0.1184000E+00
        -11   -1    0    0    0    0  0.00000000000E+00  0.00000000000E+00  0.45593999997E+02  0.45594000000E+02  0.51100000000E-03 0.  1.
         11   -1    0    0    0    0 -0.00000000000E+00 -0.00000000000E+00 -0.45593999997E+02  0.45594000000E+02  0.51100000000E-03 0. -1.
         23    2    1    2    0    0  0.17763568394E-14  0.00000000000E+00  0.00000000000E+00  0.91188000000E+02  0.91188000000E+02 0.  0.
    9900012    2    3    3    0    0  0.80738311614E+01 -0.34920832785E+02 -0.84338077702E+01  0.54367076254E+02  0.39999981937E+02 0.  0.
        -12    1    3    3    0    0 -0.80738311614E+01  0.34920832785E+02  0.84338077702E+01  0.36820923746E+02  0.00000000000E+00 0.  1.
         11    1    4    4    0    0  0.10494502784E+02 -0.23366526153E+02  0.58367810339E+01  0.26271603420E+02  0.51100000000E-03 0.  1.
        -11    1    4    4    0    0  0.73239971773E+01  0.36528991208E+00 -0.94520484297E+01  0.11963092876E+02  0.51100000000E-03 0. -1.
         12    1    4    4    0    0 -0.97446688002E+01 -0.11919596543E+02 -0.48185403744E+01  0.16132379958E+02  0.00000000000E+00 0. -1.
</event>
<event>
 8    1  0.1238315E-006  0.9118800E+02  0.7816164E-02  0.1184000E+00
        -11   -1    0    0    0    0  0.00000000000E+00  0.00000000000E+00  0.45593999997E+02  0.45594000000E+02  0.51100000000E-03 0. -1.
         11   -1    0    0    0    0 -0.00000000000E+00 -0.00000000000E+00 -0.45593999997E+02  0.45594000000E+02  0.51100000000E-03 0.  1.
         23    2    1    2    0    0 -0.44408920985E-15  0.00000000000E+00  0.22204460493E-15  0.91188000000E+02  0.91188000000E+02 0.  0.
    9900012    2    3    3    0    0 -0.11712949148E+01 -0.36795243828E+02  0.71820115782E+00  0.54367113087E+02  0.40000065905E+02 0.  0.
        -12    1    3    3    0    0  0.11712949148E+01  0.36795243828E+02 -0.71820115782E+00  0.36820886913E+02  0.00000000000E+00 0.  1.
         11    1    4    4    0    0  0.56644236732E+01 -0.28040423024E+02  0.17663647138E+02  0.33620759204E+02  0.51100000000E-03 0. -1.
        -11    1    4    4    0    0 -0.25353969704E+01 -0.24278502787E+01 -0.92575445326E+01  0.99007487498E+01  0.51100000000E-03 0.  1.
         12    1    4    4    0    0 -0.43003216177E+01 -0.63269705250E+01 -0.76879014481E+01  0.10845605134E+02  0.00000000000E+00 0. -1.
</event>
<event>
 8    1  0.1238315E-006  0.9118800E+02  0.7816164E-02  0.1184000E+00
        -11   -1    0    0    0    0  0.00000000000E+00  0.00000000000E+00  0.45593999997E+02  0.45594000000E+02  0.51100000000E-03 0. -1.
         11   -1    0    0    0    0 -0.00000000000E+00 -0.00000000000E+00 -0.45593999997E+02  0.45594000000E+02  0.51100000000E-03 0.  1.
         23    2    1    2    0    0 -0.35527136788E-14  0.00000000000E+00 -0.17763568394E-14  0.91188000000E+02  0.91188000000E+02 0.  0.
    9900012    2    3    3    0    0  0.29162277125E+02 -0.20111960464E+02  0.10042456448E+02  0.54367078063E+02  0.39999986059E+02 0.  0.
         12    1    3    3    0    0 -0.29162277125E+02  0.20111960464E+02 -0.10042456448E+02  0.36820921937E+02  0.00000000000E+00 0. -1.
         11    1    4    4    0    0  0.24983778645E+01 -0.10138175064E+02  0.78012233780E+01  0.13033939237E+02  0.51100000000E-03 0. -1.
        -11    1    4    4    0    0  0.14602311403E+02 -0.14079496232E+02  0.13470443661E+02  0.24349795998E+02  0.51100000000E-03 0.  1.
        -12    1    4    4    0    0  0.12061587857E+02  0.41057108323E+01 -0.11229210592E+02  0.16983342827E+02  0.00000000000E+00 0.  1.
</event>
<event>
 8    1  0.1238315E-006  0.9118800E+02  0.7816164E-02  0.1184000E+00
        -11   -1    0    0    0    0  0.00000000000E+00  0.00000000000E+00  0.45593999997E+02  0.45594000000E+02  0.51100000000E-03 0. -1.
         11   -1    0    0    0    0 -0.00000000000E+00 -0.00000000000E+00 -0.45593999997E+02  0.45594000000E+02  0.51100000000E-03 0.  1.
         23    2    1    2    0    0  0.00000000000E+00 -0.35527136788E-14  0.35527136788E-14  0.91188000000E+02  0.91188000000E+02 0.  0.
    9900012    2    3    3    0    0  0.62118485003E+01  0.26096074847E+02 -0.25222758814E+02  0.54367085476E+02  0.40000002959E+02 0.  0.
         12    1    3    3    0    0 -0.62118485003E+01 -0.26096074847E+02  0.25222758814E+02  0.36820914524E+02  0.00000000000E+00 0. -1.
         11    1    4    4    0    0 -0.37794239144E+01  0.55820005140E+01 -0.35804137586E+01  0.76329638939E+01  0.51100000000E-03 0. -1.
        -11    1    4    4    0    0  0.16710384903E+02  0.27129555673E+02 -0.18210458985E+02  0.36699735303E+02  0.51100000000E-03 0.  1.
         12    1    4    4    0    0 -0.67191124886E+01 -0.66154813396E+01 -0.34318860700E+01  0.10034386279E+02  0.00000000000E+00 0. -1.
</event>
<event>
 8    1  0.1238315E-006  0.9118800E+02  0.7816164E-02  0.1184000E+00
        -11   -1    0    0    0    0  0.00000000000E+00  0.00000000000E+00  0.45593999997E+02  0.45594000000E+02  0.51100000000E-03 0. -1.
         11   -1    0    0    0    0 -0.00000000000E+00 -0.00000000000E+00 -0.45593999997E+02  0.45594000000E+02  0.51100000000E-03 0.  1.
         23    2    1    2    0    0  0.00000000000E+00  0.00000000000E+00 -0.17763568394E-14  0.91188000000E+02  0.91188000000E+02 0.  0.
    9900012    2    3    3    0    0  0.71908794598E+01  0.32674414767E+02  0.15377043504E+02  0.54367087535E+02  0.40000007655E+02 0.  0.
        -12    1    3    3    0    0 -0.71908794598E+01 -0.32674414767E+02 -0.15377043504E+02  0.36820912465E+02  0.00000000000E+00 0.  1.
         11    1    4    4    0    0 -0.15421726374E+01 -0.34190073672E+01  0.70055734187E+00  0.38155849710E+01  0.51100000000E-03 0. -1.
        -11    1    4    4    0    0  0.13041404019E+02  0.15649721209E+01  0.10309814622E+01  0.13175366392E+02  0.51100000000E-03 0.  1.
        -12    1    4    4    0    0 -0.43083519222E+01  0.34528450014E+02  0.13645504700E+02  0.37376136172E+02  0.00000000000E+00 0.  1.
</event>
<event>
 8    1  0.1238315E-006  0.9118800E+02  0.7816164E-02  0.1184000E+00
        -11   -1    0    0    0    0  0.00000000000E+00  0.00000000000E+00  0.45593999997E+02  0.45594000000E+02  0.51100000000E-03 0.  1.
         11   -1    0    0    0    0 -0.00000000000E+00 -0.00000000000E+00 -0.45593999997E+02  0.45594000000E+02  0.51100000000E-03 0. -1.
         23    2    1    2    0    0  0.35527136788E-14  0.00000000000E+00 -0.17763568394E-14  0.91188000000E+02  0.91188000000E+02 0.  0.
    9900012    2    3    3    0    0  0.29450961210E+02  0.19501216560E+02  0.10398260526E+02  0.54367076797E+02  0.39999983175E+02 0.  0.
         12    1    3    3    0    0 -0.29450961210E+02 -0.19501216560E+02 -0.10398260526E+02  0.36820923203E+02  0.00000000000E+00 0. -1.
         11    1    4    4    0    0  0.17012716535E+02  0.11440545013E+02 -0.13547735037E+02  0.24573557312E+02  0.51100000000E-03 0. -1.
        -11    1    4    4    0    0  0.46974033056E+01  0.28677320421E+01  0.18406346533E+01  0.58032250576E+01  0.51100000000E-03 0.  1.
         12    1    4    4    0    0  0.77408413696E+01  0.51929395047E+01  0.22105360909E+02  0.23990294428E+02  0.00000000000E+00 0. -1.
</event>
<event>
 8    1  0.1238315E-006  0.9118800E+02  0.7816164E-02  0.1184000E+00
        -11   -1    0    0    0    0  0.00000000000E+00  0.00000000000E+00  0.45593999997E+02  0.45594000000E+02  0.51100000000E-03 0.  1.
         11   -1    0    0    0    0 -0.00000000000E+00 -0.00000000000E+00 -0.45593999997E+02  0.45594000000E+02  0.51100000000E-03 0. -1.
         23    2    1    2    0    0 -0.66613381478E-15  0.71054273576E-14  0.00000000000E+00  0.91188000000E+02  0.91188000000E+02 0.  0.
    9900012    2    3    3    0    0 -0.16681509237E+01 -0.36522022493E+02 -0.43745740707E+01  0.54367112547E+02  0.40000064674E+02 0.  0.
        -12    1    3    3    0    0  0.16681509237E+01  0.36522022493E+02  0.43745740707E+01  0.36820887453E+02  0.00000000000E+00 0.  1.
         11    1    4    4    0    0  0.85823643321E+01 -0.15323827912E+02 -0.62254228800E+01  0.18634177463E+02  0.51100000000E-03 0. -1.
        -11    1    4    4    0    0  0.15485571110E+01 -0.11635987359E+02  0.12527920750E+02  0.17168081708E+02  0.51100000000E-03 0.  1.
        -12    1    4    4    0    0 -0.11799072367E+02 -0.95622072217E+01 -0.10677071941E+02  0.18564853377E+02  0.00000000000E+00 0.  1.
</event>
<event>
 8    1  0.1238315E-006  0.9118800E+02  0.7816164E-02  0.1184000E+00
        -11   -1    0    0    0    0  0.00000000000E+00  0.00000000000E+00  0.45593999997E+02  0.45594000000E+02  0.51100000000E-03 0.  1.
         11   -1    0    0    0    0 -0.00000000000E+00 -0.00000000000E+00 -0.45593999997E+02  0.45594000000E+02  0.51100000000E-03 0. -1.
         23    2    1    2    0    0 -0.17763568394E-14  0.71054273576E-14 -0.17763568394E-14  0.91188000000E+02  0.91188000000E+02 0.  0.
    9900012    2    3    3    0    0  0.10261684942E+02 -0.32859786016E+02  0.13065713021E+02  0.54367074270E+02  0.39999977413E+02 0.  0.
        -12    1    3    3    0    0 -0.10261684942E+02  0.32859786016E+02 -0.13065713021E+02  0.36820925730E+02  0.00000000000E+00 0.  1.
         11    1    4    4    0    0  0.55793891269E+01 -0.19483415238E+02  0.86031911460E+01  0.22016992313E+02  0.51100000000E-03 0. -1.
        -11    1    4    4    0    0 -0.57888987466E+01 -0.16957815693E+02  0.93968597578E+01  0.20233137062E+02  0.51100000000E-03 0.  1.
         12    1    4    4    0    0  0.10471194562E+02  0.35814449154E+01 -0.49343378826E+01  0.12116944895E+02  0.00000000000E+00 0. -1.
</event>
<event>
 8    1  0.1238315E-006  0.9118800E+02  0.7816164E-02  0.1184000E+00
        -11   -1    0    0    0    0  0.00000000000E+00  0.00000000000E+00  0.45593999997E+02  0.45594000000E+02  0.51100000000E-03 0. -1.
         11   -1    0    0    0    0 -0.00000000000E+00 -0.00000000000E+00 -0.45593999997E+02  0.45594000000E+02  0.51100000000E-03 0.  1.
         23    2    1    2    0    0  0.17763568394E-14  0.00000000000E+00  0.00000000000E+00  0.91188000000E+02  0.91188000000E+02 0.  0.
    9900012    2    3    3    0    0  0.46370453385E+01 -0.22168142690E+02  0.29031910276E+02  0.54367074508E+02  0.39999977957E+02 0.  0.
        -12    1    3    3    0    0 -0.46370453385E+01  0.22168142690E+02 -0.29031910276E+02  0.36820925492E+02  0.00000000000E+00 0.  1.
         11    1    4    4    0    0 -0.64043124767E+00 -0.21857549590E+02  0.11925736104E+02  0.24907545205E+02  0.51100000000E-03 0. -1.
        -11    1    4    4    0    0 -0.51819419229E+01 -0.85655649466E+01  0.10773109269E+02  0.14706505654E+02  0.51100000000E-03 0.  1.
        -12    1    4    4    0    0  0.10459418509E+02  0.82549718470E+01  0.63330649027E+01  0.14753023650E+02  0.00000000000E+00 0.  1.
</event>
<event>
 8    1  0.1238315E-006  0.9118800E+02  0.7816164E-02  0.1184000E+00
        -11   -1    0    0    0    0  0.00000000000E+00  0.00000000000E+00  0.45593999997E+02  0.45594000000E+02  0.51100000000E-03 0. -1.
         11   -1    0    0    0    0 -0.00000000000E+00 -0.00000000000E+00 -0.45593999997E+02  0.45594000000E+02  0.51100000000E-03 0.  1.
         23    2    1    2    0    0  0.17763568394E-14 -0.11102230246E-14  0.00000000000E+00  0.91188000000E+02  0.91188000000E+02 0.  0.
    9900012    2    3    3    0    0 -0.12939150433E+02 -0.11638562814E+01  0.34452923998E+02  0.54367080031E+02  0.39999990547E+02 0.  0.
        -12    1    3    3    0    0  0.12939150433E+02  0.11638562814E+01 -0.34452923998E+02  0.36820919969E+02  0.00000000000E+00 0.  1.
         11    1    4    4    0    0 -0.16486771129E+02 -0.73665943239E+01  0.31031622413E+02  0.35903229994E+02  0.51100000000E-03 0. -1.
        -11    1    4    4    0    0 -0.27195653194E+01 -0.47689438428E+01  0.65214576956E+00  0.55284858025E+01  0.51100000000E-03 0.  1.
         12    1    4    4    0    0  0.62671860154E+01  0.10971681885E+02  0.27691558155E+01  0.12935364234E+02  0.00000000000E+00 0. -1.
</event>
<event>
 8    1  0.1238315E-006  0.9118800E+02  0.7816164E-02  0.1184000E+00
        -11   -1    0    0    0    0  0.00000000000E+00  0.00000000000E+00  0.45593999997E+02  0.45594000000E+02  0.51100000000E-03 0.  1.
         11   -1    0    0    0    0 -0.00000000000E+00 -0.00000000000E+00 -0.45593999997E+02  0.45594000000E+02  0.51100000000E-03 0. -1.
         23    2    1    2    0    0  0.71054273576E-14  0.00000000000E+00  0.00000000000E+00  0.91188000000E+02  0.91188000000E+02 0.  0.
    9900012    2    3    3    0    0 -0.32118884400E+02  0.46272998597E+01 -0.17399513121E+02  0.54367113320E+02  0.40000066435E+02 0.  0.
        -12    1    3    3    0    0  0.32118884400E+02 -0.46272998597E+01  0.17399513121E+02  0.36820886680E+02  0.00000000000E+00 0.  1.
         11    1    4    4    0    0 -0.23810100741E+02  0.18136016396E+02 -0.44241577512E+01  0.30255729376E+02  0.51100000000E-03 0.  1.
        -11    1    4    4    0    0 -0.25399706839E+01  0.25446181096E+00 -0.79735315439E+01  0.83721805660E+01  0.51100000000E-03 0. -1.
        -12    1    4    4    0    0 -0.57688129750E+01 -0.13763178348E+02 -0.50018238256E+01  0.15739203377E+02  0.00000000000E+00 0.  1.
</event>
<event>
 8    1  0.1238315E-006  0.9118800E+02  0.7816164E-02  0.1184000E+00
        -11   -1    0    0    0    0  0.00000000000E+00  0.00000000000E+00  0.45593999997E+02  0.45594000000E+02  0.51100000000E-03 0.  1.
         11   -1    0    0    0    0 -0.00000000000E+00 -0.00000000000E+00 -0.45593999997E+02  0.45594000000E+02  0.51100000000E-03 0. -1.
         23    2    1    2    0    0  0.00000000000E+00  0.00000000000E+00  0.00000000000E+00  0.91188000000E+02  0.91188000000E+02 0.  0.
    9900012    2    3    3    0    0  0.26649712605E+02  0.24086877329E+02  0.80866627348E+01  0.54367096214E+02  0.40000027439E+02 0.  0.
         12    1    3    3    0    0 -0.26649712605E+02 -0.24086877329E+02 -0.80866627348E+01  0.36820903786E+02  0.00000000000E+00 0. -1.
         11    1    4    4    0    0  0.10504751528E+02  0.14456470013E+02  0.27705379410E+01  0.18083561890E+02  0.51100000000E-03 0. -1.
        -11    1    4    4    0    0  0.20157924144E+02  0.14179599788E+02 -0.41975067106E+01  0.25000440372E+02  0.51100000000E-03 0.  1.
        -12    1    4    4    0    0 -0.40129630670E+01 -0.45491924716E+01  0.95136315044E+01  0.11283093952E+02  0.00000000000E+00 0.  1.
</event>
<event>
 8    1  0.1238315E-006  0.9118800E+02  0.7816164E-02  0.1184000E+00
        -11   -1    0    0    0    0  0.00000000000E+00  0.00000000000E+00  0.45593999997E+02  0.45594000000E+02  0.51100000000E-03 0.  1.
         11   -1    0    0    0    0 -0.00000000000E+00 -0.00000000000E+00 -0.45593999997E+02  0.45594000000E+02  0.51100000000E-03 0. -1.
         23    2    1    2    0    0  0.35527136788E-14  0.17763568394E-14  0.00000000000E+00  0.91188000000E+02  0.91188000000E+02 0.  0.
    9900012    2    3    3    0    0 -0.24262448321E+02 -0.10198679740E+02  0.25750537438E+02  0.54367222641E+02  0.40000315653E+02 0.  0.
         12    1    3    3    0    0  0.24262448321E+02  0.10198679740E+02 -0.25750537438E+02  0.36820777359E+02  0.00000000000E+00 0. -1.
         11    1    4    4    0    0 -0.34510704244E+01 -0.12189104202E+00 -0.58657315729E+01  0.68067284099E+01  0.51100000000E-03 0. -1.
        -11    1    4    4    0    0 -0.26784484699E+02 -0.97825480587E+01  0.29947548494E+02  0.41351693172E+02  0.51100000000E-03 0.  1.
         12    1    4    4    0    0  0.59731068026E+01 -0.29424063936E+00  0.16687205175E+01  0.62088010594E+01  0.00000000000E+00 0. -1.
</event>
<event>
 8    1  0.1238315E-006  0.9118800E+02  0.7816164E-02  0.1184000E+00
        -11   -1    0    0    0    0  0.00000000000E+00  0.00000000000E+00  0.45593999997E+02  0.45594000000E+02  0.51100000000E-03 0.  1.
         11   -1    0    0    0    0 -0.00000000000E+00 -0.00000000000E+00 -0.45593999997E+02  0.45594000000E+02  0.51100000000E-03 0. -1.
         23    2    1    2    0    0  0.00000000000E+00  0.71054273576E-14  0.00000000000E+00  0.91188000000E+02  0.91188000000E+02 0.  0.
    9900012    2    3    3    0    0 -0.19960809714E+02  0.26674147669E+02  0.15679155629E+02  0.54367082039E+02  0.39999995123E+02 0.  0.
         12    1    3    3    0    0  0.19960809714E+02 -0.26674147669E+02 -0.15679155629E+02  0.36820917961E+02  0.00000000000E+00 0. -1.
         11    1    4    4    0    0 -0.69306385536E+01  0.18139604439E+02  0.65990493528E+01  0.20509179715E+02  0.51100000000E-03 0. -1.
        -11    1    4    4    0    0  0.30585483732E+01 -0.81833146985E+01 -0.51219561738E+00  0.87512114714E+01  0.51100000000E-03 0.  1.
        -12    1    4    4    0    0 -0.16088719533E+02  0.16717857928E+02  0.95923018937E+01  0.25106690852E+02  0.00000000000E+00 0.  1.
</event>
<event>
 8    1  0.1238315E-006  0.9118800E+02  0.7816164E-02  0.1184000E+00
        -11   -1    0    0    0    0  0.00000000000E+00  0.00000000000E+00  0.45593999997E+02  0.45594000000E+02  0.51100000000E-03 0.  1.
         11   -1    0    0    0    0 -0.00000000000E+00 -0.00000000000E+00 -0.45593999997E+02  0.45594000000E+02  0.51100000000E-03 0. -1.
         23    2    1    2    0    0  0.00000000000E+00  0.00000000000E+00  0.00000000000E+00  0.91188000000E+02  0.91188000000E+02 0.  0.
    9900012    2    3    3    0    0  0.97755121757E+01  0.35475863242E+02  0.12968841375E+01  0.54367089914E+02  0.40000013078E+02 0.  0.
        -12    1    3    3    0    0 -0.97755121757E+01 -0.35475863242E+02 -0.12968841375E+01  0.36820910086E+02  0.00000000000E+00 0.  1.
         11    1    4    4    0    0 -0.13821408590E+02  0.64301112396E+01  0.58580251626E+01  0.16330772334E+02  0.51100000000E-03 0. -1.
        -11    1    4    4    0    0  0.52899785961E+01  0.38692973144E+01  0.13453488974E+00  0.65554126607E+01  0.51100000000E-03 0.  1.
         12    1    4    4    0    0  0.18306942170E+02  0.25176454688E+02 -0.46956759149E+01  0.31480904920E+02  0.00000000000E+00 0. -1.
</event>
<event>
 8    1  0.1238315E-006  0.9118800E+02  0.7816164E-02  0.1184000E+00
        -11   -1    0    0    0    0  0.00000000000E+00  0.00000000000E+00  0.45593999997E+02  0.45594000000E+02  0.51100000000E-03 0.  1.
         11   -1    0    0    0    0 -0.00000000000E+00 -0.00000000000E+00 -0.45593999997E+02  0.45594000000E+02  0.51100000000E-03 0. -1.
         23    2    1    2    0    0  0.00000000000E+00  0.00000000000E+00  0.77715611724E-15  0.91188000000E+02  0.91188000000E+02 0.  0.
    9900012    2    3    3    0    0  0.25621916413E+02 -0.26433833648E+02 -0.74160831337E+00  0.54367080065E+02  0.39999990623E+02 0.  0.
        -12    1    3    3    0    0 -0.25621916413E+02  0.26433833648E+02  0.74160831337E+00  0.36820919935E+02  0.00000000000E+00 0.  1.
         11    1    4    4    0    0  0.73305829372E+01 -0.80914166842E+01 -0.78831407890E+01  0.13466713746E+02  0.51100000000E-03 0. -1.
        -11    1    4    4    0    0 -0.24403479281E+01  0.22962942497E+01 -0.74801168645E+01  0.81963658934E+01  0.51100000000E-03 0.  1.
        -12    1    4    4    0    0  0.20731681404E+02 -0.20638711214E+02  0.14621649340E+02  0.32704000425E+02  0.00000000000E+00 0.  1.
</event>
<event>
 8    1  0.1238315E-006  0.9118800E+02  0.7816164E-02  0.1184000E+00
        -11   -1    0    0    0    0  0.00000000000E+00  0.00000000000E+00  0.45593999997E+02  0.45594000000E+02  0.51100000000E-03 0.  1.
         11   -1    0    0    0    0 -0.00000000000E+00 -0.00000000000E+00 -0.45593999997E+02  0.45594000000E+02  0.51100000000E-03 0. -1.
         23    2    1    2    0    0 -0.17763568394E-14  0.00000000000E+00  0.00000000000E+00  0.91188000000E+02  0.91188000000E+02 0.  0.
    9900012    2    3    3    0    0  0.11466700404E+02  0.23757664250E+02 -0.25687912011E+02  0.54367073175E+02  0.39999974917E+02 0.  0.
        -12    1    3    3    0    0 -0.11466700404E+02 -0.23757664250E+02  0.25687912011E+02  0.36820926825E+02  0.00000000000E+00 0.  1.
         11    1    4    4    0    0  0.10580099348E+01 -0.39889065886E+01  0.40946465434E+00  0.41470980648E+01  0.51100000000E-03 0.  1.
        -11    1    4    4    0    0 -0.19347548772E+01  0.10133762342E+02 -0.26783264152E+02  0.28701561883E+02  0.51100000000E-03 0. -1.
        -12    1    4    4    0    0  0.12343445346E+02  0.17612808497E+02  0.68588748712E+00  0.21518413227E+02  0.00000000000E+00 0.  1.
</event>
<event>
 8    1  0.1238315E-006  0.9118800E+02  0.7816164E-02  0.1184000E+00
        -11   -1    0    0    0    0  0.00000000000E+00  0.00000000000E+00  0.45593999997E+02  0.45594000000E+02  0.51100000000E-03 0.  1.
         11   -1    0    0    0    0 -0.00000000000E+00 -0.00000000000E+00 -0.45593999997E+02  0.45594000000E+02  0.51100000000E-03 0. -1.
         23    2    1    2    0    0 -0.22204460493E-14  0.00000000000E+00  0.00000000000E+00  0.91188000000E+02  0.91188000000E+02 0.  0.
    9900012    2    3    3    0    0  0.25718476862E+01  0.25789329219E+02  0.26154694704E+02  0.54367191248E+02  0.40000244087E+02 0.  0.
        -12    1    3    3    0    0 -0.25718476862E+01 -0.25789329219E+02 -0.26154694704E+02  0.36820808752E+02  0.00000000000E+00 0.  1.
         11    1    4    4    0    0 -0.14948066824E+02  0.71375778766E+01  0.13381384566E+02  0.21294392992E+02  0.51100000000E-03 0. -1.
        -11    1    4    4    0    0  0.19167422077E+02  0.17000689478E+02  0.15132078421E+02  0.29755559303E+02  0.51100000000E-03 0.  1.
        -12    1    4    4    0    0 -0.16475075675E+01  0.16510618639E+01 -0.23587682825E+01  0.33172389534E+01  0.00000000000E+00 0.  1.
</event>
<event>
 8    1  0.1238315E-006  0.9118800E+02  0.7816164E-02  0.1184000E+00
        -11   -1    0    0    0    0  0.00000000000E+00  0.00000000000E+00  0.45593999997E+02  0.45594000000E+02  0.51100000000E-03 0.  1.
         11   -1    0    0    0    0 -0.00000000000E+00 -0.00000000000E+00 -0.45593999997E+02  0.45594000000E+02  0.51100000000E-03 0. -1.
         23    2    1    2    0    0  0.00000000000E+00  0.00000000000E+00  0.00000000000E+00  0.91188000000E+02  0.91188000000E+02 0.  0.
    9900012    2    3    3    0    0  0.96530373907E+01  0.27454357092E+02  0.22557854295E+02  0.54367086858E+02  0.40000006111E+02 0.  0.
         12    1    3    3    0    0 -0.96530373907E+01 -0.27454357092E+02 -0.22557854295E+02  0.36820913142E+02  0.00000000000E+00 0. -1.
         11    1    4    4    0    0 -0.26132444319E+01  0.16751729969E+02 -0.27782549487E+01  0.17180459954E+02  0.51100000000E-03 0. -1.
        -11    1    4    4    0    0  0.22914519763E+01  0.13570337776E+02  0.22587526027E+02  0.26449974514E+02  0.51100000000E-03 0.  1.
         12    1    4    4    0    0  0.99748298463E+01 -0.28677106530E+01  0.27485832173E+01  0.10736652390E+02  0.00000000000E+00 0. -1.
</event>
<event>
 8    1  0.1238315E-006  0.9118800E+02  0.7816164E-02  0.1184000E+00
        -11   -1    0    0    0    0  0.00000000000E+00  0.00000000000E+00  0.45593999997E+02  0.45594000000E+02  0.51100000000E-03 0.  1.
         11   -1    0    0    0    0 -0.00000000000E+00 -0.00000000000E+00 -0.45593999997E+02  0.45594000000E+02  0.51100000000E-03 0. -1.
         23    2    1    2    0    0  0.00000000000E+00  0.44408920985E-15  0.00000000000E+00  0.91188000000E+02  0.91188000000E+02 0.  0.
    9900012    2    3    3    0    0 -0.26358187481E+01 -0.30380164630E+01 -0.36600595493E+02  0.54367072866E+02  0.39999974213E+02 0.  0.
        -12    1    3    3    0    0  0.26358187481E+01  0.30380164630E+01  0.36600595493E+02  0.36820927134E+02  0.00000000000E+00 0.  1.
         11    1    4    4    0    0 -0.16179553496E+02 -0.30597209422E+01 -0.28275319746E+02  0.32720537138E+02  0.51100000000E-03 0. -1.
        -11    1    4    4    0    0  0.14042544474E+02  0.16965667412E+01 -0.10714626327E+01  0.14185183342E+02  0.51100000000E-03 0.  1.
         12    1    4    4    0    0 -0.49880972574E+00 -0.16748622620E+01 -0.72538131146E+01  0.74613523869E+01  0.00000000000E+00 0. -1.
</event>
<event>
 8    1  0.1238315E-006  0.9118800E+02  0.7816164E-02  0.1184000E+00
        -11   -1    0    0    0    0  0.00000000000E+00  0.00000000000E+00  0.45593999997E+02  0.45594000000E+02  0.51100000000E-03 0. -1.
         11   -1    0    0    0    0 -0.00000000000E+00 -0.00000000000E+00 -0.45593999997E+02  0.45594000000E+02  0.51100000000E-03 0.  1.
         23    2    1    2    0    0 -0.35527136788E-14  0.00000000000E+00 -0.16653345369E-15  0.91188000000E+02  0.91188000000E+02 0.  0.
    9900012    2    3    3    0    0  0.30169172202E+02  0.21107561875E+02  0.26617042228E+00  0.54367096068E+02  0.40000027107E+02 0.  0.
         12    1    3    3    0    0 -0.30169172202E+02 -0.21107561875E+02 -0.26617042228E+00  0.36820903932E+02  0.00000000000E+00 0. -1.
         11    1    4    4    0    0  0.25309127299E+02  0.89950295044E+01  0.39350792425E+01  0.27146773829E+02  0.51100000000E-03 0. -1.
        -11    1    4    4    0    0  0.88994032691E+01  0.13178211204E+02 -0.10611867586E+02  0.19117436099E+02  0.51100000000E-03 0.  1.
         12    1    4    4    0    0 -0.40393583662E+01 -0.10656788330E+01  0.69429587655E+01  0.81028861404E+01  0.00000000000E+00 0. -1.
</event>
<event>
 8    1  0.1238315E-006  0.9118800E+02  0.7816164E-02  0.1184000E+00
        -11   -1    0    0    0    0  0.00000000000E+00  0.00000000000E+00  0.45593999997E+02  0.45594000000E+02  0.51100000000E-03 0.  1.
         11   -1    0    0    0    0 -0.00000000000E+00 -0.00000000000E+00 -0.45593999997E+02  0.45594000000E+02  0.51100000000E-03 0. -1.
         23    2    1    2    0    0  0.00000000000E+00  0.00000000000E+00  0.00000000000E+00  0.91188000000E+02  0.91188000000E+02 0.  0.
    9900012    2    3    3    0    0  0.29224873628E+02 -0.21949278054E+02  0.44628158356E+01  0.54367071565E+02  0.39999971246E+02 0.  0.
         12    1    3    3    0    0 -0.29224873628E+02  0.21949278054E+02 -0.44628158356E+01  0.36820928435E+02  0.00000000000E+00 0. -1.
         11    1    4    4    0    0 -0.27633717167E+01  0.29588645214E+01  0.62877405942E+01  0.74784212600E+01  0.51100000000E-03 0. -1.
        -11    1    4    4    0    0  0.35783162846E+02 -0.23187447569E+02 -0.22616221329E+01  0.42699032811E+02  0.51100000000E-03 0.  1.
        -12    1    4    4    0    0 -0.37949175017E+01 -0.17206950064E+01  0.43669737430E+00  0.41896174941E+01  0.00000000000E+00 0.  1.
</event>
<event>
 8    1  0.1238315E-006  0.9118800E+02  0.7816164E-02  0.1184000E+00
        -11   -1    0    0    0    0  0.00000000000E+00  0.00000000000E+00  0.45593999997E+02  0.45594000000E+02  0.51100000000E-03 0.  1.
         11   -1    0    0    0    0 -0.00000000000E+00 -0.00000000000E+00 -0.45593999997E+02  0.45594000000E+02  0.51100000000E-03 0. -1.
         23    2    1    2    0    0  0.00000000000E+00  0.44408920985E-15 -0.71054273576E-14  0.91188000000E+02  0.91188000000E+02 0.  0.
    9900012    2    3    3    0    0 -0.18036229309E+02 -0.39938308082E+01  0.31851589036E+02  0.54367082353E+02  0.39999995841E+02 0.  0.
         12    1    3    3    0    0  0.18036229309E+02  0.39938308082E+01 -0.31851589036E+02  0.36820917647E+02  0.00000000000E+00 0. -1.
         11    1    4    4    0    0  0.31628422936E+01 -0.31095857196E+01 -0.57103056369E+01  0.72305383928E+01  0.51100000000E-03 0. -1.
        -11    1    4    4    0    0 -0.13124611590E+02 -0.65484017129E+01  0.97113507912E+01  0.17591115054E+02  0.51100000000E-03 0.  1.
        -12    1    4    4    0    0 -0.80744600129E+01  0.56641566243E+01  0.27850543882E+02  0.29545428907E+02  0.00000000000E+00 0.  1.
</event>
<event>
 8    1  0.1238315E-006  0.9118800E+02  0.7816164E-02  0.1184000E+00
        -11   -1    0    0    0    0  0.00000000000E+00  0.00000000000E+00  0.45593999997E+02  0.45594000000E+02  0.51100000000E-03 0.  1.
         11   -1    0    0    0    0 -0.00000000000E+00 -0.00000000000E+00 -0.45593999997E+02  0.45594000000E+02  0.51100000000E-03 0. -1.
         23    2    1    2    0    0  0.00000000000E+00  0.00000000000E+00  0.00000000000E+00  0.91188000000E+02  0.91188000000E+02 0.  0.
    9900012    2    3    3    0    0  0.46228855648E+01  0.30486498587E+02  0.20124166396E+02  0.54367085560E+02  0.40000003152E+02 0.  0.
         12    1    3    3    0    0 -0.46228855648E+01 -0.30486498587E+02 -0.20124166396E+02  0.36820914440E+02  0.00000000000E+00 0. -1.
         11    1    4    4    0    0  0.34130957815E+01 -0.17303194120E+01 -0.65427226143E+01  0.75796073481E+01  0.51100000000E-03 0. -1.
        -11    1    4    4    0    0 -0.10290968805E+01  0.23161236902E+02  0.57525054505E+01  0.23887093888E+02  0.51100000000E-03 0.  1.
        -12    1    4    4    0    0  0.22388866637E+01  0.90555810974E+01  0.20914383560E+02  0.22900384324E+02  0.00000000000E+00 0.  1.
</event>
<event>
 8    1  0.1238315E-006  0.9118800E+02  0.7816164E-02  0.1184000E+00
        -11   -1    0    0    0    0  0.00000000000E+00  0.00000000000E+00  0.45593999997E+02  0.45594000000E+02  0.51100000000E-03 0. -1.
         11   -1    0    0    0    0 -0.00000000000E+00 -0.00000000000E+00 -0.45593999997E+02  0.45594000000E+02  0.51100000000E-03 0.  1.
         23    2    1    2    0    0  0.00000000000E+00 -0.26645352591E-14  0.00000000000E+00  0.91188000000E+02  0.91188000000E+02 0.  0.
    9900012    2    3    3    0    0 -0.25929916280E+02 -0.58831883834E+01  0.25471690695E+02  0.54367088948E+02  0.40000010874E+02 0.  0.
        -12    1    3    3    0    0  0.25929916280E+02  0.58831883834E+01 -0.25471690695E+02  0.36820911052E+02  0.00000000000E+00 0.  1.
         11    1    4    4    0    0 -0.12273208623E+02  0.50567023932E+01  0.10468076650E+02  0.16905103313E+02  0.51100000000E-03 0. -1.
        -11    1    4    4    0    0 -0.55775259768E+01  0.10165418480E+02  0.66631068525E+01  0.13373164251E+02  0.51100000000E-03 0.  1.
        -12    1    4    4    0    0 -0.80791816804E+01 -0.21105309257E+02  0.83405071921E+01  0.24088821384E+02  0.00000000000E+00 0.  1.
</event>
<event>
 8    1  0.1238315E-006  0.9118800E+02  0.7816164E-02  0.1184000E+00
        -11   -1    0    0    0    0  0.00000000000E+00  0.00000000000E+00  0.45593999997E+02  0.45594000000E+02  0.51100000000E-03 0.  1.
         11   -1    0    0    0    0 -0.00000000000E+00 -0.00000000000E+00 -0.45593999997E+02  0.45594000000E+02  0.51100000000E-03 0. -1.
         23    2    1    2    0    0  0.00000000000E+00 -0.88817841970E-15  0.00000000000E+00  0.91188000000E+02  0.91188000000E+02 0.  0.
    9900012    2    3    3    0    0  0.81376459029E+01  0.28822501772E+01 -0.35794576418E+02  0.54367077309E+02  0.39999984341E+02 0.  0.
        -12    1    3    3    0    0 -0.81376459029E+01 -0.28822501772E+01  0.35794576418E+02  0.36820922691E+02  0.00000000000E+00 0.  1.
         11    1    4    4    0    0  0.36750206351E+01 -0.76131395637E+01  0.12504647827E+01  0.85457201639E+01  0.51100000000E-03 0. -1.
        -11    1    4    4    0    0  0.11721471728E+02 -0.24711845380E+01 -0.14331683197E+02  0.18678779297E+02  0.51100000000E-03 0.  1.
        -12    1    4    4    0    0 -0.72588464601E+01  0.12966574279E+02 -0.22713358003E+02  0.27142577848E+02  0.00000000000E+00 0.  1.
</event>
<event>
 8    1  0.1238315E-006  0.9118800E+02  0.7816164E-02  0.1184000E+00
        -11   -1    0    0    0    0  0.00000000000E+00  0.00000000000E+00  0.45593999997E+02  0.45594000000E+02  0.51100000000E-03 0.  1.
         11   -1    0    0    0    0 -0.00000000000E+00 -0.00000000000E+00 -0.45593999997E+02  0.45594000000E+02  0.51100000000E-03 0. -1.
         23    2    1    2    0    0  0.88817841970E-15 -0.17763568394E-14  0.00000000000E+00  0.91188000000E+02  0.91188000000E+02 0.  0.
    9900012    2    3    3    0    0  0.61282337624E+01  0.12543583776E+02 -0.34071779483E+02  0.54367042651E+02  0.39999905331E+02 0.  0.
        -12    1    3    3    0    0 -0.61282337624E+01 -0.12543583776E+02  0.34071779483E+02  0.36820957349E+02  0.00000000000E+00 0.  1.
         11    1    4    4    0    0  0.85880736526E+01  0.19786467069E+01 -0.19890917860E+02  0.21755888063E+02  0.51100000000E-03 0. -1.
        -11    1    4    4    0    0 -0.94364107037E+00 -0.71142647025E+01  0.31229140201E+01  0.78266092891E+01  0.51100000000E-03 0.  1.
        -12    1    4    4    0    0 -0.15161988198E+01  0.17679201772E+02 -0.17303775643E+02  0.24784545298E+02  0.00000000000E+00 0.  1.
</event>
<event>
 8    1  0.1238315E-006  0.9118800E+02  0.7816164E-02  0.1184000E+00
        -11   -1    0    0    0    0  0.00000000000E+00  0.00000000000E+00  0.45593999997E+02  0.45594000000E+02  0.51100000000E-03 0.  1.
         11   -1    0    0    0    0 -0.00000000000E+00 -0.00000000000E+00 -0.45593999997E+02  0.45594000000E+02  0.51100000000E-03 0. -1.
         23    2    1    2    0    0  0.00000000000E+00 -0.12212453271E-14  0.00000000000E+00  0.91188000000E+02  0.91188000000E+02 0.  0.
    9900012    2    3    3    0    0  0.30711634562E+02 -0.62414651859E+00 -0.20302402234E+02  0.54367060402E+02  0.39999945799E+02 0.  0.
        -12    1    3    3    0    0 -0.30711634562E+02  0.62414651859E+00  0.20302402234E+02  0.36820939598E+02  0.00000000000E+00 0.  1.
         11    1    4    4    0    0  0.31804823022E+02 -0.67453360455E+01 -0.91849904303E+01  0.33784765432E+02  0.51100000000E-03 0. -1.
        -11    1    4    4    0    0 -0.15180426141E+01 -0.30742782514E+01  0.24306516903E+01  0.42028214387E+01  0.51100000000E-03 0.  1.
         12    1    4    4    0    0  0.42485415397E+00  0.91954677783E+01 -0.13548063494E+02  0.16379473531E+02  0.00000000000E+00 0. -1.
</event>
<event>
 8    1  0.1238315E-006  0.9118800E+02  0.7816164E-02  0.1184000E+00
        -11   -1    0    0    0    0  0.00000000000E+00  0.00000000000E+00  0.45593999997E+02  0.45594000000E+02  0.51100000000E-03 0. -1.
         11   -1    0    0    0    0 -0.00000000000E+00 -0.00000000000E+00 -0.45593999997E+02  0.45594000000E+02  0.51100000000E-03 0.  1.
         23    2    1    2    0    0  0.17763568394E-14  0.00000000000E+00  0.00000000000E+00  0.91188000000E+02  0.91188000000E+02 0.  0.
    9900012    2    3    3    0    0 -0.13196310293E+02 -0.30202159400E+02 -0.16415511373E+02  0.54367054176E+02  0.39999931605E+02 0.  0.
         12    1    3    3    0    0  0.13196310293E+02  0.30202159400E+02  0.16415511373E+02  0.36820945824E+02  0.00000000000E+00 0. -1.
         11    1    4    4    0    0 -0.92298286503E+01 -0.36582951756E+02 -0.40953374715E+01  0.37950940507E+02  0.51100000000E-03 0. -1.
        -11    1    4    4    0    0 -0.37284439023E+01 -0.66128005436E+00 -0.47415801886E+01  0.60680448408E+01  0.51100000000E-03 0.  1.
         12    1    4    4    0    0 -0.23803773999E+00  0.70420724107E+01 -0.75785937132E+01  0.10348068828E+02  0.00000000000E+00 0. -1.
</event>
<event>
 8    1  0.1238315E-006  0.9118800E+02  0.7816164E-02  0.1184000E+00
        -11   -1    0    0    0    0  0.00000000000E+00  0.00000000000E+00  0.45593999997E+02  0.45594000000E+02  0.51100000000E-03 0. -1.
         11   -1    0    0    0    0 -0.00000000000E+00 -0.00000000000E+00 -0.45593999997E+02  0.45594000000E+02  0.51100000000E-03 0.  1.
         23    2    1    2    0    0  0.17763568394E-14 -0.55511151231E-15  0.00000000000E+00  0.91188000000E+02  0.91188000000E+02 0.  0.
    9900012    2    3    3    0    0  0.11965803452E+02 -0.53896060259E+00  0.34818229174E+02  0.54367081847E+02  0.39999994686E+02 0.  0.
        -12    1    3    3    0    0 -0.11965803452E+02  0.53896060259E+00 -0.34818229174E+02  0.36820918153E+02  0.00000000000E+00 0.  1.
         11    1    4    4    0    0  0.87167152478E+01 -0.54769960639E+01  0.19130568036E+02  0.21724576964E+02  0.51100000000E-03 0.  1.
        -11    1    4    4    0    0 -0.47982514325E+01 -0.81335359422E+01  0.14424177282E+02  0.17240490546E+02  0.51100000000E-03 0. -1.
        -12    1    4    4    0    0  0.80473396371E+01  0.13071571403E+02  0.12634838557E+01  0.15402014337E+02  0.00000000000E+00 0.  1.
</event>
<event>
 8    1  0.1238315E-006  0.9118800E+02  0.7816164E-02  0.1184000E+00
        -11   -1    0    0    0    0  0.00000000000E+00  0.00000000000E+00  0.45593999997E+02  0.45594000000E+02  0.51100000000E-03 0. -1.
         11   -1    0    0    0    0 -0.00000000000E+00 -0.00000000000E+00 -0.45593999997E+02  0.45594000000E+02  0.51100000000E-03 0.  1.
         23    2    1    2    0    0 -0.88817841970E-15  0.00000000000E+00  0.00000000000E+00  0.91188000000E+02  0.91188000000E+02 0.  0.
    9900012    2    3    3    0    0  0.64548640962E+01 -0.16527622883E+02  0.32263785461E+02  0.54367089624E+02  0.40000012415E+02 0.  0.
        -12    1    3    3    0    0 -0.64548640962E+01  0.16527622883E+02 -0.32263785461E+02  0.36820910376E+02  0.00000000000E+00 0.  1.
         11    1    4    4    0    0  0.54665227754E+01  0.91078782432E+00  0.26209016870E+02  0.26788523126E+02  0.51100000000E-03 0. -1.
        -11    1    4    4    0    0 -0.91661278296E+01 -0.59553120301E+01  0.55074274665E+01  0.12239910062E+02  0.51100000000E-03 0.  1.
        -12    1    4    4    0    0  0.10154469150E+02 -0.11483098677E+02  0.54734112485E+00  0.15338656436E+02  0.00000000000E+00 0.  1.
</event>
<event>
 8    1  0.1238315E-006  0.9118800E+02  0.7816164E-02  0.1184000E+00
        -11   -1    0    0    0    0  0.00000000000E+00  0.00000000000E+00  0.45593999997E+02  0.45594000000E+02  0.51100000000E-03 0.  1.
         11   -1    0    0    0    0 -0.00000000000E+00 -0.00000000000E+00 -0.45593999997E+02  0.45594000000E+02  0.51100000000E-03 0. -1.
         23    2    1    2    0    0  0.35527136788E-14  0.00000000000E+00 -0.35527136788E-14  0.91188000000E+02  0.91188000000E+02 0.  0.
    9900012    2    3    3    0    0  0.20097378264E+02  0.10733882009E+02 -0.28925081598E+02  0.54367065988E+02  0.39999958534E+02 0.  0.
        -12    1    3    3    0    0 -0.20097378264E+02 -0.10733882009E+02  0.28925081598E+02  0.36820934012E+02  0.00000000000E+00 0.  1.
         11    1    4    4    0    0  0.14077601215E+02  0.21321260454E+02 -0.12036037093E+02  0.28242542245E+02  0.51100000000E-03 0. -1.
        -11    1    4    4    0    0 -0.31664551431E+01 -0.71007919223E+01 -0.15802157756E+01  0.79337737714E+01  0.51100000000E-03 0.  1.
        -12    1    4    4    0    0  0.91862321922E+01 -0.34865865227E+01 -0.15308828729E+02  0.18190749972E+02  0.00000000000E+00 0.  1.
</event>
<event>
 8    1  0.1238315E-006  0.9118800E+02  0.7816164E-02  0.1184000E+00
        -11   -1    0    0    0    0  0.00000000000E+00  0.00000000000E+00  0.45593999997E+02  0.45594000000E+02  0.51100000000E-03 0.  1.
         11   -1    0    0    0    0 -0.00000000000E+00 -0.00000000000E+00 -0.45593999997E+02  0.45594000000E+02  0.51100000000E-03 0. -1.
         23    2    1    2    0    0  0.88817841970E-15  0.35527136788E-14  0.00000000000E+00  0.91188000000E+02  0.91188000000E+02 0.  0.
    9900012    2    3    3    0    0  0.66429268046E+01 -0.16638742133E+02  0.32168369766E+02  0.54367078913E+02  0.39999987999E+02 0.  0.
         12    1    3    3    0    0 -0.66429268046E+01  0.16638742133E+02 -0.32168369766E+02  0.36820921087E+02  0.00000000000E+00 0. -1.
         11    1    4    4    0    0  0.16250640014E+01 -0.25668846731E+02  0.85708063390E+01  0.27110685109E+02  0.51100000000E-03 0. -1.
        -11    1    4    4    0    0 -0.12556366379E+01  0.65849258067E+01  0.14120827401E+02  0.15631239171E+02  0.51100000000E-03 0.  1.
         12    1    4    4    0    0  0.62734994411E+01  0.24451787917E+01  0.94767360251E+01  0.11625154633E+02  0.00000000000E+00 0. -1.
</event>
<event>
 8    1  0.1238315E-006  0.9118800E+02  0.7816164E-02  0.1184000E+00
        -11   -1    0    0    0    0  0.00000000000E+00  0.00000000000E+00  0.45593999997E+02  0.45594000000E+02  0.51100000000E-03 0.  1.
         11   -1    0    0    0    0 -0.00000000000E+00 -0.00000000000E+00 -0.45593999997E+02  0.45594000000E+02  0.51100000000E-03 0. -1.
         23    2    1    2    0    0  0.00000000000E+00  0.00000000000E+00 -0.22204460493E-15  0.91188000000E+02  0.91188000000E+02 0.  0.
    9900012    2    3    3    0    0 -0.28057545489E+02 -0.23840654494E+02 -0.42149622548E+00  0.54367077623E+02  0.39999985058E+02 0.  0.
        -12    1    3    3    0    0  0.28057545489E+02  0.23840654494E+02  0.42149622548E+00  0.36820922377E+02  0.00000000000E+00 0.  1.
         11    1    4    4    0    0 -0.16283701684E+02 -0.29479225567E+02  0.37674506460E+01  0.33887717025E+02  0.51100000000E-03 0. -1.
        -11    1    4    4    0    0 -0.14760571276E+02  0.40903051286E+01 -0.27635237857E+00  0.15319315629E+02  0.51100000000E-03 0.  1.
        -12    1    4    4    0    0  0.29867274709E+01  0.15482659438E+01 -0.39125944929E+01  0.51600449692E+01  0.00000000000E+00 0.  1.
</event>
<event>
 8    1  0.1238315E-006  0.9118800E+02  0.7816164E-02  0.1184000E+00
        -11   -1    0    0    0    0  0.00000000000E+00  0.00000000000E+00  0.45593999997E+02  0.45594000000E+02  0.51100000000E-03 0. -1.
         11   -1    0    0    0    0 -0.00000000000E+00 -0.00000000000E+00 -0.45593999997E+02  0.45594000000E+02  0.51100000000E-03 0.  1.
         23    2    1    2    0    0  0.00000000000E+00 -0.22204460493E-15  0.00000000000E+00  0.91188000000E+02  0.91188000000E+02 0.  0.
    9900012    2    3    3    0    0 -0.24494324297E+01  0.39650422869E+00 -0.36737210635E+02  0.54367087734E+02  0.40000008108E+02 0.  0.
         12    1    3    3    0    0  0.24494324297E+01 -0.39650422869E+00  0.36737210635E+02  0.36820912266E+02  0.00000000000E+00 0. -1.
         11    1    4    4    0    0 -0.15561153694E+02 -0.70386950200E+01 -0.12684423340E+02  0.21274099924E+02  0.51100000000E-03 0. -1.
        -11    1    4    4    0    0  0.61086886736E+01  0.12529980605E+02 -0.13091244758E+02  0.19123210527E+02  0.51100000000E-03 0.  1.
         12    1    4    4    0    0  0.70030325905E+01 -0.50947813566E+01 -0.10961542538E+02  0.13969777283E+02  0.00000000000E+00 0. -1.
</event>
<event>
 8    1  0.1238315E-006  0.9118800E+02  0.7816164E-02  0.1184000E+00
        -11   -1    0    0    0    0  0.00000000000E+00  0.00000000000E+00  0.45593999997E+02  0.45594000000E+02  0.51100000000E-03 0. -1.
         11   -1    0    0    0    0 -0.00000000000E+00 -0.00000000000E+00 -0.45593999997E+02  0.45594000000E+02  0.51100000000E-03 0.  1.
         23    2    1    2    0    0 -0.17763568394E-14  0.17763568394E-14  0.71054273576E-14  0.91188000000E+02  0.91188000000E+02 0.  0.
    9900012    2    3    3    0    0 -0.15955598752E+02  0.12526519136E+02  0.30729237720E+02  0.54367070299E+02  0.39999968361E+02 0.  0.
        -12    1    3    3    0    0  0.15955598752E+02 -0.12526519136E+02 -0.30729237720E+02  0.36820929701E+02  0.00000000000E+00 0.  1.
         11    1    4    4    0    0 -0.12530129315E+02  0.13162031548E+02  0.59029092975E+01  0.19107264418E+02  0.51100000000E-03 0. -1.
        -11    1    4    4    0    0 -0.13891200974E+02  0.24095233317E+01  0.14981785478E+02  0.20572436986E+02  0.51100000000E-03 0.  1.
         12    1    4    4    0    0  0.10465731537E+02 -0.30450357433E+01  0.98445429438E+01  0.14687368895E+02  0.00000000000E+00 0. -1.
</event>
<event>
 8    1  0.1238315E-006  0.9118800E+02  0.7816164E-02  0.1184000E+00
        -11   -1    0    0    0    0  0.00000000000E+00  0.00000000000E+00  0.45593999997E+02  0.45594000000E+02  0.51100000000E-03 0.  1.
         11   -1    0    0    0    0 -0.00000000000E+00 -0.00000000000E+00 -0.45593999997E+02  0.45594000000E+02  0.51100000000E-03 0. -1.
         23    2    1    2    0    0  0.00000000000E+00 -0.35527136788E-14 -0.88817841970E-15  0.91188000000E+02  0.91188000000E+02 0.  0.
    9900012    2    3    3    0    0 -0.22024000082E+02 -0.29067199234E+02 -0.50816826606E+01  0.54367052842E+02  0.39999928565E+02 0.  0.
        -12    1    3    3    0    0  0.22024000082E+02  0.29067199234E+02  0.50816826606E+01  0.36820947158E+02  0.00000000000E+00 0.  1.
         11    1    4    4    0    0 -0.84660277594E+01 -0.27705822173E+02 -0.15014068811E+02  0.32629870837E+02  0.51100000000E-03 0. -1.
        -11    1    4    4    0    0 -0.78190986435E+01  0.19202467290E+01 -0.18185844047E+01  0.82542656000E+01  0.51100000000E-03 0.  1.
        -12    1    4    4    0    0 -0.57388736790E+01 -0.32816237898E+01  0.11750970555E+02  0.13482916405E+02  0.00000000000E+00 0.  1.
</event>
<event>
 8    1  0.1238315E-006  0.9118800E+02  0.7816164E-02  0.1184000E+00
        -11   -1    0    0    0    0  0.00000000000E+00  0.00000000000E+00  0.45593999997E+02  0.45594000000E+02  0.51100000000E-03 0.  1.
         11   -1    0    0    0    0 -0.00000000000E+00 -0.00000000000E+00 -0.45593999997E+02  0.45594000000E+02  0.51100000000E-03 0. -1.
         23    2    1    2    0    0  0.00000000000E+00  0.00000000000E+00  0.35527136788E-14  0.91188000000E+02  0.91188000000E+02 0.  0.
    9900012    2    3    3    0    0 -0.18477052203E+02 -0.91118670180E+01  0.30518066382E+02  0.54367082652E+02  0.39999996522E+02 0.  0.
         12    1    3    3    0    0  0.18477052203E+02  0.91118670180E+01 -0.30518066382E+02  0.36820917348E+02  0.00000000000E+00 0. -1.
         11    1    4    4    0    0 -0.27900469230E+01  0.56233525712E+01 -0.33746140857E+00  0.62865202168E+01  0.51100000000E-03 0. -1.
        -11    1    4    4    0    0 -0.65103686060E+01 -0.10884445759E+02 -0.27967594525E+01  0.12987606498E+02  0.51100000000E-03 0.  1.
        -12    1    4    4    0    0 -0.91766366741E+01 -0.38507738306E+01  0.33652287243E+02  0.35092955937E+02  0.00000000000E+00 0.  1.
</event>
<event>
 8    1  0.1238315E-006  0.9118800E+02  0.7816164E-02  0.1184000E+00
        -11   -1    0    0    0    0  0.00000000000E+00  0.00000000000E+00  0.45593999997E+02  0.45594000000E+02  0.51100000000E-03 0.  1.
         11   -1    0    0    0    0 -0.00000000000E+00 -0.00000000000E+00 -0.45593999997E+02  0.45594000000E+02  0.51100000000E-03 0. -1.
         23    2    1    2    0    0 -0.11102230246E-15 -0.35527136788E-14  0.00000000000E+00  0.91188000000E+02  0.91188000000E+02 0.  0.
    9900012    2    3    3    0    0  0.81909802370E+00  0.21964924970E+02 -0.29540661004E+02  0.54367088780E+02  0.40000010492E+02 0.  0.
        -12    1    3    3    0    0 -0.81909802370E+00 -0.21964924970E+02  0.29540661004E+02  0.36820911220E+02  0.00000000000E+00 0.  1.
         11    1    4    4    0    0  0.38449391436E+01  0.21115829484E+02 -0.66350052336E+01  0.22465197674E+02  0.51100000000E-03 0. -1.
        -11    1    4    4    0    0 -0.11001490610E+02 -0.10888929273E+01 -0.48580215459E+01  0.12075547899E+02  0.51100000000E-03 0.  1.
        -12    1    4    4    0    0  0.79756494904E+01  0.19379884132E+01 -0.18047634225E+02  0.19826343208E+02  0.00000000000E+00 0.  1.
</event>
<event>
 8    1  0.1238315E-006  0.9118800E+02  0.7816164E-02  0.1184000E+00
        -11   -1    0    0    0    0  0.00000000000E+00  0.00000000000E+00  0.45593999997E+02  0.45594000000E+02  0.51100000000E-03 0.  1.
         11   -1    0    0    0    0 -0.00000000000E+00 -0.00000000000E+00 -0.45593999997E+02  0.45594000000E+02  0.51100000000E-03 0. -1.
         23    2    1    2    0    0 -0.17763568394E-14  0.00000000000E+00  0.35527136788E-14  0.91188000000E+02  0.91188000000E+02 0.  0.
    9900012    2    3    3    0    0 -0.12027051486E+02 -0.23300233234E+02  0.25850092873E+02  0.54367107321E+02  0.40000052759E+02 0.  0.
         12    1    3    3    0    0  0.12027051486E+02  0.23300233234E+02 -0.25850092873E+02  0.36820892679E+02  0.00000000000E+00 0. -1.
         11    1    4    4    0    0 -0.15962460430E+02 -0.21176190383E+01  0.14303986560E+02  0.21538070599E+02  0.51100000000E-03 0. -1.
        -11    1    4    4    0    0  0.29493368313E+01 -0.64885439014E+01 -0.64239869836E+01  0.95951758051E+01  0.51100000000E-03 0.  1.
        -12    1    4    4    0    0  0.98607211289E+00 -0.14694070294E+02  0.17970093296E+02  0.23233860916E+02  0.00000000000E+00 0.  1.
</event>
<event>
 8    1  0.1238315E-006  0.9118800E+02  0.7816164E-02  0.1184000E+00
        -11   -1    0    0    0    0  0.00000000000E+00  0.00000000000E+00  0.45593999997E+02  0.45594000000E+02  0.51100000000E-03 0. -1.
         11   -1    0    0    0    0 -0.00000000000E+00 -0.00000000000E+00 -0.45593999997E+02  0.45594000000E+02  0.51100000000E-03 0.  1.
         23    2    1    2    0    0 -0.35527136788E-14  0.35527136788E-14  0.47184478547E-15  0.91188000000E+02  0.91188000000E+02 0.  0.
    9900012    2    3    3    0    0 -0.31691835690E+02  0.18745237182E+02 -0.14862853984E+00  0.54367102987E+02  0.40000042879E+02 0.  0.
        -12    1    3    3    0    0  0.31691835690E+02 -0.18745237182E+02  0.14862853984E+00  0.36820897013E+02  0.00000000000E+00 0.  1.
         11    1    4    4    0    0 -0.10528857797E+02  0.10402176133E+02 -0.14450070981E+00  0.14801452480E+02  0.51100000000E-03 0. -1.
        -11    1    4    4    0    0 -0.22420726044E+02  0.78418499996E+01  0.12600957937E+02  0.26888058854E+02  0.51100000000E-03 0.  1.
        -12    1    4    4    0    0  0.12577481508E+01  0.50121105029E+00 -0.12605085767E+02  0.12677591653E+02  0.00000000000E+00 0.  1.
</event>
<event>
 8    1  0.1238315E-006  0.9118800E+02  0.7816164E-02  0.1184000E+00
        -11   -1    0    0    0    0  0.00000000000E+00  0.00000000000E+00  0.45593999997E+02  0.45594000000E+02  0.51100000000E-03 0.  1.
         11   -1    0    0    0    0 -0.00000000000E+00 -0.00000000000E+00 -0.45593999997E+02  0.45594000000E+02  0.51100000000E-03 0. -1.
         23    2    1    2    0    0  0.00000000000E+00  0.00000000000E+00 -0.71054273576E-14  0.91188000000E+02  0.91188000000E+02 0.  0.
    9900012    2    3    3    0    0  0.27799945324E+02 -0.87418439956E+01 -0.22506219101E+02  0.54366991124E+02  0.39999787864E+02 0.  0.
        -12    1    3    3    0    0 -0.27799945324E+02  0.87418439956E+01  0.22506219101E+02  0.36821008876E+02  0.00000000000E+00 0.  1.
         11    1    4    4    0    0  0.91711296191E+01 -0.16953695339E+01  0.56684524404E+01  0.10913993297E+02  0.51100000000E-03 0.  1.
        -11    1    4    4    0    0  0.14488713233E+02  0.92768840193E+00 -0.68752920311E+00  0.14534652166E+02  0.51100000000E-03 0. -1.
         12    1    4    4    0    0  0.41401024717E+01 -0.79741628636E+01 -0.27487142338E+02  0.28918345661E+02  0.00000000000E+00 0. -1.
</event>
<event>
 8    1  0.1238315E-006  0.9118800E+02  0.7816164E-02  0.1184000E+00
        -11   -1    0    0    0    0  0.00000000000E+00  0.00000000000E+00  0.45593999997E+02  0.45594000000E+02  0.51100000000E-03 0. -1.
         11   -1    0    0    0    0 -0.00000000000E+00 -0.00000000000E+00 -0.45593999997E+02  0.45594000000E+02  0.51100000000E-03 0.  1.
         23    2    1    2    0    0  0.00000000000E+00  0.35527136788E-14  0.00000000000E+00  0.91188000000E+02  0.91188000000E+02 0.  0.
    9900012    2    3    3    0    0 -0.11237064612E+02  0.18971229561E+02  0.29488979507E+02  0.54367094464E+02  0.40000023449E+02 0.  0.
        -12    1    3    3    0    0  0.11237064612E+02 -0.18971229561E+02 -0.29488979507E+02  0.36820905536E+02  0.00000000000E+00 0.  1.
         11    1    4    4    0    0 -0.69469491083E+01  0.57320472622E+00  0.13269317784E+02  0.14988777811E+02  0.51100000000E-03 0. -1.
        -11    1    4    4    0    0 -0.63323780175E+01 -0.19719738778E+01  0.17651305119E+02  0.18856199643E+02  0.51100000000E-03 0.  1.
        -12    1    4    4    0    0  0.20422625135E+01  0.20369998712E+02 -0.14316433957E+01  0.20522117009E+02  0.00000000000E+00 0.  1.
</event>
<event>
 8    1  0.1238315E-006  0.9118800E+02  0.7816164E-02  0.1184000E+00
        -11   -1    0    0    0    0  0.00000000000E+00  0.00000000000E+00  0.45593999997E+02  0.45594000000E+02  0.51100000000E-03 0.  1.
         11   -1    0    0    0    0 -0.00000000000E+00 -0.00000000000E+00 -0.45593999997E+02  0.45594000000E+02  0.51100000000E-03 0. -1.
         23    2    1    2    0    0  0.00000000000E+00  0.00000000000E+00 -0.35527136788E-14  0.91188000000E+02  0.91188000000E+02 0.  0.
    9900012    2    3    3    0    0 -0.13027814429E+01  0.33991121207E+02 -0.14095626918E+02  0.54367078520E+02  0.39999987102E+02 0.  0.
        -12    1    3    3    0    0  0.13027814429E+01 -0.33991121207E+02  0.14095626918E+02  0.36820921480E+02  0.00000000000E+00 0.  1.
         11    1    4    4    0    0  0.74345818590E+00  0.57158045183E+01 -0.59733232628E+01  0.83008278159E+01  0.51100000000E-03 0. -1.
        -11    1    4    4    0    0 -0.34237266106E+01  0.41583108993E+01  0.12940497313E+02  0.14016772967E+02  0.51100000000E-03 0.  1.
        -12    1    4    4    0    0  0.13774869818E+01  0.24117005790E+02 -0.21062800967E+02  0.32049477737E+02  0.00000000000E+00 0.  1.
</event>
<event>
 8    1  0.1238315E-006  0.9118800E+02  0.7816164E-02  0.1184000E+00
        -11   -1    0    0    0    0  0.00000000000E+00  0.00000000000E+00  0.45593999997E+02  0.45594000000E+02  0.51100000000E-03 0. -1.
         11   -1    0    0    0    0 -0.00000000000E+00 -0.00000000000E+00 -0.45593999997E+02  0.45594000000E+02  0.51100000000E-03 0.  1.
         23    2    1    2    0    0  0.00000000000E+00  0.00000000000E+00  0.17763568394E-14  0.91188000000E+02  0.91188000000E+02 0.  0.
    9900012    2    3    3    0    0  0.23096092596E+02  0.27073011690E+02  0.94553193887E+01  0.54367074972E+02  0.39999979013E+02 0.  0.
        -12    1    3    3    0    0 -0.23096092596E+02 -0.27073011690E+02 -0.94553193887E+01  0.36820925028E+02  0.00000000000E+00 0.  1.
         11    1    4    4    0    0  0.14070313749E+02  0.60090008177E+01 -0.37479144939E+01  0.15752100912E+02  0.51100000000E-03 0. -1.
        -11    1    4    4    0    0 -0.74307484929E+01  0.15689914075E+02  0.91379026068E+00  0.17384603526E+02  0.51100000000E-03 0.  1.
        -12    1    4    4    0    0  0.16456527340E+02  0.53740967976E+01  0.12289443622E+02  0.21230370534E+02  0.00000000000E+00 0.  1.
</event>
<event>
 8    1  0.1238315E-006  0.9118800E+02  0.7816164E-02  0.1184000E+00
        -11   -1    0    0    0    0  0.00000000000E+00  0.00000000000E+00  0.45593999997E+02  0.45594000000E+02  0.51100000000E-03 0. -1.
         11   -1    0    0    0    0 -0.00000000000E+00 -0.00000000000E+00 -0.45593999997E+02  0.45594000000E+02  0.51100000000E-03 0.  1.
         23    2    1    2    0    0 -0.17763568394E-14  0.17763568394E-14  0.00000000000E+00  0.91188000000E+02  0.91188000000E+02 0.  0.
    9900012    2    3    3    0    0  0.15032313251E+02 -0.90977850062E+01  0.32357995303E+02  0.54367082117E+02  0.39999995302E+02 0.  0.
        -12    1    3    3    0    0 -0.15032313251E+02  0.90977850062E+01 -0.32357995303E+02  0.36820917883E+02  0.00000000000E+00 0.  1.
         11    1    4    4    0    0 -0.42272652098E+01 -0.12360573628E+02  0.32050478795E+02  0.34610500470E+02  0.51100000000E-03 0. -1.
        -11    1    4    4    0    0  0.73215304992E+01 -0.11174336894E+00  0.60365998999E+00  0.73472240387E+01  0.51100000000E-03 0.  1.
         12    1    4    4    0    0  0.11938047961E+02  0.33745319905E+01 -0.29614348144E+00  0.12409357608E+02  0.00000000000E+00 0. -1.
</event>
<event>
 8    1  0.1238315E-006  0.9118800E+02  0.7816164E-02  0.1184000E+00
        -11   -1    0    0    0    0  0.00000000000E+00  0.00000000000E+00  0.45593999997E+02  0.45594000000E+02  0.51100000000E-03 0. -1.
         11   -1    0    0    0    0 -0.00000000000E+00 -0.00000000000E+00 -0.45593999997E+02  0.45594000000E+02  0.51100000000E-03 0.  1.
         23    2    1    2    0    0  0.00000000000E+00  0.17763568394E-14  0.00000000000E+00  0.91188000000E+02  0.91188000000E+02 0.  0.
    9900012    2    3    3    0    0  0.33669466133E+02 -0.11472979837E+02 -0.95141323189E+01  0.54367069406E+02  0.39999966326E+02 0.  0.
         12    1    3    3    0    0 -0.33669466133E+02  0.11472979837E+02  0.95141323189E+01  0.36820930594E+02  0.00000000000E+00 0. -1.
         11    1    4    4    0    0  0.99334451944E+01 -0.87098441625E+01 -0.20518265490E+01  0.13369544166E+02  0.51100000000E-03 0. -1.
        -11    1    4    4    0    0  0.31470452892E+02 -0.41389355120E+01 -0.89997299490E+01  0.32992655725E+02  0.51100000000E-03 0.  1.
        -12    1    4    4    0    0 -0.77344319539E+01  0.13757998371E+01  0.15374241791E+01  0.80048695147E+01  0.00000000000E+00 0.  1.
</event>
<event>
 8    1  0.1238315E-006  0.9118800E+02  0.7816164E-02  0.1184000E+00
        -11   -1    0    0    0    0  0.00000000000E+00  0.00000000000E+00  0.45593999997E+02  0.45594000000E+02  0.51100000000E-03 0. -1.
         11   -1    0    0    0    0 -0.00000000000E+00 -0.00000000000E+00 -0.45593999997E+02  0.45594000000E+02  0.51100000000E-03 0.  1.
         23    2    1    2    0    0 -0.49960036108E-15  0.00000000000E+00 -0.88817841970E-15  0.91188000000E+02  0.91188000000E+02 0.  0.
    9900012    2    3    3    0    0  0.47464196440E+00 -0.36101850743E+02  0.72256373005E+01  0.54367099054E+02  0.40000033913E+02 0.  0.
        -12    1    3    3    0    0 -0.47464196440E+00  0.36101850743E+02 -0.72256373005E+01  0.36820900946E+02  0.00000000000E+00 0.  1.
         11    1    4    4    0    0 -0.15322065881E+01 -0.78682134110E+01  0.17959854606E+02  0.19667557475E+02  0.51100000000E-03 0. -1.
        -11    1    4    4    0    0 -0.71566942982E+01 -0.17341805742E+02 -0.58661635890E+01  0.19656255370E+02  0.51100000000E-03 0.  1.
        -12    1    4    4    0    0  0.91635428506E+01 -0.10891831591E+02 -0.48680537163E+01  0.15043286209E+02  0.00000000000E+00 0.  1.
</event>
<event>
 8    1  0.1238315E-006  0.9118800E+02  0.7816164E-02  0.1184000E+00
        -11   -1    0    0    0    0  0.00000000000E+00  0.00000000000E+00  0.45593999997E+02  0.45594000000E+02  0.51100000000E-03 0. -1.
         11   -1    0    0    0    0 -0.00000000000E+00 -0.00000000000E+00 -0.45593999997E+02  0.45594000000E+02  0.51100000000E-03 0.  1.
         23    2    1    2    0    0 -0.17763568394E-14  0.00000000000E+00  0.00000000000E+00  0.91188000000E+02  0.91188000000E+02 0.  0.
    9900012    2    3    3    0    0  0.13155142269E+02  0.52011304283E+01 -0.33995152831E+02  0.54367082822E+02  0.39999996909E+02 0.  0.
         12    1    3    3    0    0 -0.13155142269E+02 -0.52011304283E+01  0.33995152831E+02  0.36820917178E+02  0.00000000000E+00 0. -1.
         11    1    4    4    0    0 -0.12490168767E+02  0.55959244555E+01 -0.40459863068E+01  0.14271954729E+02  0.51100000000E-03 0. -1.
        -11    1    4    4    0    0  0.53847040361E+01  0.59846646590E+00 -0.11338048964E+02  0.12566007888E+02  0.51100000000E-03 0.  1.
         12    1    4    4    0    0  0.20260607000E+02 -0.99326049311E+00 -0.18611117560E+02  0.27529120204E+02  0.00000000000E+00 0. -1.
</event>
<event>
 8    1  0.1238315E-006  0.9118800E+02  0.7816164E-02  0.1184000E+00
        -11   -1    0    0    0    0  0.00000000000E+00  0.00000000000E+00  0.45593999997E+02  0.45594000000E+02  0.51100000000E-03 0.  1.
         11   -1    0    0    0    0 -0.00000000000E+00 -0.00000000000E+00 -0.45593999997E+02  0.45594000000E+02  0.51100000000E-03 0. -1.
         23    2    1    2    0    0  0.00000000000E+00  0.35527136788E-14 -0.66613381478E-15  0.91188000000E+02  0.91188000000E+02 0.  0.
    9900012    2    3    3    0    0 -0.28221556644E+02 -0.23574398664E+02 -0.18895356701E+01  0.54367097284E+02  0.40000029878E+02 0.  0.
         12    1    3    3    0    0  0.28221556644E+02  0.23574398664E+02  0.18895356701E+01  0.36820902716E+02  0.00000000000E+00 0. -1.
         11    1    4    4    0    0 -0.21002980663E+00 -0.40447878329E+01  0.85919075012E+00  0.41403659427E+01  0.51100000000E-03 0. -1.
        -11    1    4    4    0    0  0.45796804268E+00 -0.17810612994E+02  0.82810227870E+01  0.19646959271E+02  0.51100000000E-03 0.  1.
         12    1    4    4    0    0 -0.28469494880E+02 -0.17189978378E+01 -0.11029749207E+02  0.30579772070E+02  0.00000000000E+00 0. -1.
</event>
<event>
 8    1  0.1238315E-006  0.9118800E+02  0.7816164E-02  0.1184000E+00
        -11   -1    0    0    0    0  0.00000000000E+00  0.00000000000E+00  0.45593999997E+02  0.45594000000E+02  0.51100000000E-03 0. -1.
         11   -1    0    0    0    0 -0.00000000000E+00 -0.00000000000E+00 -0.45593999997E+02  0.45594000000E+02  0.51100000000E-03 0.  1.
         23    2    1    2    0    0  0.00000000000E+00  0.35527136788E-14 -0.17763568394E-14  0.91188000000E+02  0.91188000000E+02 0.  0.
    9900012    2    3    3    0    0 -0.26349826462E+02  0.22017405434E+02 -0.13292881119E+02  0.54367079519E+02  0.39999989379E+02 0.  0.
         12    1    3    3    0    0  0.26349826462E+02 -0.22017405434E+02  0.13292881119E+02  0.36820920481E+02  0.00000000000E+00 0. -1.
         11    1    4    4    0    0 -0.20233184707E+02 -0.40462277884E+01  0.18492585209E+01  0.20716502602E+02  0.51100000000E-03 0. -1.
        -11    1    4    4    0    0  0.39625898032E+01  0.11599941619E+02 -0.44984846336E+01  0.13057454873E+02  0.51100000000E-03 0.  1.
         12    1    4    4    0    0 -0.10079231558E+02  0.14463691604E+02 -0.10643655006E+02  0.20593122043E+02  0.00000000000E+00 0. -1.
</event>
<event>
 8    1  0.1238315E-006  0.9118800E+02  0.7816164E-02  0.1184000E+00
        -11   -1    0    0    0    0  0.00000000000E+00  0.00000000000E+00  0.45593999997E+02  0.45594000000E+02  0.51100000000E-03 0.  1.
         11   -1    0    0    0    0 -0.00000000000E+00 -0.00000000000E+00 -0.45593999997E+02  0.45594000000E+02  0.51100000000E-03 0. -1.
         23    2    1    2    0    0  0.24424906542E-14  0.00000000000E+00  0.00000000000E+00  0.91188000000E+02  0.91188000000E+02 0.  0.
    9900012    2    3    3    0    0  0.18001083456E+01  0.81975268082E+01  0.35851634177E+02  0.54367088700E+02  0.40000010309E+02 0.  0.
         12    1    3    3    0    0 -0.18001083456E+01 -0.81975268082E+01 -0.35851634177E+02  0.36820911300E+02  0.00000000000E+00 0. -1.
         11    1    4    4    0    0 -0.12859240321E+02 -0.94369254383E+00 -0.10363866898E+01  0.12935405478E+02  0.51100000000E-03 0. -1.
        -11    1    4    4    0    0  0.46204068488E+01  0.83539941631E+00  0.44266330236E+01  0.64529940198E+01  0.51100000000E-03 0.  1.
         12    1    4    4    0    0  0.10038941818E+02  0.83058199357E+01  0.32461387843E+02  0.34978689202E+02  0.00000000000E+00 0. -1.
</event>
<event>
 8    1  0.1238315E-006  0.9118800E+02  0.7816164E-02  0.1184000E+00
        -11   -1    0    0    0    0  0.00000000000E+00  0.00000000000E+00  0.45593999997E+02  0.45594000000E+02  0.51100000000E-03 0. -1.
         11   -1    0    0    0    0 -0.00000000000E+00 -0.00000000000E+00 -0.45593999997E+02  0.45594000000E+02  0.51100000000E-03 0.  1.
         23    2    1    2    0    0  0.00000000000E+00  0.35527136788E-14  0.00000000000E+00  0.91188000000E+02  0.91188000000E+02 0.  0.
    9900012    2    3    3    0    0 -0.15388686948E+02  0.16490187669E+02  0.29103996858E+02  0.54367073770E+02  0.39999976274E+02 0.  0.
        -12    1    3    3    0    0  0.15388686948E+02 -0.16490187669E+02 -0.29103996858E+02  0.36820926230E+02  0.00000000000E+00 0.  1.
         11    1    4    4    0    0 -0.14562872292E+01  0.80105191098E+01  0.12310039183E+02  0.14758938100E+02  0.51100000000E-03 0. -1.
        -11    1    4    4    0    0 -0.12090597685E+02  0.16607832262E+02  0.21745169928E+02  0.29914128104E+02  0.51100000000E-03 0.  1.
        -12    1    4    4    0    0 -0.18418020342E+01 -0.81281637023E+01 -0.49512122530E+01  0.96940075654E+01  0.00000000000E+00 0.  1.
</event>
<event>
 8    1  0.1238315E-006  0.9118800E+02  0.7816164E-02  0.1184000E+00
        -11   -1    0    0    0    0  0.00000000000E+00  0.00000000000E+00  0.45593999997E+02  0.45594000000E+02  0.51100000000E-03 0. -1.
         11   -1    0    0    0    0 -0.00000000000E+00 -0.00000000000E+00 -0.45593999997E+02  0.45594000000E+02  0.51100000000E-03 0.  1.
         23    2    1    2    0    0 -0.71054273576E-14  0.17763568394E-14 -0.17763568394E-14  0.91188000000E+02  0.91188000000E+02 0.  0.
    9900012    2    3    3    0    0 -0.34261421967E+02  0.99430459931E+01 -0.91142481236E+01  0.54367099445E+02  0.40000034806E+02 0.  0.
         12    1    3    3    0    0  0.34261421967E+02 -0.99430459931E+01  0.91142481236E+01  0.36820900555E+02  0.00000000000E+00 0. -1.
         11    1    4    4    0    0 -0.34166032835E+02 -0.51527753462E-01 -0.83807132161E+00  0.34176348819E+02  0.51100000000E-03 0. -1.
        -11    1    4    4    0    0 -0.21331501016E+01 -0.27045991702E+01  0.17680131909E+01  0.38718286289E+01  0.51100000000E-03 0.  1.
         12    1    4    4    0    0  0.20377609700E+01  0.12699172917E+02 -0.10044189993E+02  0.16318921997E+02  0.00000000000E+00 0. -1.
</event>
<event>
 8    1  0.1238315E-006  0.9118800E+02  0.7816164E-02  0.1184000E+00
        -11   -1    0    0    0    0  0.00000000000E+00  0.00000000000E+00  0.45593999997E+02  0.45594000000E+02  0.51100000000E-03 0. -1.
         11   -1    0    0    0    0 -0.00000000000E+00 -0.00000000000E+00 -0.45593999997E+02  0.45594000000E+02  0.51100000000E-03 0.  1.
         23    2    1    2    0    0 -0.17763568394E-14  0.17763568394E-14  0.00000000000E+00  0.91188000000E+02  0.91188000000E+02 0.  0.
    9900012    2    3    3    0    0  0.10310625905E+02 -0.12577560150E+02 -0.33034468774E+02  0.54367079954E+02  0.39999990371E+02 0.  0.
         12    1    3    3    0    0 -0.10310625905E+02  0.12577560150E+02  0.33034468774E+02  0.36820920046E+02  0.00000000000E+00 0. -1.
         11    1    4    4    0    0  0.93851653342E+01 -0.15356511816E+01 -0.37797413897E+01  0.10233572110E+02  0.51100000000E-03 0. -1.
        -11    1    4    4    0    0 -0.60869261821E+01 -0.20062796926E+02 -0.22945107228E+02  0.31081255393E+02  0.51100000000E-03 0.  1.
        -12    1    4    4    0    0  0.70123867526E+01  0.90208879581E+01 -0.63096201557E+01  0.13052252450E+02  0.00000000000E+00 0.  1.
</event>
<event>
 8    1  0.1238315E-006  0.9118800E+02  0.7816164E-02  0.1184000E+00
        -11   -1    0    0    0    0  0.00000000000E+00  0.00000000000E+00  0.45593999997E+02  0.45594000000E+02  0.51100000000E-03 0.  1.
         11   -1    0    0    0    0 -0.00000000000E+00 -0.00000000000E+00 -0.45593999997E+02  0.45594000000E+02  0.51100000000E-03 0. -1.
         23    2    1    2    0    0  0.00000000000E+00  0.44408920985E-15  0.00000000000E+00  0.91188000000E+02  0.91188000000E+02 0.  0.
    9900012    2    3    3    0    0 -0.32333733296E+02 -0.25548694661E+01  0.17429226522E+02  0.54367141726E+02  0.40000131193E+02 0.  0.
         12    1    3    3    0    0  0.32333733296E+02  0.25548694661E+01 -0.17429226522E+02  0.36820858274E+02  0.00000000000E+00 0. -1.
         11    1    4    4    0    0 -0.72301462383E-01  0.23144604111E+01  0.19142848458E+00  0.23234886748E+01  0.51100000000E-03 0. -1.
        -11    1    4    4    0    0 -0.27579197624E+02  0.11706799117E+02  0.17726088069E+02  0.34812002034E+02  0.51100000000E-03 0.  1.
        -12    1    4    4    0    0 -0.46822342098E+01 -0.16576128994E+02 -0.48829003122E+00  0.17231651017E+02  0.00000000000E+00 0.  1.
</event>
<event>
 8    1  0.1238315E-006  0.9118800E+02  0.7816164E-02  0.1184000E+00
        -11   -1    0    0    0    0  0.00000000000E+00  0.00000000000E+00  0.45593999997E+02  0.45594000000E+02  0.51100000000E-03 0.  1.
         11   -1    0    0    0    0 -0.00000000000E+00 -0.00000000000E+00 -0.45593999997E+02  0.45594000000E+02  0.51100000000E-03 0. -1.
         23    2    1    2    0    0  0.35527136788E-14  0.00000000000E+00  0.00000000000E+00  0.91188000000E+02  0.91188000000E+02 0.  0.
    9900012    2    3    3    0    0 -0.23212880354E+02  0.26099246774E+02 -0.11652281304E+02  0.54367025596E+02  0.39999866450E+02 0.  0.
        -12    1    3    3    0    0  0.23212880354E+02 -0.26099246774E+02  0.11652281304E+02  0.36820974404E+02  0.00000000000E+00 0.  1.
         11    1    4    4    0    0 -0.52712974702E+01  0.64127895775E+01  0.67754084921E+01  0.10715251172E+02  0.51100000000E-03 0. -1.
        -11    1    4    4    0    0 -0.24358930342E+02  0.77880633633E+01 -0.87616049325E+01  0.27032889960E+02  0.51100000000E-03 0.  1.
        -12    1    4    4    0    0  0.64173474581E+01  0.11898393833E+02 -0.96660848631E+01  0.16618884463E+02  0.00000000000E+00 0.  1.
</event>
<event>
 8    1  0.1238315E-006  0.9118800E+02  0.7816164E-02  0.1184000E+00
        -11   -1    0    0    0    0  0.00000000000E+00  0.00000000000E+00  0.45593999997E+02  0.45594000000E+02  0.51100000000E-03 0. -1.
         11   -1    0    0    0    0 -0.00000000000E+00 -0.00000000000E+00 -0.45593999997E+02  0.45594000000E+02  0.51100000000E-03 0.  1.
         23    2    1    2    0    0  0.00000000000E+00  0.00000000000E+00  0.00000000000E+00  0.91188000000E+02  0.91188000000E+02 0.  0.
    9900012    2    3    3    0    0  0.14699385403E+02  0.27259009735E+02  0.19916199734E+02  0.54367074499E+02  0.39999977935E+02 0.  0.
        -12    1    3    3    0    0 -0.14699385403E+02 -0.27259009735E+02 -0.19916199734E+02  0.36820925501E+02  0.00000000000E+00 0.  1.
         11    1    4    4    0    0  0.13774855185E+02  0.25986493993E+01 -0.32140978192E+01  0.14381586808E+02  0.51100000000E-03 0. -1.
        -11    1    4    4    0    0  0.50335677828E+01  0.44070828100E+01 -0.24282596795E+01  0.71172767861E+01  0.51100000000E-03 0.  1.
         12    1    4    4    0    0 -0.41090375654E+01  0.20253277525E+02  0.25558557232E+02  0.32868210904E+02  0.00000000000E+00 0. -1.
</event>
<event>
 8    1  0.1238315E-006  0.9118800E+02  0.7816164E-02  0.1184000E+00
        -11   -1    0    0    0    0  0.00000000000E+00  0.00000000000E+00  0.45593999997E+02  0.45594000000E+02  0.51100000000E-03 0. -1.
         11   -1    0    0    0    0 -0.00000000000E+00 -0.00000000000E+00 -0.45593999997E+02  0.45594000000E+02  0.51100000000E-03 0.  1.
         23    2    1    2    0    0  0.00000000000E+00 -0.13322676296E-14  0.00000000000E+00  0.91188000000E+02  0.91188000000E+02 0.  0.
    9900012    2    3    3    0    0  0.31746939617E+02 -0.36782689531E+01  0.18286112758E+02  0.54367085327E+02  0.40000002620E+02 0.  0.
        -12    1    3    3    0    0 -0.31746939617E+02  0.36782689531E+01 -0.18286112758E+02  0.36820914673E+02  0.00000000000E+00 0.  1.
         11    1    4    4    0    0  0.16112331736E+01  0.97832468868E+01  0.22758840535E+01  0.10172887519E+02  0.51100000000E-03 0. -1.
        -11    1    4    4    0    0  0.17342283225E+02  0.56095889411E+01  0.71963197096E+01  0.19596155061E+02  0.51100000000E-03 0.  1.
         12    1    4    4    0    0  0.12793423218E+02 -0.19071104781E+02  0.88139089949E+01  0.24598042747E+02  0.00000000000E+00 0. -1.
</event>
<event>
 8    1  0.1238315E-006  0.9118800E+02  0.7816164E-02  0.1184000E+00
        -11   -1    0    0    0    0  0.00000000000E+00  0.00000000000E+00  0.45593999997E+02  0.45594000000E+02  0.51100000000E-03 0.  1.
         11   -1    0    0    0    0 -0.00000000000E+00 -0.00000000000E+00 -0.45593999997E+02  0.45594000000E+02  0.51100000000E-03 0. -1.
         23    2    1    2    0    0 -0.35527136788E-14  0.00000000000E+00  0.35527136788E-14  0.91188000000E+02  0.91188000000E+02 0.  0.
    9900012    2    3    3    0    0  0.20064186984E+02 -0.97237577012E+01 -0.29302841003E+02  0.54367088088E+02  0.40000008915E+02 0.  0.
        -12    1    3    3    0    0 -0.20064186984E+02  0.97237577012E+01  0.29302841003E+02  0.36820911912E+02  0.00000000000E+00 0.  1.
         11    1    4    4    0    0  0.86375800091E+01 -0.16689204288E+01 -0.10166311616E+02  0.13444217193E+02  0.51100000000E-03 0. -1.
        -11    1    4    4    0    0  0.14379996451E+02 -0.10784177267E+02 -0.26799315285E+02  0.32268964614E+02  0.51100000000E-03 0.  1.
        -12    1    4    4    0    0 -0.29533894762E+01  0.27293399950E+01  0.76627858974E+01  0.86539062807E+01  0.00000000000E+00 0.  1.
</event>
<event>
 8    1  0.1238315E-006  0.9118800E+02  0.7816164E-02  0.1184000E+00
        -11   -1    0    0    0    0  0.00000000000E+00  0.00000000000E+00  0.45593999997E+02  0.45594000000E+02  0.51100000000E-03 0. -1.
         11   -1    0    0    0    0 -0.00000000000E+00 -0.00000000000E+00 -0.45593999997E+02  0.45594000000E+02  0.51100000000E-03 0.  1.
         23    2    1    2    0    0 -0.17763568394E-14  0.35527136788E-14 -0.71054273576E-14  0.91188000000E+02  0.91188000000E+02 0.  0.
    9900012    2    3    3    0    0 -0.12670926140E+02  0.10225546104E+02 -0.33025227111E+02  0.54367084909E+02  0.40000001668E+02 0.  0.
         12    1    3    3    0    0  0.12670926140E+02 -0.10225546104E+02  0.33025227111E+02  0.36820915091E+02  0.00000000000E+00 0. -1.
         11    1    4    4    0    0  0.41782243390E+01 -0.52730191211E+00  0.42732803003E+01  0.59997108864E+01  0.51100000000E-03 0. -1.
        -11    1    4    4    0    0 -0.15992039108E+02 -0.33910474009E+01 -0.16735013407E+02  0.23394554736E+02  0.51100000000E-03 0.  1.
        -12    1    4    4    0    0 -0.85711137151E+00  0.14143895417E+02 -0.20563494004E+02  0.24972819287E+02  0.00000000000E+00 0.  1.
</event>
<event>
 8    1  0.1238315E-006  0.9118800E+02  0.7816164E-02  0.1184000E+00
        -11   -1    0    0    0    0  0.00000000000E+00  0.00000000000E+00  0.45593999997E+02  0.45594000000E+02  0.51100000000E-03 0. -1.
         11   -1    0    0    0    0 -0.00000000000E+00 -0.00000000000E+00 -0.45593999997E+02  0.45594000000E+02  0.51100000000E-03 0.  1.
         23    2    1    2    0    0  0.00000000000E+00  0.00000000000E+00  0.00000000000E+00  0.91188000000E+02  0.91188000000E+02 0.  0.
    9900012    2    3    3    0    0  0.14944888741E+02 -0.28887246626E+01 -0.33527378869E+02  0.54367087960E+02  0.40000008622E+02 0.  0.
         12    1    3    3    0    0 -0.14944888741E+02  0.28887246626E+01  0.33527378869E+02  0.36820912040E+02  0.00000000000E+00 0. -1.
         11    1    4    4    0    0  0.18992624585E+01  0.64687632597E+01  0.30224399840E+00  0.67485885704E+01  0.51100000000E-03 0. -1.
        -11    1    4    4    0    0  0.17241181803E+02  0.19017950514E+01 -0.79403512994E+01  0.19076801446E+02  0.51100000000E-03 0.  1.
        -12    1    4    4    0    0 -0.41955555201E+01 -0.11259282974E+02 -0.25889271568E+02  0.28541697944E+02  0.00000000000E+00 0.  1.
</event>
<event>
 8    1  0.1238315E-006  0.9118800E+02  0.7816164E-02  0.1184000E+00
        -11   -1    0    0    0    0  0.00000000000E+00  0.00000000000E+00  0.45593999997E+02  0.45594000000E+02  0.51100000000E-03 0.  1.
         11   -1    0    0    0    0 -0.00000000000E+00 -0.00000000000E+00 -0.45593999997E+02  0.45594000000E+02  0.51100000000E-03 0. -1.
         23    2    1    2    0    0  0.00000000000E+00 -0.71054273576E-14  0.00000000000E+00  0.91188000000E+02  0.91188000000E+02 0.  0.
    9900012    2    3    3    0    0  0.51905208655E+01  0.33263530266E+02 -0.14912258683E+02  0.54367090021E+02  0.40000013322E+02 0.  0.
        -12    1    3    3    0    0 -0.51905208655E+01 -0.33263530266E+02  0.14912258683E+02  0.36820909979E+02  0.00000000000E+00 0.  1.
         11    1    4    4    0    0  0.61700597634E+00 -0.66337157191E+01  0.59088825531E+01  0.89051543448E+01  0.51100000000E-03 0. -1.
        -11    1    4    4    0    0  0.27104900983E+01  0.12179355071E+02 -0.46372133444E+01  0.13311168032E+02  0.51100000000E-03 0.  1.
         12    1    4    4    0    0  0.18630247909E+01  0.27717890914E+02 -0.16183927892E+02  0.32150767644E+02  0.00000000000E+00 0. -1.
</event>
<event>
 8    1  0.1238315E-006  0.9118800E+02  0.7816164E-02  0.1184000E+00
        -11   -1    0    0    0    0  0.00000000000E+00  0.00000000000E+00  0.45593999997E+02  0.45594000000E+02  0.51100000000E-03 0.  1.
         11   -1    0    0    0    0 -0.00000000000E+00 -0.00000000000E+00 -0.45593999997E+02  0.45594000000E+02  0.51100000000E-03 0. -1.
         23    2    1    2    0    0  0.00000000000E+00  0.00000000000E+00  0.00000000000E+00  0.91188000000E+02  0.91188000000E+02 0.  0.
    9900012    2    3    3    0    0 -0.15147012684E+02  0.16631690457E+02  0.29150189888E+02  0.54367099804E+02  0.40000035623E+02 0.  0.
         12    1    3    3    0    0  0.15147012684E+02 -0.16631690457E+02 -0.29150189888E+02  0.36820900196E+02  0.00000000000E+00 0. -1.
         11    1    4    4    0    0 -0.29139488911E+01  0.45913546584E+01 -0.68277258338E+01  0.87286583196E+01  0.51100000000E-03 0. -1.
        -11    1    4    4    0    0 -0.64459624397E+01 -0.55171864353E+01  0.17765059038E+02  0.19687231924E+02  0.51100000000E-03 0.  1.
         12    1    4    4    0    0 -0.57871013536E+01  0.17557522234E+02  0.18212856684E+02  0.25951209561E+02  0.00000000000E+00 0. -1.
</event>
<event>
 8    1  0.1238315E-006  0.9118800E+02  0.7816164E-02  0.1184000E+00
        -11   -1    0    0    0    0  0.00000000000E+00  0.00000000000E+00  0.45593999997E+02  0.45594000000E+02  0.51100000000E-03 0. -1.
         11   -1    0    0    0    0 -0.00000000000E+00 -0.00000000000E+00 -0.45593999997E+02  0.45594000000E+02  0.51100000000E-03 0.  1.
         23    2    1    2    0    0  0.00000000000E+00 -0.83266726847E-15 -0.35527136788E-14  0.91188000000E+02  0.91188000000E+02 0.  0.
    9900012    2    3    3    0    0 -0.35513774077E+02 -0.38276628119E+00  0.97160887831E+01  0.54367122220E+02  0.40000086725E+02 0.  0.
        -12    1    3    3    0    0  0.35513774077E+02  0.38276628119E+00 -0.97160887831E+01  0.36820877780E+02  0.00000000000E+00 0.  1.
         11    1    4    4    0    0 -0.60590504959E+01 -0.12578993823E+02  0.45460239607E+01  0.14683647797E+02  0.51100000000E-03 0.  1.
        -11    1    4    4    0    0 -0.21562864074E+02  0.13436811023E+02 -0.58507543744E+01  0.26071753385E+02  0.51100000000E-03 0. -1.
        -12    1    4    4    0    0 -0.78918595075E+01 -0.12405834817E+01  0.11020819197E+02  0.13611721039E+02  0.00000000000E+00 0.  1.
</event>
<event>
 8    1  0.1238315E-006  0.9118800E+02  0.7816164E-02  0.1184000E+00
        -11   -1    0    0    0    0  0.00000000000E+00  0.00000000000E+00  0.45593999997E+02  0.45594000000E+02  0.51100000000E-03 0.  1.
         11   -1    0    0    0    0 -0.00000000000E+00 -0.00000000000E+00 -0.45593999997E+02  0.45594000000E+02  0.51100000000E-03 0. -1.
         23    2    1    2    0    0  0.00000000000E+00 -0.35527136788E-14  0.00000000000E+00  0.91188000000E+02  0.91188000000E+02 0.  0.
    9900012    2    3    3    0    0  0.21944883782E+02 -0.23708335951E+02 -0.17666847605E+02  0.54367073585E+02  0.39999975852E+02 0.  0.
        -12    1    3    3    0    0 -0.21944883782E+02  0.23708335951E+02  0.17666847605E+02  0.36820926415E+02  0.00000000000E+00 0.  1.
         11    1    4    4    0    0  0.16583220536E+02  0.85508575159E+00 -0.39050378269E+01  0.17058244214E+02  0.51100000000E-03 0. -1.
        -11    1    4    4    0    0  0.37383925449E+01  0.31747354586E+01 -0.72786950951E+01  0.87768973220E+01  0.51100000000E-03 0.  1.
        -12    1    4    4    0    0  0.16232707011E+01 -0.27738157161E+02 -0.64831146834E+01  0.28531932049E+02  0.00000000000E+00 0.  1.
</event>
<event>
 8    1  0.1238315E-006  0.9118800E+02  0.7816164E-02  0.1184000E+00
        -11   -1    0    0    0    0  0.00000000000E+00  0.00000000000E+00  0.45593999997E+02  0.45594000000E+02  0.51100000000E-03 0.  1.
         11   -1    0    0    0    0 -0.00000000000E+00 -0.00000000000E+00 -0.45593999997E+02  0.45594000000E+02  0.51100000000E-03 0. -1.
         23    2    1    2    0    0 -0.88817841970E-15  0.00000000000E+00  0.00000000000E+00  0.91188000000E+02  0.91188000000E+02 0.  0.
    9900012    2    3    3    0    0 -0.73763812349E+01 -0.23267273856E+02 -0.27568160340E+02  0.54367075279E+02  0.39999979713E+02 0.  0.
        -12    1    3    3    0    0  0.73763812349E+01  0.23267273856E+02  0.27568160340E+02  0.36820924721E+02  0.00000000000E+00 0.  1.
         11    1    4    4    0    0 -0.57658635223E+01 -0.79675906461E+01 -0.12962306318E+02  0.16271111462E+02  0.51100000000E-03 0. -1.
        -11    1    4    4    0    0 -0.99117631287E+01  0.12698623993E+01 -0.16683448192E+02  0.19447185983E+02  0.51100000000E-03 0.  1.
         12    1    4    4    0    0  0.83012454161E+01 -0.16569545609E+02  0.20775941702E+01  0.18648777834E+02  0.00000000000E+00 0. -1.
</event>
<event>
 8    1  0.1238315E-006  0.9118800E+02  0.7816164E-02  0.1184000E+00
        -11   -1    0    0    0    0  0.00000000000E+00  0.00000000000E+00  0.45593999997E+02  0.45594000000E+02  0.51100000000E-03 0. -1.
         11   -1    0    0    0    0 -0.00000000000E+00 -0.00000000000E+00 -0.45593999997E+02  0.45594000000E+02  0.51100000000E-03 0.  1.
         23    2    1    2    0    0 -0.35527136788E-14 -0.17763568394E-14  0.00000000000E+00  0.91188000000E+02  0.91188000000E+02 0.  0.
    9900012    2    3    3    0    0 -0.31654377406E+02 -0.90811696011E+01 -0.16471457491E+02  0.54367134147E+02  0.40000113914E+02 0.  0.
         12    1    3    3    0    0  0.31654377406E+02  0.90811696011E+01  0.16471457491E+02  0.36820865853E+02  0.00000000000E+00 0. -1.
         11    1    4    4    0    0 -0.19798840468E+02 -0.85284566208E+01 -0.66584209564E+01  0.22562429526E+02  0.51100000000E-03 0. -1.
        -11    1    4    4    0    0 -0.42407741496E+01 -0.11211015437E+02  0.41261376855E+01  0.12676594376E+02  0.51100000000E-03 0.  1.
        -12    1    4    4    0    0 -0.76147627885E+01  0.10658302456E+02 -0.13939174220E+02  0.19128110245E+02  0.00000000000E+00 0.  1.
</event>
<event>
 8    1  0.1238315E-006  0.9118800E+02  0.7816164E-02  0.1184000E+00
        -11   -1    0    0    0    0  0.00000000000E+00  0.00000000000E+00  0.45593999997E+02  0.45594000000E+02  0.51100000000E-03 0.  1.
         11   -1    0    0    0    0 -0.00000000000E+00 -0.00000000000E+00 -0.45593999997E+02  0.45594000000E+02  0.51100000000E-03 0. -1.
         23    2    1    2    0    0  0.17763568394E-14  0.00000000000E+00  0.00000000000E+00  0.91188000000E+02  0.91188000000E+02 0.  0.
    9900012    2    3    3    0    0 -0.11925089044E+02 -0.31870964925E+02  0.14064619154E+02  0.54367086569E+02  0.40000005451E+02 0.  0.
         12    1    3    3    0    0  0.11925089044E+02  0.31870964925E+02 -0.14064619154E+02  0.36820913431E+02  0.00000000000E+00 0. -1.
         11    1    4    4    0    0 -0.70970212112E+01 -0.10214218087E+02  0.76493072516E+01  0.14601707534E+02  0.51100000000E-03 0. -1.
        -11    1    4    4    0    0 -0.16392738225E+02 -0.25974176717E+01  0.11088679364E+00  0.16597612516E+02  0.51100000000E-03 0.  1.
        -12    1    4    4    0    0  0.11564670393E+02 -0.19059329166E+02  0.63044251085E+01  0.23167766519E+02  0.00000000000E+00 0.  1.
</event>
<event>
 8    1  0.1238315E-006  0.9118800E+02  0.7816164E-02  0.1184000E+00
        -11   -1    0    0    0    0  0.00000000000E+00  0.00000000000E+00  0.45593999997E+02  0.45594000000E+02  0.51100000000E-03 0. -1.
         11   -1    0    0    0    0 -0.00000000000E+00 -0.00000000000E+00 -0.45593999997E+02  0.45594000000E+02  0.51100000000E-03 0.  1.
         23    2    1    2    0    0 -0.35527136788E-14  0.00000000000E+00  0.00000000000E+00  0.91188000000E+02  0.91188000000E+02 0.  0.
    9900012    2    3    3    0    0 -0.22732043362E+02 -0.27522636373E+02  0.90298398602E+01  0.54367091317E+02  0.40000016276E+02 0.  0.
        -12    1    3    3    0    0  0.22732043362E+02  0.27522636373E+02 -0.90298398602E+01  0.36820908683E+02  0.00000000000E+00 0.  1.
         11    1    4    4    0    0 -0.15359868807E+01 -0.22421380625E+02  0.87622654718E+01  0.24121667879E+02  0.51100000000E-03 0. -1.
        -11    1    4    4    0    0  0.16197136108E+01  0.28064037647E+01  0.46860579178E+01  0.56972373429E+01  0.51100000000E-03 0.  1.
        -12    1    4    4    0    0 -0.22815770092E+02 -0.79076595133E+01 -0.44184835294E+01  0.24548186095E+02  0.00000000000E+00 0.  1.
</event>
<event>
 8    1  0.1238315E-006  0.9118800E+02  0.7816164E-02  0.1184000E+00
        -11   -1    0    0    0    0  0.00000000000E+00  0.00000000000E+00  0.45593999997E+02  0.45594000000E+02  0.51100000000E-03 0. -1.
         11   -1    0    0    0    0 -0.00000000000E+00 -0.00000000000E+00 -0.45593999997E+02  0.45594000000E+02  0.51100000000E-03 0.  1.
         23    2    1    2    0    0  0.71054273576E-14  0.00000000000E+00  0.00000000000E+00  0.91188000000E+02  0.91188000000E+02 0.  0.
    9900012    2    3    3    0    0 -0.26542491667E+02  0.17847057025E+02  0.18241717935E+02  0.54367060555E+02  0.39999946148E+02 0.  0.
        -12    1    3    3    0    0  0.26542491667E+02 -0.17847057025E+02 -0.18241717935E+02  0.36820939445E+02  0.00000000000E+00 0.  1.
         11    1    4    4    0    0 -0.32104300595E+01  0.13113662584E+01  0.15129623053E+02  0.15521985589E+02  0.51100000000E-03 0. -1.
        -11    1    4    4    0    0 -0.23960080744E+01  0.16063417709E+02  0.67537591250E+01  0.17589414594E+02  0.51100000000E-03 0.  1.
         12    1    4    4    0    0 -0.20936053533E+02  0.47227305806E+00 -0.36416642438E+01  0.21255660372E+02  0.00000000000E+00 0. -1.
</event>
<event>
 8    1  0.1238315E-006  0.9118800E+02  0.7816164E-02  0.1184000E+00
        -11   -1    0    0    0    0  0.00000000000E+00  0.00000000000E+00  0.45593999997E+02  0.45594000000E+02  0.51100000000E-03 0.  1.
         11   -1    0    0    0    0 -0.00000000000E+00 -0.00000000000E+00 -0.45593999997E+02  0.45594000000E+02  0.51100000000E-03 0. -1.
         23    2    1    2    0    0  0.63837823916E-15  0.00000000000E+00  0.00000000000E+00  0.91188000000E+02  0.91188000000E+02 0.  0.
    9900012    2    3    3    0    0  0.20405634787E+00 -0.36147219283E+02 -0.70084975278E+01  0.54367052993E+02  0.39999928907E+02 0.  0.
        -12    1    3    3    0    0 -0.20405634787E+00  0.36147219283E+02  0.70084975278E+01  0.36820947007E+02  0.00000000000E+00 0.  1.
         11    1    4    4    0    0  0.10457710685E+02 -0.61416949746E+01 -0.10876845368E+02  0.16290791735E+02  0.51100000000E-03 0.  1.
        -11    1    4    4    0    0 -0.75172466419E+01  0.21310718053E+00  0.12206236554E+01  0.76186832271E+01  0.51100000000E-03 0. -1.
         12    1    4    4    0    0 -0.27364076948E+01 -0.30218631489E+02  0.26477241846E+01  0.30457578031E+02  0.00000000000E+00 0. -1.
</event>
<event>
 8    1  0.1238315E-006  0.9118800E+02  0.7816164E-02  0.1184000E+00
        -11   -1    0    0    0    0  0.00000000000E+00  0.00000000000E+00  0.45593999997E+02  0.45594000000E+02  0.51100000000E-03 0. -1.
         11   -1    0    0    0    0 -0.00000000000E+00 -0.00000000000E+00 -0.45593999997E+02  0.45594000000E+02  0.51100000000E-03 0.  1.
         23    2    1    2    0    0  0.00000000000E+00  0.00000000000E+00  0.35527136788E-14  0.91188000000E+02  0.91188000000E+02 0.  0.
    9900012    2    3    3    0    0  0.16444657435E+02 -0.28860709255E+02 -0.15887499749E+02  0.54367082777E+02  0.39999996808E+02 0.  0.
         12    1    3    3    0    0 -0.16444657435E+02  0.28860709255E+02  0.15887499749E+02  0.36820917223E+02  0.00000000000E+00 0. -1.
         11    1    4    4    0    0  0.13430535366E+02  0.37935328307E+01 -0.10364357641E+01  0.13994440714E+02  0.51100000000E-03 0. -1.
        -11    1    4    4    0    0  0.10603529917E+02 -0.19114800703E+02 -0.68295526574E+01  0.22900944137E+02  0.51100000000E-03 0.  1.
         12    1    4    4    0    0 -0.75894078479E+01 -0.13539441382E+02 -0.80215113276E+01  0.17471697926E+02  0.00000000000E+00 0. -1.
</event>
<event>
 8    1  0.1238315E-006  0.9118800E+02  0.7816164E-02  0.1184000E+00
        -11   -1    0    0    0    0  0.00000000000E+00  0.00000000000E+00  0.45593999997E+02  0.45594000000E+02  0.51100000000E-03 0.  1.
         11   -1    0    0    0    0 -0.00000000000E+00 -0.00000000000E+00 -0.45593999997E+02  0.45594000000E+02  0.51100000000E-03 0. -1.
         23    2    1    2    0    0  0.00000000000E+00 -0.17763568394E-14  0.00000000000E+00  0.91188000000E+02  0.91188000000E+02 0.  0.
    9900012    2    3    3    0    0 -0.27885407026E+02  0.15385628728E+02  0.18478807035E+02  0.54367084669E+02  0.40000001120E+02 0.  0.
        -12    1    3    3    0    0  0.27885407026E+02 -0.15385628728E+02 -0.18478807035E+02  0.36820915331E+02  0.00000000000E+00 0.  1.
         11    1    4    4    0    0  0.33616960354E+00 -0.18032355788E+00 -0.59354283423E+00  0.70556356557E+00  0.51100000000E-03 0. -1.
        -11    1    4    4    0    0 -0.41485699856E+00 -0.11537717413E+01 -0.10012653144E+02  0.10087443621E+02  0.51100000000E-03 0.  1.
         12    1    4    4    0    0 -0.27806719631E+02  0.16719724027E+02  0.29085003013E+02  0.43574077483E+02  0.00000000000E+00 0. -1.
</event>
<event>
 8    1  0.1238315E-006  0.9118800E+02  0.7816164E-02  0.1184000E+00
        -11   -1    0    0    0    0  0.00000000000E+00  0.00000000000E+00  0.45593999997E+02  0.45594000000E+02  0.51100000000E-03 0. -1.
         11   -1    0    0    0    0 -0.00000000000E+00 -0.00000000000E+00 -0.45593999997E+02  0.45594000000E+02  0.51100000000E-03 0.  1.
         23    2    1    2    0    0 -0.35527136788E-14  0.00000000000E+00  0.00000000000E+00  0.91188000000E+02  0.91188000000E+02 0.  0.
    9900012    2    3    3    0    0 -0.23876604683E+02  0.43697531989E+01  0.27687419094E+02  0.54367079719E+02  0.39999989836E+02 0.  0.
        -12    1    3    3    0    0  0.23876604683E+02 -0.43697531989E+01 -0.27687419094E+02  0.36820920281E+02  0.00000000000E+00 0.  1.
         11    1    4    4    0    0 -0.43860306306E+01  0.10339849686E+02  0.33887066205E+01  0.11731712963E+02  0.51100000000E-03 0. -1.
        -11    1    4    4    0    0  0.75086766286E+01 -0.10855567591E+01  0.56704100931E+01  0.94716529220E+01  0.51100000000E-03 0.  1.
         12    1    4    4    0    0 -0.26999250681E+02 -0.48845397281E+01  0.18628302381E+02  0.33163713834E+02  0.00000000000E+00 0. -1.
</event>
<event>
 8    1  0.1238315E-006  0.9118800E+02  0.7816164E-02  0.1184000E+00
        -11   -1    0    0    0    0  0.00000000000E+00  0.00000000000E+00  0.45593999997E+02  0.45594000000E+02  0.51100000000E-03 0. -1.
         11   -1    0    0    0    0 -0.00000000000E+00 -0.00000000000E+00 -0.45593999997E+02  0.45594000000E+02  0.51100000000E-03 0.  1.
         23    2    1    2    0    0  0.00000000000E+00  0.00000000000E+00  0.00000000000E+00  0.91188000000E+02  0.91188000000E+02 0.  0.
    9900012    2    3    3    0    0  0.17399425078E+02 -0.16400502918E+02 -0.28001140440E+02  0.54367077212E+02  0.39999984121E+02 0.  0.
         12    1    3    3    0    0 -0.17399425078E+02  0.16400502918E+02  0.28001140440E+02  0.36820922788E+02  0.00000000000E+00 0. -1.
         11    1    4    4    0    0  0.25843647329E+01 -0.21862445922E+01 -0.17584549863E+02  0.17907400722E+02  0.51100000000E-03 0. -1.
        -11    1    4    4    0    0  0.81499489769E+00 -0.56195479717E+01 -0.17627117896E+02  0.18519147433E+02  0.51100000000E-03 0.  1.
        -12    1    4    4    0    0  0.14000065448E+02 -0.85947103541E+01  0.72105273189E+01  0.17940529057E+02  0.00000000000E+00 0.  1.
</event>
<event>
 8    1  0.1238315E-006  0.9118800E+02  0.7816164E-02  0.1184000E+00
        -11   -1    0    0    0    0  0.00000000000E+00  0.00000000000E+00  0.45593999997E+02  0.45594000000E+02  0.51100000000E-03 0.  1.
         11   -1    0    0    0    0 -0.00000000000E+00 -0.00000000000E+00 -0.45593999997E+02  0.45594000000E+02  0.51100000000E-03 0. -1.
         23    2    1    2    0    0  0.35527136788E-14  0.17763568394E-14  0.00000000000E+00  0.91188000000E+02  0.91188000000E+02 0.  0.
    9900012    2    3    3    0    0 -0.22052484891E+02 -0.14603638343E+02  0.25616429474E+02  0.54367084724E+02  0.40000001246E+02 0.  0.
         12    1    3    3    0    0  0.22052484891E+02  0.14603638343E+02 -0.25616429474E+02  0.36820915276E+02  0.00000000000E+00 0. -1.
         11    1    4    4    0    0 -0.12521948769E+02 -0.37772645378E+01  0.18042106630E+02  0.22284176904E+02  0.51100000000E-03 0. -1.
        -11    1    4    4    0    0 -0.18193592748E+02 -0.14061478194E+01  0.30048430544E+01  0.18493597563E+02  0.51100000000E-03 0.  1.
         12    1    4    4    0    0  0.86630566258E+01 -0.94202259861E+01  0.45694797892E+01  0.13589310258E+02  0.00000000000E+00 0. -1.
</event>
<event>
 8    1  0.1238315E-006  0.9118800E+02  0.7816164E-02  0.1184000E+00
        -11   -1    0    0    0    0  0.00000000000E+00  0.00000000000E+00  0.45593999997E+02  0.45594000000E+02  0.51100000000E-03 0. -1.
         11   -1    0    0    0    0 -0.00000000000E+00 -0.00000000000E+00 -0.45593999997E+02  0.45594000000E+02  0.51100000000E-03 0.  1.
         23    2    1    2    0    0  0.00000000000E+00 -0.16653345369E-15 -0.35527136788E-14  0.91188000000E+02  0.91188000000E+02 0.  0.
    9900012    2    3    3    0    0 -0.27895448628E+02  0.25038577490E-01  0.24033776330E+02  0.54367094447E+02  0.40000023410E+02 0.  0.
        -12    1    3    3    0    0  0.27895448628E+02 -0.25038577490E-01 -0.24033776330E+02  0.36820905553E+02  0.00000000000E+00 0.  1.
         11    1    4    4    0    0 -0.18130529810E+02  0.17130022639E+01 -0.35146265056E+01  0.18547320230E+02  0.51100000000E-03 0. -1.
        -11    1    4    4    0    0  0.38576628052E+01  0.57680506336E+01  0.11887395100E+02  0.13764524436E+02  0.51100000000E-03 0.  1.
         12    1    4    4    0    0 -0.13622581623E+02 -0.74560143200E+01  0.15661007736E+02  0.22055249781E+02  0.00000000000E+00 0. -1.
</event>
<event>
 8    1  0.1238315E-006  0.9118800E+02  0.7816164E-02  0.1184000E+00
        -11   -1    0    0    0    0  0.00000000000E+00  0.00000000000E+00  0.45593999997E+02  0.45594000000E+02  0.51100000000E-03 0. -1.
         11   -1    0    0    0    0 -0.00000000000E+00 -0.00000000000E+00 -0.45593999997E+02  0.45594000000E+02  0.51100000000E-03 0.  1.
         23    2    1    2    0    0  0.00000000000E+00  0.00000000000E+00  0.17763568394E-14  0.91188000000E+02  0.91188000000E+02 0.  0.
    9900012    2    3    3    0    0 -0.17685043951E+02  0.28714277450E+02  0.14782083172E+02  0.54367075352E+02  0.39999979880E+02 0.  0.
        -12    1    3    3    0    0  0.17685043951E+02 -0.28714277450E+02 -0.14782083172E+02  0.36820924648E+02  0.00000000000E+00 0.  1.
         11    1    4    4    0    0  0.48975880221E+00  0.26059617312E+02  0.14708968283E+02  0.29928201856E+02  0.51100000000E-03 0. -1.
        -11    1    4    4    0    0 -0.20740178598E+01 -0.57389648648E+01  0.13035488236E+01  0.62399124672E+01  0.51100000000E-03 0.  1.
        -12    1    4    4    0    0 -0.16100784894E+02  0.83936250024E+01 -0.12304339340E+01  0.18198961029E+02  0.00000000000E+00 0.  1.
</event>
<event>
 8    1  0.1238315E-006  0.9118800E+02  0.7816164E-02  0.1184000E+00
        -11   -1    0    0    0    0  0.00000000000E+00  0.00000000000E+00  0.45593999997E+02  0.45594000000E+02  0.51100000000E-03 0. -1.
         11   -1    0    0    0    0 -0.00000000000E+00 -0.00000000000E+00 -0.45593999997E+02  0.45594000000E+02  0.51100000000E-03 0.  1.
         23    2    1    2    0    0  0.00000000000E+00 -0.88817841970E-15  0.00000000000E+00  0.91188000000E+02  0.91188000000E+02 0.  0.
    9900012    2    3    3    0    0  0.51755817833E+01  0.39087270396E+01  0.36245196804E+02  0.54367094454E+02  0.40000023428E+02 0.  0.
        -12    1    3    3    0    0 -0.51755817833E+01 -0.39087270396E+01 -0.36245196804E+02  0.36820905546E+02  0.00000000000E+00 0.  1.
         11    1    4    4    0    0  0.37671659042E+01  0.12297185547E+02  0.85044779392E+01  0.15418769621E+02  0.51100000000E-03 0. -1.
        -11    1    4    4    0    0 -0.10416821609E+02 -0.18933712571E+01  0.34024924601E+01  0.11120790546E+02  0.51100000000E-03 0.  1.
         12    1    4    4    0    0  0.11825237488E+02 -0.64950872505E+01  0.24338226404E+02  0.27827534288E+02  0.00000000000E+00 0. -1.
</event>
<event>
 8    1  0.1238315E-006  0.9118800E+02  0.7816164E-02  0.1184000E+00
        -11   -1    0    0    0    0  0.00000000000E+00  0.00000000000E+00  0.45593999997E+02  0.45594000000E+02  0.51100000000E-03 0. -1.
         11   -1    0    0    0    0 -0.00000000000E+00 -0.00000000000E+00 -0.45593999997E+02  0.45594000000E+02  0.51100000000E-03 0.  1.
         23    2    1    2    0    0  0.00000000000E+00  0.00000000000E+00 -0.35527136788E-14  0.91188000000E+02  0.91188000000E+02 0.  0.
    9900012    2    3    3    0    0  0.31825561323E+02  0.59150296125E+01 -0.17547884491E+02  0.54367052444E+02  0.39999927656E+02 0.  0.
         12    1    3    3    0    0 -0.31825561323E+02 -0.59150296125E+01  0.17547884491E+02  0.36820947556E+02  0.00000000000E+00 0. -1.
         11    1    4    4    0    0  0.24633502258E+02  0.15662688955E+02  0.22198062414E+01  0.29275532425E+02  0.51100000000E-03 0. -1.
        -11    1    4    4    0    0 -0.23216838489E+01 -0.99353574935E+00 -0.32045730935E+01  0.40800267343E+01  0.51100000000E-03 0.  1.
         12    1    4    4    0    0  0.95137429136E+01 -0.87541235928E+01 -0.16563117639E+02  0.21011493284E+02  0.00000000000E+00 0. -1.
</event>
<event>
 8    1  0.1238315E-006  0.9118800E+02  0.7816164E-02  0.1184000E+00
        -11   -1    0    0    0    0  0.00000000000E+00  0.00000000000E+00  0.45593999997E+02  0.45594000000E+02  0.51100000000E-03 0. -1.
         11   -1    0    0    0    0 -0.00000000000E+00 -0.00000000000E+00 -0.45593999997E+02  0.45594000000E+02  0.51100000000E-03 0.  1.
         23    2    1    2    0    0  0.00000000000E+00  0.00000000000E+00  0.00000000000E+00  0.91188000000E+02  0.91188000000E+02 0.  0.
    9900012    2    3    3    0    0 -0.17157092364E+02 -0.29928524102E+02  0.12872365080E+02  0.54367079912E+02  0.39999990277E+02 0.  0.
        -12    1    3    3    0    0  0.17157092364E+02  0.29928524102E+02 -0.12872365080E+02  0.36820920088E+02  0.00000000000E+00 0.  1.
         11    1    4    4    0    0 -0.39682410590E+01  0.12760977320E+01 -0.99477021083E+00  0.42854323653E+01  0.51100000000E-03 0. -1.
        -11    1    4    4    0    0 -0.22009175507E+02 -0.15383877694E+02  0.16882709045E+02  0.31718974832E+02  0.51100000000E-03 0.  1.
        -12    1    4    4    0    0  0.88203242023E+01 -0.15820744140E+02 -0.30155737542E+01  0.18362672715E+02  0.00000000000E+00 0.  1.
</event>
<event>
 8    1  0.1238315E-006  0.9118800E+02  0.7816164E-02  0.1184000E+00
        -11   -1    0    0    0    0  0.00000000000E+00  0.00000000000E+00  0.45593999997E+02  0.45594000000E+02  0.51100000000E-03 0.  1.
         11   -1    0    0    0    0 -0.00000000000E+00 -0.00000000000E+00 -0.45593999997E+02  0.45594000000E+02  0.51100000000E-03 0. -1.
         23    2    1    2    0    0  0.00000000000E+00  0.00000000000E+00  0.00000000000E+00  0.91188000000E+02  0.91188000000E+02 0.  0.
    9900012    2    3    3    0    0 -0.23842655955E+02 -0.25089956390E+02  0.12561955149E+02  0.54367070194E+02  0.39999968120E+02 0.  0.
         12    1    3    3    0    0  0.23842655955E+02  0.25089956390E+02 -0.12561955149E+02  0.36820929806E+02  0.00000000000E+00 0. -1.
         11    1    4    4    0    0  0.46385220797E+00 -0.87391849149E+01 -0.84967371752E+00  0.87926365520E+01  0.51100000000E-03 0. -1.
        -11    1    4    4    0    0 -0.81146903567E+01 -0.17037879813E+02 -0.64467567018E+01  0.19942372485E+02  0.51100000000E-03 0.  1.
        -12    1    4    4    0    0 -0.16191817807E+02  0.68710833822E+00  0.19858385568E+02  0.25632061156E+02  0.00000000000E+00 0.  1.
</event>
<event>
 8    1  0.1238315E-006  0.9118800E+02  0.7816164E-02  0.1184000E+00
        -11   -1    0    0    0    0  0.00000000000E+00  0.00000000000E+00  0.45593999997E+02  0.45594000000E+02  0.51100000000E-03 0.  1.
         11   -1    0    0    0    0 -0.00000000000E+00 -0.00000000000E+00 -0.45593999997E+02  0.45594000000E+02  0.51100000000E-03 0. -1.
         23    2    1    2    0    0  0.00000000000E+00  0.00000000000E+00  0.00000000000E+00  0.91188000000E+02  0.91188000000E+02 0.  0.
    9900012    2    3    3    0    0  0.65547950477E+01  0.17302573136E+02 -0.31834518144E+02  0.54367069529E+02  0.39999966606E+02 0.  0.
        -12    1    3    3    0    0 -0.65547950477E+01 -0.17302573136E+02  0.31834518144E+02  0.36820930471E+02  0.00000000000E+00 0.  1.
         11    1    4    4    0    0  0.53501580823E+01  0.10189560812E+02 -0.56325332631E+01  0.12813148413E+02  0.51100000000E-03 0.  1.
        -11    1    4    4    0    0 -0.10623398069E+02 -0.27889144959E+01 -0.23436270220E+02  0.25882298829E+02  0.51100000000E-03 0. -1.
         12    1    4    4    0    0  0.11828035034E+02  0.99019268200E+01 -0.27657146613E+01  0.15671622287E+02  0.00000000000E+00 0. -1.
</event>
<event>
 8    1  0.1238315E-006  0.9118800E+02  0.7816164E-02  0.1184000E+00
        -11   -1    0    0    0    0  0.00000000000E+00  0.00000000000E+00  0.45593999997E+02  0.45594000000E+02  0.51100000000E-03 0.  1.
         11   -1    0    0    0    0 -0.00000000000E+00 -0.00000000000E+00 -0.45593999997E+02  0.45594000000E+02  0.51100000000E-03 0. -1.
         23    2    1    2    0    0  0.00000000000E+00 -0.17763568394E-14  0.00000000000E+00  0.91188000000E+02  0.91188000000E+02 0.  0.
    9900012    2    3    3    0    0 -0.34439735268E+02  0.10419976055E+02 -0.78171784287E+01  0.54367088212E+02  0.40000009196E+02 0.  0.
         12    1    3    3    0    0  0.34439735268E+02 -0.10419976055E+02  0.78171784287E+01  0.36820911788E+02  0.00000000000E+00 0. -1.
         11    1    4    4    0    0 -0.24408284542E+02  0.20704716758E+01 -0.10949179607E+02  0.26831618318E+02  0.51100000000E-03 0. -1.
        -11    1    4    4    0    0 -0.81259228808E+01  0.37490290842E+01 -0.10042516170E+02  0.13451318635E+02  0.51100000000E-03 0.  1.
        -12    1    4    4    0    0 -0.19055278457E+01  0.46004752947E+01  0.13174517348E+02  0.14084151258E+02  0.00000000000E+00 0.  1.
</event>
<event>
 8    1  0.1238315E-006  0.9118800E+02  0.7816164E-02  0.1184000E+00
        -11   -1    0    0    0    0  0.00000000000E+00  0.00000000000E+00  0.45593999997E+02  0.45594000000E+02  0.51100000000E-03 0.  1.
         11   -1    0    0    0    0 -0.00000000000E+00 -0.00000000000E+00 -0.45593999997E+02  0.45594000000E+02  0.51100000000E-03 0. -1.
         23    2    1    2    0    0  0.00000000000E+00  0.00000000000E+00  0.00000000000E+00  0.91188000000E+02  0.91188000000E+02 0.  0.
    9900012    2    3    3    0    0 -0.11917196934E+02  0.34830960141E+02  0.75130909713E+00  0.54367084307E+02  0.40000000294E+02 0.  0.
        -12    1    3    3    0    0  0.11917196934E+02 -0.34830960141E+02 -0.75130909713E+00  0.36820915693E+02  0.00000000000E+00 0.  1.
         11    1    4    4    0    0 -0.68187126511E+01  0.94362145053E+01 -0.34646542315E+01  0.12146638037E+02  0.51100000000E-03 0. -1.
        -11    1    4    4    0    0 -0.76155136612E+01 -0.51763125489E+01  0.67859042190E+01  0.11438477008E+02  0.51100000000E-03 0.  1.
         12    1    4    4    0    0  0.25170293785E+01  0.30571058185E+02 -0.25699408904E+01  0.30781969261E+02  0.00000000000E+00 0. -1.
</event>
<event>
 8    1  0.1238315E-006  0.9118800E+02  0.7816164E-02  0.1184000E+00
        -11   -1    0    0    0    0  0.00000000000E+00  0.00000000000E+00  0.45593999997E+02  0.45594000000E+02  0.51100000000E-03 0.  1.
         11   -1    0    0    0    0 -0.00000000000E+00 -0.00000000000E+00 -0.45593999997E+02  0.45594000000E+02  0.51100000000E-03 0. -1.
         23    2    1    2    0    0  0.00000000000E+00  0.00000000000E+00  0.22204460493E-14  0.91188000000E+02  0.91188000000E+02 0.  0.
    9900012    2    3    3    0    0  0.34894614991E+02 -0.11218795742E+02  0.35049911134E+01  0.54367075297E+02  0.39999979754E+02 0.  0.
         12    1    3    3    0    0 -0.34894614991E+02  0.11218795742E+02 -0.35049911134E+01  0.36820924703E+02  0.00000000000E+00 0. -1.
         11    1    4    4    0    0  0.55075388640E+01  0.76175044392E+00  0.87948937752E+01  0.10404970200E+02  0.51100000000E-03 0. -1.
        -11    1    4    4    0    0  0.30588139507E+02 -0.16568448764E+02 -0.11050800038E+02  0.36500245953E+02  0.51100000000E-03 0.  1.
        -12    1    4    4    0    0 -0.12010633794E+01  0.45879025781E+01  0.57608973760E+01  0.74618591439E+01  0.00000000000E+00 0.  1.
</event>
<event>
 8    1  0.1238315E-006  0.9118800E+02  0.7816164E-02  0.1184000E+00
        -11   -1    0    0    0    0  0.00000000000E+00  0.00000000000E+00  0.45593999997E+02  0.45594000000E+02  0.51100000000E-03 0. -1.
         11   -1    0    0    0    0 -0.00000000000E+00 -0.00000000000E+00 -0.45593999997E+02  0.45594000000E+02  0.51100000000E-03 0.  1.
         23    2    1    2    0    0  0.00000000000E+00 -0.17763568394E-14  0.71054273576E-14  0.91188000000E+02  0.91188000000E+02 0.  0.
    9900012    2    3    3    0    0  0.44696710194E+01  0.84942075382E+01 -0.35547862309E+02  0.54367081550E+02  0.39999994010E+02 0.  0.
         12    1    3    3    0    0 -0.44696710194E+01 -0.84942075382E+01  0.35547862309E+02  0.36820918450E+02  0.00000000000E+00 0. -1.
         11    1    4    4    0    0 -0.44002712305E+00 -0.10929231995E+02 -0.20200852469E+02  0.22972073842E+02  0.51100000000E-03 0. -1.
        -11    1    4    4    0    0  0.21732461007E+01  0.22360433897E+02 -0.15634330518E+02  0.27370500428E+02  0.51100000000E-03 0.  1.
        -12    1    4    4    0    0  0.27364520418E+01 -0.29369943643E+01  0.28732067734E+00  0.40245072797E+01  0.00000000000E+00 0.  1.
</event>
<event>
 8    1  0.1238315E-006  0.9118800E+02  0.7816164E-02  0.1184000E+00
        -11   -1    0    0    0    0  0.00000000000E+00  0.00000000000E+00  0.45593999997E+02  0.45594000000E+02  0.51100000000E-03 0.  1.
         11   -1    0    0    0    0 -0.00000000000E+00 -0.00000000000E+00 -0.45593999997E+02  0.45594000000E+02  0.51100000000E-03 0. -1.
         23    2    1    2    0    0  0.00000000000E+00  0.17763568394E-14  0.00000000000E+00  0.91188000000E+02  0.91188000000E+02 0.  0.
    9900012    2    3    3    0    0 -0.20382590362E+02  0.11731383816E+02  0.28332043943E+02  0.54367081080E+02  0.39999992939E+02 0.  0.
         12    1    3    3    0    0  0.20382590362E+02 -0.11731383816E+02 -0.28332043943E+02  0.36820918920E+02  0.00000000000E+00 0. -1.
         11    1    4    4    0    0  0.49167149588E+01  0.95328717731E+01  0.50618868166E+01  0.11860540824E+02  0.51100000000E-03 0. -1.
        -11    1    4    4    0    0  0.13496244286E+01  0.65297230672E+01  0.10971426880E+02  0.12838651700E+02  0.51100000000E-03 0.  1.
         12    1    4    4    0    0 -0.26648929749E+02 -0.43312110243E+01  0.12298730247E+02  0.29667888556E+02  0.00000000000E+00 0. -1.
</event>
<event>
 8    1  0.1238315E-006  0.9118800E+02  0.7816164E-02  0.1184000E+00
        -11   -1    0    0    0    0  0.00000000000E+00  0.00000000000E+00  0.45593999997E+02  0.45594000000E+02  0.51100000000E-03 0.  1.
         11   -1    0    0    0    0 -0.00000000000E+00 -0.00000000000E+00 -0.45593999997E+02  0.45594000000E+02  0.51100000000E-03 0. -1.
         23    2    1    2    0    0 -0.17763568394E-14  0.88817841970E-15 -0.71054273576E-14  0.91188000000E+02  0.91188000000E+02 0.  0.
    9900012    2    3    3    0    0  0.93914814806E+01 -0.67846856944E+01  0.34950594239E+02  0.54367137408E+02  0.40000121348E+02 0.  0.
         12    1    3    3    0    0 -0.93914814806E+01  0.67846856944E+01 -0.34950594239E+02  0.36820862592E+02  0.00000000000E+00 0. -1.
         11    1    4    4    0    0  0.13840554707E+02 -0.13695342769E+02  0.96456137035E+01  0.21729271320E+02  0.51100000000E-03 0. -1.
        -11    1    4    4    0    0 -0.15280745935E+01  0.34787655281E+01  0.27404137596E+02  0.27666289581E+02  0.51100000000E-03 0.  1.
         12    1    4    4    0    0 -0.29209986325E+01  0.34318915460E+01 -0.20991570602E+01  0.49715765063E+01  0.00000000000E+00 0. -1.
</event>
<event>
 8    1  0.1238315E-006  0.9118800E+02  0.7816164E-02  0.1184000E+00
        -11   -1    0    0    0    0  0.00000000000E+00  0.00000000000E+00  0.45593999997E+02  0.45594000000E+02  0.51100000000E-03 0. -1.
         11   -1    0    0    0    0 -0.00000000000E+00 -0.00000000000E+00 -0.45593999997E+02  0.45594000000E+02  0.51100000000E-03 0.  1.
         23    2    1    2    0    0  0.17763568394E-14  0.00000000000E+00 -0.71054273576E-14  0.91188000000E+02  0.91188000000E+02 0.  0.
    9900012    2    3    3    0    0 -0.95150318768E+01  0.19979495997E+02 -0.29428982970E+02  0.54367066680E+02  0.39999960110E+02 0.  0.
         12    1    3    3    0    0  0.95150318768E+01 -0.19979495997E+02  0.29428982970E+02  0.36820933320E+02  0.00000000000E+00 0. -1.
         11    1    4    4    0    0 -0.17555754045E+02 -0.70578524570E+00 -0.71972512371E+00  0.17584670524E+02  0.51100000000E-03 0. -1.
        -11    1    4    4    0    0  0.61248142342E+01  0.15822431438E+02 -0.25565299934E+02  0.30683012352E+02  0.51100000000E-03 0.  1.
         12    1    4    4    0    0  0.19159079342E+01  0.48628498044E+01 -0.31439579128E+01  0.60993838041E+01  0.00000000000E+00 0. -1.
</event>
<event>
 8    1  0.1238315E-006  0.9118800E+02  0.7816164E-02  0.1184000E+00
        -11   -1    0    0    0    0  0.00000000000E+00  0.00000000000E+00  0.45593999997E+02  0.45594000000E+02  0.51100000000E-03 0.  1.
         11   -1    0    0    0    0 -0.00000000000E+00 -0.00000000000E+00 -0.45593999997E+02  0.45594000000E+02  0.51100000000E-03 0. -1.
         23    2    1    2    0    0  0.00000000000E+00  0.17763568394E-14  0.00000000000E+00  0.91188000000E+02  0.91188000000E+02 0.  0.
    9900012    2    3    3    0    0 -0.12697486056E+02  0.11448189850E+02  0.32611222699E+02  0.54367094947E+02  0.40000024551E+02 0.  0.
         12    1    3    3    0    0  0.12697486056E+02 -0.11448189850E+02 -0.32611222699E+02  0.36820905053E+02  0.00000000000E+00 0. -1.
         11    1    4    4    0    0  0.10326293570E+02  0.29312112406E+01  0.10456395503E+02  0.14985344354E+02  0.51100000000E-03 0.  1.
        -11    1    4    4    0    0 -0.42448398644E+00 -0.53057274393E+01  0.72218577254E+01  0.89714078930E+01  0.51100000000E-03 0. -1.
         12    1    4    4    0    0 -0.22599295640E+02  0.13822706049E+02  0.14932969471E+02  0.30410342700E+02  0.00000000000E+00 0. -1.
</event>
<event>
 8    1  0.1238315E-006  0.9118800E+02  0.7816164E-02  0.1184000E+00
        -11   -1    0    0    0    0  0.00000000000E+00  0.00000000000E+00  0.45593999997E+02  0.45594000000E+02  0.51100000000E-03 0.  1.
         11   -1    0    0    0    0 -0.00000000000E+00 -0.00000000000E+00 -0.45593999997E+02  0.45594000000E+02  0.51100000000E-03 0. -1.
         23    2    1    2    0    0 -0.17763568394E-14 -0.55511151231E-15  0.00000000000E+00  0.91188000000E+02  0.91188000000E+02 0.  0.
    9900012    2    3    3    0    0  0.55849555653E+01 -0.25689328145E+00  0.36393973035E+02  0.54367095664E+02  0.40000026186E+02 0.  0.
         12    1    3    3    0    0 -0.55849555653E+01  0.25689328145E+00 -0.36393973035E+02  0.36820904336E+02  0.00000000000E+00 0. -1.
         11    1    4    4    0    0  0.18290258377E+02  0.40539317178E+01  0.56733690556E+01  0.19574346236E+02  0.51100000000E-03 0. -1.
        -11    1    4    4    0    0 -0.13749918928E+01 -0.47056085470E+01  0.76322159095E+01  0.90710569645E+01  0.51100000000E-03 0.  1.
         12    1    4    4    0    0 -0.11330310918E+02  0.39478354780E+00  0.23088388070E+02  0.25721692464E+02  0.00000000000E+00 0. -1.
</event>
<event>
 8    1  0.1238315E-006  0.9118800E+02  0.7816164E-02  0.1184000E+00
        -11   -1    0    0    0    0  0.00000000000E+00  0.00000000000E+00  0.45593999997E+02  0.45594000000E+02  0.51100000000E-03 0.  1.
         11   -1    0    0    0    0 -0.00000000000E+00 -0.00000000000E+00 -0.45593999997E+02  0.45594000000E+02  0.51100000000E-03 0. -1.
         23    2    1    2    0    0  0.00000000000E+00 -0.88817841970E-15 -0.71054273576E-14  0.91188000000E+02  0.91188000000E+02 0.  0.
    9900012    2    3    3    0    0  0.17026130014E+02  0.42836769637E+01  0.32365905191E+02  0.54366935236E+02  0.39999660455E+02 0.  0.
         12    1    3    3    0    0 -0.17026130014E+02 -0.42836769637E+01 -0.32365905191E+02  0.36821064764E+02  0.00000000000E+00 0. -1.
         11    1    4    4    0    0  0.68478211720E+01  0.87838890138E+01 -0.43770781785E+01  0.11966961797E+02  0.51100000000E-03 0. -1.
        -11    1    4    4    0    0  0.98627176410E+01 -0.38848206994E+01  0.38804109576E+02  0.40225911443E+02  0.51100000000E-03 0.  1.
        -12    1    4    4    0    0  0.31559120069E+00 -0.61539135070E+00 -0.20611262071E+01  0.21740619959E+01  0.00000000000E+00 0.  1.
</event>
<event>
 8    1  0.1238315E-006  0.9118800E+02  0.7816164E-02  0.1184000E+00
        -11   -1    0    0    0    0  0.00000000000E+00  0.00000000000E+00  0.45593999997E+02  0.45594000000E+02  0.51100000000E-03 0.  1.
         11   -1    0    0    0    0 -0.00000000000E+00 -0.00000000000E+00 -0.45593999997E+02  0.45594000000E+02  0.51100000000E-03 0. -1.
         23    2    1    2    0    0 -0.35527136788E-14  0.00000000000E+00 -0.88817841970E-15  0.91188000000E+02  0.91188000000E+02 0.  0.
    9900012    2    3    3    0    0  0.24158947225E+02 -0.27570441757E+02  0.34627903047E+01  0.54367151200E+02  0.40000152790E+02 0.  0.
         12    1    3    3    0    0 -0.24158947225E+02  0.27570441757E+02 -0.34627903047E+01  0.36820848800E+02  0.00000000000E+00 0. -1.
         11    1    4    4    0    0  0.64593332131E+01 -0.21133854580E+02 -0.87369985041E+01  0.23763373878E+02  0.51100000000E-03 0. -1.
        -11    1    4    4    0    0  0.64333172874E+00 -0.56937631385E+01 -0.40637511188E+01  0.70247340026E+01  0.51100000000E-03 0.  1.
        -12    1    4    4    0    0  0.17056282283E+02 -0.74282403852E+00  0.16263539928E+02  0.23579043319E+02  0.00000000000E+00 0.  1.
</event>
<event>
 8    1  0.1238315E-006  0.9118800E+02  0.7816164E-02  0.1184000E+00
        -11   -1    0    0    0    0  0.00000000000E+00  0.00000000000E+00  0.45593999997E+02  0.45594000000E+02  0.51100000000E-03 0. -1.
         11   -1    0    0    0    0 -0.00000000000E+00 -0.00000000000E+00 -0.45593999997E+02  0.45594000000E+02  0.51100000000E-03 0.  1.
         23    2    1    2    0    0  0.00000000000E+00  0.00000000000E+00  0.33306690739E-15  0.91188000000E+02  0.91188000000E+02 0.  0.
    9900012    2    3    3    0    0  0.36122168651E+02  0.70706149177E+01 -0.98695499987E+00  0.54367099094E+02  0.40000034004E+02 0.  0.
         12    1    3    3    0    0 -0.36122168651E+02 -0.70706149177E+01  0.98695499987E+00  0.36820900906E+02  0.00000000000E+00 0. -1.
         11    1    4    4    0    0 -0.17141840778E+01  0.41855408625E+01  0.79066207171E+01  0.91088874617E+01  0.51100000000E-03 0. -1.
        -11    1    4    4    0    0  0.31496454459E+02 -0.69672277509E+01 -0.37926463903E+01  0.32480041147E+02  0.51100000000E-03 0.  1.
         12    1    4    4    0    0  0.63398982700E+01  0.98523018060E+01 -0.51009293267E+01  0.12778170485E+02  0.00000000000E+00 0. -1.
</event>
<event>
 8    1  0.1238315E-006  0.9118800E+02  0.7816164E-02  0.1184000E+00
        -11   -1    0    0    0    0  0.00000000000E+00  0.00000000000E+00  0.45593999997E+02  0.45594000000E+02  0.51100000000E-03 0. -1.
         11   -1    0    0    0    0 -0.00000000000E+00 -0.00000000000E+00 -0.45593999997E+02  0.45594000000E+02  0.51100000000E-03 0.  1.
         23    2    1    2    0    0  0.17763568394E-14  0.35527136788E-14 -0.35527136788E-14  0.91188000000E+02  0.91188000000E+02 0.  0.
    9900012    2    3    3    0    0 -0.15549396079E+02 -0.29728121926E+02  0.15173663423E+02  0.54367013955E+02  0.39999839913E+02 0.  0.
        -12    1    3    3    0    0  0.15549396079E+02  0.29728121926E+02 -0.15173663423E+02  0.36820986045E+02  0.00000000000E+00 0.  1.
         11    1    4    4    0    0 -0.75054473512E+01  0.68832851179E+01  0.57954565406E+01  0.11717451546E+02  0.51100000000E-03 0. -1.
        -11    1    4    4    0    0 -0.47685824082E+00 -0.13181833809E+02 -0.50362289478E+01  0.14119197520E+02  0.51100000000E-03 0.  1.
        -12    1    4    4    0    0 -0.75670904868E+01 -0.23429573235E+02  0.14414435830E+02  0.28530364889E+02  0.00000000000E+00 0.  1.
</event>
<event>
 8    1  0.1238315E-006  0.9118800E+02  0.7816164E-02  0.1184000E+00
        -11   -1    0    0    0    0  0.00000000000E+00  0.00000000000E+00  0.45593999997E+02  0.45594000000E+02  0.51100000000E-03 0. -1.
         11   -1    0    0    0    0 -0.00000000000E+00 -0.00000000000E+00 -0.45593999997E+02  0.45594000000E+02  0.51100000000E-03 0.  1.
         23    2    1    2    0    0  0.00000000000E+00  0.00000000000E+00  0.00000000000E+00  0.91188000000E+02  0.91188000000E+02 0.  0.
    9900012    2    3    3    0    0 -0.28739084197E+02  0.20805369272E+02  0.98479222995E+01  0.54367083055E+02  0.39999997441E+02 0.  0.
         12    1    3    3    0    0  0.28739084197E+02 -0.20805369272E+02 -0.98479222995E+01  0.36820916945E+02  0.00000000000E+00 0. -1.
         11    1    4    4    0    0 -0.56192211326E+01 -0.60119358639E+01  0.12074364877E+02  0.14611957652E+02  0.51100000000E-03 0. -1.
        -11    1    4    4    0    0 -0.16116031882E+02  0.21781596587E+02  0.60915365430E+01  0.27771770761E+02  0.51100000000E-03 0.  1.
         12    1    4    4    0    0 -0.70038311831E+01  0.50357085482E+01 -0.83179791208E+01  0.11983354642E+02  0.00000000000E+00 0. -1.
</event>
<event>
 8    1  0.1238315E-006  0.9118800E+02  0.7816164E-02  0.1184000E+00
        -11   -1    0    0    0    0  0.00000000000E+00  0.00000000000E+00  0.45593999997E+02  0.45594000000E+02  0.51100000000E-03 0. -1.
         11   -1    0    0    0    0 -0.00000000000E+00 -0.00000000000E+00 -0.45593999997E+02  0.45594000000E+02  0.51100000000E-03 0.  1.
         23    2    1    2    0    0  0.44408920985E-15  0.00000000000E+00 -0.88817841970E-15  0.91188000000E+02  0.91188000000E+02 0.  0.
    9900012    2    3    3    0    0 -0.37552710621E+01  0.36168395233E+02 -0.57900729043E+01  0.54367084494E+02  0.40000000720E+02 0.  0.
        -12    1    3    3    0    0  0.37552710621E+01 -0.36168395233E+02  0.57900729043E+01  0.36820915506E+02  0.00000000000E+00 0.  1.
         11    1    4    4    0    0  0.10959673333E+02  0.20657732194E+02  0.15358966764E+01  0.23435343348E+02  0.51100000000E-03 0.  1.
        -11    1    4    4    0    0 -0.94807186368E+01  0.87676739977E+01 -0.14760514415E+02  0.19611958577E+02  0.51100000000E-03 0. -1.
         12    1    4    4    0    0 -0.52342257588E+01  0.67429890418E+01  0.74345448339E+01  0.11319782569E+02  0.00000000000E+00 0. -1.
</event>
<event>
 8    1  0.1238315E-006  0.9118800E+02  0.7816164E-02  0.1184000E+00
        -11   -1    0    0    0    0  0.00000000000E+00  0.00000000000E+00  0.45593999997E+02  0.45594000000E+02  0.51100000000E-03 0. -1.
         11   -1    0    0    0    0 -0.00000000000E+00 -0.00000000000E+00 -0.45593999997E+02  0.45594000000E+02  0.51100000000E-03 0.  1.
         23    2    1    2    0    0  0.35527136788E-14 -0.35527136788E-14  0.71054273576E-14  0.91188000000E+02  0.91188000000E+02 0.  0.
    9900012    2    3    3    0    0  0.23608862434E+02 -0.74405697204E+01  0.27258745751E+02  0.54367086335E+02  0.40000004918E+02 0.  0.
        -12    1    3    3    0    0 -0.23608862434E+02  0.74405697204E+01 -0.27258745751E+02  0.36820913665E+02  0.00000000000E+00 0.  1.
         11    1    4    4    0    0  0.62127246886E+00  0.31652825607E+01  0.17617438396E+01  0.36754230759E+01  0.51100000000E-03 0. -1.
        -11    1    4    4    0    0  0.20280332800E+02  0.71757226869E+01  0.27420128276E+01  0.21686436525E+02  0.51100000000E-03 0.  1.
        -12    1    4    4    0    0  0.27072571656E+01 -0.17781574968E+02  0.22754989084E+02  0.29005226734E+02  0.00000000000E+00 0.  1.
</event>
<event>
 8    1  0.1238315E-006  0.9118800E+02  0.7816164E-02  0.1184000E+00
        -11   -1    0    0    0    0  0.00000000000E+00  0.00000000000E+00  0.45593999997E+02  0.45594000000E+02  0.51100000000E-03 0. -1.
         11   -1    0    0    0    0 -0.00000000000E+00 -0.00000000000E+00 -0.45593999997E+02  0.45594000000E+02  0.51100000000E-03 0.  1.
         23    2    1    2    0    0  0.17763568394E-14  0.00000000000E+00 -0.35527136788E-14  0.91188000000E+02  0.91188000000E+02 0.  0.
    9900012    2    3    3    0    0  0.10787299956E+02 -0.23481378049E+02 -0.26230476813E+02  0.54367097386E+02  0.40000030112E+02 0.  0.
         12    1    3    3    0    0 -0.10787299956E+02  0.23481378049E+02  0.26230476813E+02  0.36820902614E+02  0.00000000000E+00 0. -1.
         11    1    4    4    0    0 -0.37560007312E+01 -0.32805850207E+01 -0.28343442794E+02  0.28778820846E+02  0.51100000000E-03 0. -1.
        -11    1    4    4    0    0  0.76393471448E+01 -0.74640607110E+01  0.29382822452E+01  0.11077243787E+02  0.51100000000E-03 0.  1.
         12    1    4    4    0    0  0.69039535426E+01 -0.12736732318E+02 -0.82531626375E+00  0.14511032754E+02  0.00000000000E+00 0. -1.
</event>
<event>
 8    1  0.1238315E-006  0.9118800E+02  0.7816164E-02  0.1184000E+00
        -11   -1    0    0    0    0  0.00000000000E+00  0.00000000000E+00  0.45593999997E+02  0.45594000000E+02  0.51100000000E-03 0.  1.
         11   -1    0    0    0    0 -0.00000000000E+00 -0.00000000000E+00 -0.45593999997E+02  0.45594000000E+02  0.51100000000E-03 0. -1.
         23    2    1    2    0    0  0.35527136788E-14 -0.17763568394E-14  0.00000000000E+00  0.91188000000E+02  0.91188000000E+02 0.  0.
    9900012    2    3    3    0    0  0.21663287269E+02 -0.13208019055E+02 -0.26683876494E+02  0.54367094968E+02  0.40000024598E+02 0.  0.
        -12    1    3    3    0    0 -0.21663287269E+02  0.13208019055E+02  0.26683876494E+02  0.36820905032E+02  0.00000000000E+00 0.  1.
         11    1    4    4    0    0  0.87477639367E+01 -0.14760762546E+02 -0.84478916528E+01  0.19125123751E+02  0.51100000000E-03 0. -1.
        -11    1    4    4    0    0  0.92798863375E+01 -0.12536233915E+02 -0.98713009819E+01  0.18458494915E+02  0.51100000000E-03 0.  1.
         12    1    4    4    0    0  0.36356369952E+01  0.14088977406E+02 -0.83646838589E+01  0.16783476302E+02  0.00000000000E+00 0. -1.
</event>
<event>
 8    1  0.1238315E-006  0.9118800E+02  0.7816164E-02  0.1184000E+00
        -11   -1    0    0    0    0  0.00000000000E+00  0.00000000000E+00  0.45593999997E+02  0.45594000000E+02  0.51100000000E-03 0. -1.
         11   -1    0    0    0    0 -0.00000000000E+00 -0.00000000000E+00 -0.45593999997E+02  0.45594000000E+02  0.51100000000E-03 0.  1.
         23    2    1    2    0    0 -0.71054273576E-14 -0.17763568394E-14  0.00000000000E+00  0.91188000000E+02  0.91188000000E+02 0.  0.
    9900012    2    3    3    0    0  0.32911944339E+02 -0.11477247920E+02 -0.11868227012E+02  0.54367107665E+02  0.40000053543E+02 0.  0.
         12    1    3    3    0    0 -0.32911944339E+02  0.11477247920E+02  0.11868227012E+02  0.36820892335E+02  0.00000000000E+00 0. -1.
         11    1    4    4    0    0 -0.78501628250E+01  0.12053420703E+00 -0.57868260599E+01  0.97533041059E+01  0.51100000000E-03 0. -1.
        -11    1    4    4    0    0  0.20128415242E+00 -0.18482713581E+01 -0.19489505864E+01  0.26935164697E+01  0.51100000000E-03 0.  1.
         12    1    4    4    0    0  0.40560823011E+02 -0.97495107686E+01 -0.41324503653E+01  0.41920287089E+02  0.00000000000E+00 0. -1.
</event>
<event>
 8    1  0.1238315E-006  0.9118800E+02  0.7816164E-02  0.1184000E+00
        -11   -1    0    0    0    0  0.00000000000E+00  0.00000000000E+00  0.45593999997E+02  0.45594000000E+02  0.51100000000E-03 0.  1.
         11   -1    0    0    0    0 -0.00000000000E+00 -0.00000000000E+00 -0.45593999997E+02  0.45594000000E+02  0.51100000000E-03 0. -1.
         23    2    1    2    0    0 -0.88817841970E-15  0.00000000000E+00  0.00000000000E+00  0.91188000000E+02  0.91188000000E+02 0.  0.
    9900012    2    3    3    0    0 -0.47308545831E+01  0.33505379838E+02  0.14518529302E+02  0.54367093490E+02  0.40000021229E+02 0.  0.
         12    1    3    3    0    0  0.47308545831E+01 -0.33505379838E+02 -0.14518529302E+02  0.36820906510E+02  0.00000000000E+00 0. -1.
         11    1    4    4    0    0 -0.12743555350E+02  0.21483282421E+02  0.18736727603E+01  0.25048757982E+02  0.51100000000E-03 0. -1.
        -11    1    4    4    0    0  0.12631763763E+02  0.15959932117E+02  0.91691244025E+01  0.22323837742E+02  0.51100000000E-03 0.  1.
        -12    1    4    4    0    0 -0.46190629965E+01 -0.39378347010E+01  0.34757321389E+01  0.69944977660E+01  0.00000000000E+00 0.  1.
</event>
<event>
 8    1  0.1238315E-006  0.9118800E+02  0.7816164E-02  0.1184000E+00
        -11   -1    0    0    0    0  0.00000000000E+00  0.00000000000E+00  0.45593999997E+02  0.45594000000E+02  0.51100000000E-03 0.  1.
         11   -1    0    0    0    0 -0.00000000000E+00 -0.00000000000E+00 -0.45593999997E+02  0.45594000000E+02  0.51100000000E-03 0. -1.
         23    2    1    2    0    0  0.00000000000E+00  0.00000000000E+00  0.17763568394E-14  0.91188000000E+02  0.91188000000E+02 0.  0.
    9900012    2    3    3    0    0 -0.89178603338E+01 -0.32773190730E+02  0.14218633567E+02  0.54367084692E+02  0.40000001173E+02 0.  0.
         12    1    3    3    0    0  0.89178603338E+01  0.32773190730E+02 -0.14218633567E+02  0.36820915308E+02  0.00000000000E+00 0. -1.
         11    1    4    4    0    0 -0.14831519205E+02 -0.31638578483E+02 -0.25894517056E+01  0.35038248683E+02  0.51100000000E-03 0. -1.
        -11    1    4    4    0    0  0.27606230060E+01 -0.19180849191E+01  0.15443265482E+02  0.15804889691E+02  0.51100000000E-03 0.  1.
         12    1    4    4    0    0  0.31530358655E+01  0.78347267174E+00  0.13648197907E+01  0.35239463188E+01  0.00000000000E+00 0. -1.
</event>
<event>
 8    1  0.1238315E-006  0.9118800E+02  0.7816164E-02  0.1184000E+00
        -11   -1    0    0    0    0  0.00000000000E+00  0.00000000000E+00  0.45593999997E+02  0.45594000000E+02  0.51100000000E-03 0.  1.
         11   -1    0    0    0    0 -0.00000000000E+00 -0.00000000000E+00 -0.45593999997E+02  0.45594000000E+02  0.51100000000E-03 0. -1.
         23    2    1    2    0    0  0.00000000000E+00  0.00000000000E+00  0.00000000000E+00  0.91188000000E+02  0.91188000000E+02 0.  0.
    9900012    2    3    3    0    0  0.88495659797E+01  0.24065446297E+02 -0.26425746548E+02  0.54367073828E+02  0.39999976406E+02 0.  0.
        -12    1    3    3    0    0 -0.88495659797E+01 -0.24065446297E+02  0.26425746548E+02  0.36820926172E+02  0.00000000000E+00 0.  1.
         11    1    4    4    0    0 -0.60941158895E+01  0.10422410371E+02 -0.31729074182E+00  0.12077481529E+02  0.51100000000E-03 0. -1.
        -11    1    4    4    0    0 -0.71457119302E+01  0.15787942604E-01 -0.74593900507E+01  0.10329760328E+02  0.51100000000E-03 0.  1.
         12    1    4    4    0    0  0.22089393799E+02  0.13627247984E+02 -0.18649065756E+02  0.31959831971E+02  0.00000000000E+00 0. -1.
</event>
<event>
 8    1  0.1238315E-006  0.9118800E+02  0.7816164E-02  0.1184000E+00
        -11   -1    0    0    0    0  0.00000000000E+00  0.00000000000E+00  0.45593999997E+02  0.45594000000E+02  0.51100000000E-03 0.  1.
         11   -1    0    0    0    0 -0.00000000000E+00 -0.00000000000E+00 -0.45593999997E+02  0.45594000000E+02  0.51100000000E-03 0. -1.
         23    2    1    2    0    0  0.00000000000E+00  0.17763568394E-14  0.00000000000E+00  0.91188000000E+02  0.91188000000E+02 0.  0.
    9900012    2    3    3    0    0  0.24999815727E+02  0.15319176702E+02  0.22273584798E+02  0.54367074686E+02  0.39999978362E+02 0.  0.
         12    1    3    3    0    0 -0.24999815727E+02 -0.15319176702E+02 -0.22273584798E+02  0.36820925314E+02  0.00000000000E+00 0. -1.
         11    1    4    4    0    0  0.28130573613E+00  0.31221889102E+01  0.84849362332E+01  0.90455148914E+01  0.51100000000E-03 0. -1.
        -11    1    4    4    0    0 -0.16955815244E+01  0.10946312362E+02  0.15237504900E+02  0.18838214004E+02  0.51100000000E-03 0.  1.
        -12    1    4    4    0    0  0.26414091515E+02  0.12506754300E+01 -0.14488563352E+01  0.26483345791E+02  0.00000000000E+00 0.  1.
</event>
<event>
 8    1  0.1238315E-006  0.9118800E+02  0.7816164E-02  0.1184000E+00
        -11   -1    0    0    0    0  0.00000000000E+00  0.00000000000E+00  0.45593999997E+02  0.45594000000E+02  0.51100000000E-03 0.  1.
         11   -1    0    0    0    0 -0.00000000000E+00 -0.00000000000E+00 -0.45593999997E+02  0.45594000000E+02  0.51100000000E-03 0. -1.
         23    2    1    2    0    0  0.44408920985E-15 -0.88817841970E-15 -0.71054273576E-14  0.91188000000E+02  0.91188000000E+02 0.  0.
    9900012    2    3    3    0    0 -0.12435193680E+01 -0.70042266021E+01  0.36127207507E+02  0.54367073165E+02  0.39999974894E+02 0.  0.
         12    1    3    3    0    0  0.12435193680E+01  0.70042266021E+01 -0.36127207507E+02  0.36820926835E+02  0.00000000000E+00 0. -1.
         11    1    4    4    0    0 -0.49446487366E+01  0.53256149081E+01  0.88768892813E+01  0.11472178906E+02  0.51100000000E-03 0. -1.
        -11    1    4    4    0    0 -0.10855441293E+02 -0.14876576550E+01  0.10299952615E+01  0.11005208833E+02  0.51100000000E-03 0.  1.
         12    1    4    4    0    0  0.14556570662E+02 -0.10842183855E+02  0.26220322965E+02  0.31889685426E+02  0.00000000000E+00 0. -1.
</event>
<event>
 8    1  0.1238315E-006  0.9118800E+02  0.7816164E-02  0.1184000E+00
        -11   -1    0    0    0    0  0.00000000000E+00  0.00000000000E+00  0.45593999997E+02  0.45594000000E+02  0.51100000000E-03 0. -1.
         11   -1    0    0    0    0 -0.00000000000E+00 -0.00000000000E+00 -0.45593999997E+02  0.45594000000E+02  0.51100000000E-03 0.  1.
         23    2    1    2    0    0  0.35527136788E-14  0.00000000000E+00 -0.35527136788E-14  0.91188000000E+02  0.91188000000E+02 0.  0.
    9900012    2    3    3    0    0  0.20525155348E+02  0.20614390670E+02  0.22573103988E+02  0.54367080288E+02  0.39999991133E+02 0.  0.
        -12    1    3    3    0    0 -0.20525155348E+02 -0.20614390670E+02 -0.22573103988E+02  0.36820919712E+02  0.00000000000E+00 0.  1.
         11    1    4    4    0    0 -0.24397759997E+01  0.15562789378E+02  0.15346856276E+02  0.21992701471E+02  0.51100000000E-03 0. -1.
        -11    1    4    4    0    0 -0.11056574734E+01  0.57396611778E+01 -0.25601909460E+01  0.63812825377E+01  0.51100000000E-03 0.  1.
         12    1    4    4    0    0  0.24070588821E+02 -0.68805988599E+00  0.97864386580E+01  0.25993096280E+02  0.00000000000E+00 0. -1.
</event>
<event>
 8    1  0.1238315E-006  0.9118800E+02  0.7816164E-02  0.1184000E+00
        -11   -1    0    0    0    0  0.00000000000E+00  0.00000000000E+00  0.45593999997E+02  0.45594000000E+02  0.51100000000E-03 0.  1.
         11   -1    0    0    0    0 -0.00000000000E+00 -0.00000000000E+00 -0.45593999997E+02  0.45594000000E+02  0.51100000000E-03 0. -1.
         23    2    1    2    0    0  0.00000000000E+00  0.00000000000E+00  0.35527136788E-14  0.91188000000E+02  0.91188000000E+02 0.  0.
    9900012    2    3    3    0    0  0.24451440809E+02  0.53329859225E+01  0.27008688406E+02  0.54367042029E+02  0.39999903914E+02 0.  0.
         12    1    3    3    0    0 -0.24451440809E+02 -0.53329859225E+01 -0.27008688406E+02  0.36820957971E+02  0.00000000000E+00 0. -1.
         11    1    4    4    0    0  0.46346833602E+01  0.60150881160E+01  0.15067616477E+02  0.16872896653E+02  0.51100000000E-03 0. -1.
        -11    1    4    4    0    0 -0.23952505903E+01  0.39925250203E+01  0.13950367148E+02  0.14706808805E+02  0.51100000000E-03 0.  1.
        -12    1    4    4    0    0  0.22212008039E+02 -0.46746272137E+01 -0.20092952194E+01  0.22787336571E+02  0.00000000000E+00 0.  1.
</event>
<event>
 8    1  0.1238315E-006  0.9118800E+02  0.7816164E-02  0.1184000E+00
        -11   -1    0    0    0    0  0.00000000000E+00  0.00000000000E+00  0.45593999997E+02  0.45594000000E+02  0.51100000000E-03 0.  1.
         11   -1    0    0    0    0 -0.00000000000E+00 -0.00000000000E+00 -0.45593999997E+02  0.45594000000E+02  0.51100000000E-03 0. -1.
         23    2    1    2    0    0  0.00000000000E+00  0.00000000000E+00  0.00000000000E+00  0.91188000000E+02  0.91188000000E+02 0.  0.
    9900012    2    3    3    0    0  0.17669465874E+02 -0.31456985257E+02 -0.73504231245E+01  0.54367072990E+02  0.39999974495E+02 0.  0.
        -12    1    3    3    0    0 -0.17669465874E+02  0.31456985257E+02  0.73504231245E+01  0.36820927010E+02  0.00000000000E+00 0.  1.
         11    1    4    4    0    0  0.25741035610E+02 -0.31022891714E+02 -0.70715866324E+01  0.40927106694E+02  0.51100000000E-03 0. -1.
        -11    1    4    4    0    0 -0.76338354390E+01  0.17372441072E+00 -0.46930058555E+01  0.89626964638E+01  0.51100000000E-03 0.  1.
         12    1    4    4    0    0 -0.43773429702E+00 -0.60781795394E+00  0.44141693634E+01  0.44772698321E+01  0.00000000000E+00 0. -1.
</event>
<event>
 8    1  0.1238315E-006  0.9118800E+02  0.7816164E-02  0.1184000E+00
        -11   -1    0    0    0    0  0.00000000000E+00  0.00000000000E+00  0.45593999997E+02  0.45594000000E+02  0.51100000000E-03 0. -1.
         11   -1    0    0    0    0 -0.00000000000E+00 -0.00000000000E+00 -0.45593999997E+02  0.45594000000E+02  0.51100000000E-03 0.  1.
         23    2    1    2    0    0 -0.35527136788E-14  0.88817841970E-15 -0.35527136788E-14  0.91188000000E+02  0.91188000000E+02 0.  0.
    9900012    2    3    3    0    0  0.30050079918E+02  0.59714867851E+01 -0.20423343028E+02  0.54367096997E+02  0.40000029224E+02 0.  0.
         12    1    3    3    0    0 -0.30050079918E+02 -0.59714867851E+01  0.20423343028E+02  0.36820903003E+02  0.00000000000E+00 0. -1.
         11    1    4    4    0    0 -0.68155034111E-01  0.73858158327E+00  0.44655319246E+01  0.45267122169E+01  0.51100000000E-03 0. -1.
        -11    1    4    4    0    0 -0.58270639265E+01 -0.89867279305E+00 -0.38710764835E+00  0.59086495399E+01  0.51100000000E-03 0.  1.
        -12    1    4    4    0    0  0.35945298879E+02  0.61315779948E+01 -0.24501767304E+02  0.43931735240E+02  0.00000000000E+00 0.  1.
</event>
<event>
 8    1  0.1238315E-006  0.9118800E+02  0.7816164E-02  0.1184000E+00
        -11   -1    0    0    0    0  0.00000000000E+00  0.00000000000E+00  0.45593999997E+02  0.45594000000E+02  0.51100000000E-03 0.  1.
         11   -1    0    0    0    0 -0.00000000000E+00 -0.00000000000E+00 -0.45593999997E+02  0.45594000000E+02  0.51100000000E-03 0. -1.
         23    2    1    2    0    0 -0.88817841970E-15  0.00000000000E+00  0.00000000000E+00  0.91188000000E+02  0.91188000000E+02 0.  0.
    9900012    2    3    3    0    0 -0.42658859282E+01  0.97364846802E+01  0.35253128015E+02  0.54367082690E+02  0.39999996608E+02 0.  0.
         12    1    3    3    0    0  0.42658859282E+01 -0.97364846802E+01 -0.35253128015E+02  0.36820917310E+02  0.00000000000E+00 0. -1.
         11    1    4    4    0    0  0.91991191575E+01  0.71766289597E+01  0.28908763569E+02  0.31174419126E+02  0.51100000000E-03 0. -1.
        -11    1    4    4    0    0 -0.48378747586E+01 -0.34675766417E+01  0.10343869306E+02  0.11934184196E+02  0.51100000000E-03 0.  1.
         12    1    4    4    0    0 -0.86271303271E+01  0.60274323622E+01 -0.39995048593E+01  0.11258479368E+02  0.00000000000E+00 0. -1.
</event>
<event>
 8    1  0.1238315E-006  0.9118800E+02  0.7816164E-02  0.1184000E+00
        -11   -1    0    0    0    0  0.00000000000E+00  0.00000000000E+00  0.45593999997E+02  0.45594000000E+02  0.51100000000E-03 0. -1.
         11   -1    0    0    0    0 -0.00000000000E+00 -0.00000000000E+00 -0.45593999997E+02  0.45594000000E+02  0.51100000000E-03 0.  1.
         23    2    1    2    0    0  0.66613381478E-15  0.88817841970E-15 -0.14210854715E-13  0.91188000000E+02  0.91188000000E+02 0.  0.
    9900012    2    3    3    0    0 -0.19510874242E+01  0.50210491036E+01 -0.36424819475E+02  0.54367012099E+02  0.39999835682E+02 0.  0.
         12    1    3    3    0    0  0.19510874242E+01 -0.50210491036E+01  0.36424819475E+02  0.36820987901E+02  0.00000000000E+00 0. -1.
         11    1    4    4    0    0  0.51922673436E+01 -0.41083958143E+01 -0.59985096691E+00  0.66481860517E+01  0.51100000000E-03 0. -1.
        -11    1    4    4    0    0  0.58739649442E+01  0.67499646541E+01  0.59658597687E+00  0.89677980623E+01  0.51100000000E-03 0.  1.
        -12    1    4    4    0    0 -0.13017319712E+02  0.23794802638E+01 -0.36421554485E+02  0.38751027985E+02  0.00000000000E+00 0.  1.
</event>
<event>
 8    1  0.1238315E-006  0.9118800E+02  0.7816164E-02  0.1184000E+00
        -11   -1    0    0    0    0  0.00000000000E+00  0.00000000000E+00  0.45593999997E+02  0.45594000000E+02  0.51100000000E-03 0.  1.
         11   -1    0    0    0    0 -0.00000000000E+00 -0.00000000000E+00 -0.45593999997E+02  0.45594000000E+02  0.51100000000E-03 0. -1.
         23    2    1    2    0    0  0.35527136788E-14  0.44408920985E-15 -0.35527136788E-14  0.91188000000E+02  0.91188000000E+02 0.  0.
    9900012    2    3    3    0    0 -0.27408807463E+02 -0.29576291009E+01  0.24408786901E+02  0.54367093243E+02  0.40000020666E+02 0.  0.
         12    1    3    3    0    0  0.27408807463E+02  0.29576291009E+01 -0.24408786901E+02  0.36820906757E+02  0.00000000000E+00 0. -1.
         11    1    4    4    0    0 -0.14571647753E+02  0.47016084320E+01 -0.20180413294E+01  0.15443786166E+02  0.51100000000E-03 0. -1.
        -11    1    4    4    0    0 -0.12939164053E+02 -0.58633582382E+00  0.28704927606E+02  0.31491881894E+02  0.51100000000E-03 0.  1.
         12    1    4    4    0    0  0.10200434323E+00 -0.70729017091E+01 -0.22780993762E+01  0.74314251824E+01  0.00000000000E+00 0. -1.
</event>
<event>
 8    1  0.1238315E-006  0.9118800E+02  0.7816164E-02  0.1184000E+00
        -11   -1    0    0    0    0  0.00000000000E+00  0.00000000000E+00  0.45593999997E+02  0.45594000000E+02  0.51100000000E-03 0.  1.
         11   -1    0    0    0    0 -0.00000000000E+00 -0.00000000000E+00 -0.45593999997E+02  0.45594000000E+02  0.51100000000E-03 0. -1.
         23    2    1    2    0    0 -0.35527136788E-14 -0.35527136788E-14 -0.35527136788E-14  0.91188000000E+02  0.91188000000E+02 0.  0.
    9900012    2    3    3    0    0  0.20010214377E+02  0.18083977776E+02  0.25066722978E+02  0.54367088381E+02  0.40000009581E+02 0.  0.
         12    1    3    3    0    0 -0.20010214377E+02 -0.18083977776E+02 -0.25066722978E+02  0.36820911619E+02  0.00000000000E+00 0. -1.
         11    1    4    4    0    0  0.10824710399E+02 -0.12716355228E+01 -0.42516266934E+01  0.11699048762E+02  0.51100000000E-03 0. -1.
        -11    1    4    4    0    0  0.14056236539E+02  0.49392531165E+01  0.94543097906E+01  0.17645338786E+02  0.51100000000E-03 0.  1.
        -12    1    4    4    0    0 -0.48707325609E+01  0.14416360183E+02  0.19864039881E+02  0.25022700833E+02  0.00000000000E+00 0.  1.
</event>
<event>
 8    1  0.1238315E-006  0.9118800E+02  0.7816164E-02  0.1184000E+00
        -11   -1    0    0    0    0  0.00000000000E+00  0.00000000000E+00  0.45593999997E+02  0.45594000000E+02  0.51100000000E-03 0.  1.
         11   -1    0    0    0    0 -0.00000000000E+00 -0.00000000000E+00 -0.45593999997E+02  0.45594000000E+02  0.51100000000E-03 0. -1.
         23    2    1    2    0    0 -0.17763568394E-14  0.17763568394E-14  0.71054273576E-14  0.91188000000E+02  0.91188000000E+02 0.  0.
    9900012    2    3    3    0    0  0.12983103091E+02 -0.71300554928E+01 -0.33710253063E+02  0.54367084493E+02  0.40000000719E+02 0.  0.
        -12    1    3    3    0    0 -0.12983103091E+02  0.71300554928E+01  0.33710253063E+02  0.36820915507E+02  0.00000000000E+00 0.  1.
         11    1    4    4    0    0  0.69358556839E+01  0.17478874311E+01 -0.19249214524E+02  0.20535176274E+02  0.51100000000E-03 0. -1.
        -11    1    4    4    0    0  0.43207166480E+01  0.73015819375E+01 -0.15347429644E+02  0.17536398948E+02  0.51100000000E-03 0.  1.
        -12    1    4    4    0    0  0.17265307586E+01 -0.16179524861E+02  0.88639110497E+00  0.16295509271E+02  0.00000000000E+00 0.  1.
</event>
<event>
 8    1  0.1238315E-006  0.9118800E+02  0.7816164E-02  0.1184000E+00
        -11   -1    0    0    0    0  0.00000000000E+00  0.00000000000E+00  0.45593999997E+02  0.45594000000E+02  0.51100000000E-03 0.  1.
         11   -1    0    0    0    0 -0.00000000000E+00 -0.00000000000E+00 -0.45593999997E+02  0.45594000000E+02  0.51100000000E-03 0. -1.
         23    2    1    2    0    0  0.35527136788E-14  0.00000000000E+00 -0.17763568394E-14  0.91188000000E+02  0.91188000000E+02 0.  0.
    9900012    2    3    3    0    0  0.28995724975E+02  0.22250525274E+02  0.44655794507E+01  0.54367090972E+02  0.40000015490E+02 0.  0.
         12    1    3    3    0    0 -0.28995724975E+02 -0.22250525274E+02 -0.44655794507E+01  0.36820909028E+02  0.00000000000E+00 0. -1.
         11    1    4    4    0    0  0.54587998536E+01  0.10997839107E+02  0.17988613863E+02  0.21779375331E+02  0.51100000000E-03 0. -1.
        -11    1    4    4    0    0  0.15150914626E+02  0.51672537703E+01 -0.15219858020E+02  0.22088340905E+02  0.51100000000E-03 0.  1.
         12    1    4    4    0    0  0.83860104956E+01  0.60854323968E+01  0.16968236085E+01  0.10499374736E+02  0.00000000000E+00 0. -1.
</event>
<event>
 8    1  0.1238315E-006  0.9118800E+02  0.7816164E-02  0.1184000E+00
        -11   -1    0    0    0    0  0.00000000000E+00  0.00000000000E+00  0.45593999997E+02  0.45594000000E+02  0.51100000000E-03 0.  1.
         11   -1    0    0    0    0 -0.00000000000E+00 -0.00000000000E+00 -0.45593999997E+02  0.45594000000E+02  0.51100000000E-03 0. -1.
         23    2    1    2    0    0  0.00000000000E+00  0.00000000000E+00  0.00000000000E+00  0.91188000000E+02  0.91188000000E+02 0.  0.
    9900012    2    3    3    0    0  0.79219313153E+01 -0.32074052387E+01 -0.35815274904E+02  0.54367104294E+02  0.40000045859E+02 0.  0.
        -12    1    3    3    0    0 -0.79219313153E+01  0.32074052387E+01  0.35815274904E+02  0.36820895706E+02  0.00000000000E+00 0.  1.
         11    1    4    4    0    0  0.94707076960E+01 -0.56080649378E+00 -0.75629843476E+01  0.12132911468E+02  0.51100000000E-03 0. -1.
        -11    1    4    4    0    0  0.13516201466E+02  0.12555304842E-01 -0.50215427774E+01  0.14418867910E+02  0.51100000000E-03 0.  1.
        -12    1    4    4    0    0 -0.15064977846E+02 -0.26591540498E+01 -0.23230747779E+02  0.27815324915E+02  0.00000000000E+00 0.  1.
</event>
<event>
 8    1  0.1238315E-006  0.9118800E+02  0.7816164E-02  0.1184000E+00
        -11   -1    0    0    0    0  0.00000000000E+00  0.00000000000E+00  0.45593999997E+02  0.45594000000E+02  0.51100000000E-03 0. -1.
         11   -1    0    0    0    0 -0.00000000000E+00 -0.00000000000E+00 -0.45593999997E+02  0.45594000000E+02  0.51100000000E-03 0.  1.
         23    2    1    2    0    0 -0.35527136788E-14 -0.71054273576E-14  0.00000000000E+00  0.91188000000E+02  0.91188000000E+02 0.  0.
    9900012    2    3    3    0    0 -0.12679455718E+02 -0.34445574167E+02  0.29175664795E+01  0.54367104151E+02  0.40000045533E+02 0.  0.
         12    1    3    3    0    0  0.12679455718E+02  0.34445574167E+02 -0.29175664795E+01  0.36820895849E+02  0.00000000000E+00 0. -1.
         11    1    4    4    0    0 -0.70214966983E+01 -0.12822647964E+02  0.15875528341E+02  0.21581337240E+02  0.51100000000E-03 0. -1.
        -11    1    4    4    0    0  0.60265206986E+01 -0.40910922097E+01 -0.86015848650E+01  0.11271346399E+02  0.51100000000E-03 0.  1.
        -12    1    4    4    0    0 -0.11684479718E+02 -0.17531833993E+02 -0.43563769961E+01  0.21514420512E+02  0.00000000000E+00 0.  1.
</event>
<event>
 8    1  0.1238315E-006  0.9118800E+02  0.7816164E-02  0.1184000E+00
        -11   -1    0    0    0    0  0.00000000000E+00  0.00000000000E+00  0.45593999997E+02  0.45594000000E+02  0.51100000000E-03 0.  1.
         11   -1    0    0    0    0 -0.00000000000E+00 -0.00000000000E+00 -0.45593999997E+02  0.45594000000E+02  0.51100000000E-03 0. -1.
         23    2    1    2    0    0  0.88817841970E-15  0.00000000000E+00  0.35527136788E-14  0.91188000000E+02  0.91188000000E+02 0.  0.
    9900012    2    3    3    0    0 -0.53931558966E+01 -0.25919010059E+02 -0.25590970813E+02  0.54367095609E+02  0.40000026061E+02 0.  0.
        -12    1    3    3    0    0  0.53931558966E+01  0.25919010059E+02  0.25590970813E+02  0.36820904391E+02  0.00000000000E+00 0.  1.
         11    1    4    4    0    0  0.38198350620E+01 -0.68490634738E+01 -0.42631316823E+01  0.89260911026E+01  0.51100000000E-03 0. -1.
        -11    1    4    4    0    0  0.26266286910E+00 -0.26600422251E+02 -0.87952858520E+01  0.28018003305E+02  0.51100000000E-03 0.  1.
        -12    1    4    4    0    0 -0.94756538277E+01  0.75304756650E+01 -0.12532553279E+02  0.17423001202E+02  0.00000000000E+00 0.  1.
</event>
<event>
 8    1  0.1238315E-006  0.9118800E+02  0.7816164E-02  0.1184000E+00
        -11   -1    0    0    0    0  0.00000000000E+00  0.00000000000E+00  0.45593999997E+02  0.45594000000E+02  0.51100000000E-03 0.  1.
         11   -1    0    0    0    0 -0.00000000000E+00 -0.00000000000E+00 -0.45593999997E+02  0.45594000000E+02  0.51100000000E-03 0. -1.
         23    2    1    2    0    0  0.00000000000E+00 -0.17763568394E-14  0.00000000000E+00  0.91188000000E+02  0.91188000000E+02 0.  0.
    9900012    2    3    3    0    0 -0.11385876442E+02 -0.92342357120E+01  0.33776806839E+02  0.54367055257E+02  0.39999934068E+02 0.  0.
         12    1    3    3    0    0  0.11385876442E+02  0.92342357120E+01 -0.33776806839E+02  0.36820944743E+02  0.00000000000E+00 0. -1.
         11    1    4    4    0    0  0.90154513656E+01  0.29119466126E+00  0.29594825007E+01  0.94932446818E+01  0.51100000000E-03 0. -1.
        -11    1    4    4    0    0 -0.42479977454E+01  0.58036397998E+01  0.17515114486E+02  0.18934279904E+02  0.51100000000E-03 0.  1.
         12    1    4    4    0    0 -0.16153330062E+02 -0.15329070173E+02  0.13302209853E+02  0.25939530671E+02  0.00000000000E+00 0. -1.
</event>
<event>
 8    1  0.1238315E-006  0.9118800E+02  0.7816164E-02  0.1184000E+00
        -11   -1    0    0    0    0  0.00000000000E+00  0.00000000000E+00  0.45593999997E+02  0.45594000000E+02  0.51100000000E-03 0.  1.
         11   -1    0    0    0    0 -0.00000000000E+00 -0.00000000000E+00 -0.45593999997E+02  0.45594000000E+02  0.51100000000E-03 0. -1.
         23    2    1    2    0    0  0.00000000000E+00  0.00000000000E+00  0.00000000000E+00  0.91188000000E+02  0.91188000000E+02 0.  0.
    9900012    2    3    3    0    0 -0.12871059767E+02  0.30330700195E+02  0.16436665919E+02  0.54367088273E+02  0.40000009336E+02 0.  0.
        -12    1    3    3    0    0  0.12871059767E+02 -0.30330700195E+02 -0.16436665919E+02  0.36820911727E+02  0.00000000000E+00 0.  1.
         11    1    4    4    0    0 -0.12966316039E+02  0.11056840727E+02 -0.84366424107E+01  0.19014626315E+02  0.51100000000E-03 0. -1.
        -11    1    4    4    0    0  0.53082403822E+01  0.20792678147E+00  0.61487206965E+01  0.81257255656E+01  0.51100000000E-03 0.  1.
         12    1    4    4    0    0 -0.52129841102E+01  0.19065932687E+02  0.18724587633E+02  0.27226736392E+02  0.00000000000E+00 0. -1.
</event>
<event>
 8    1  0.1238315E-006  0.9118800E+02  0.7816164E-02  0.1184000E+00
        -11   -1    0    0    0    0  0.00000000000E+00  0.00000000000E+00  0.45593999997E+02  0.45594000000E+02  0.51100000000E-03 0. -1.
         11   -1    0    0    0    0 -0.00000000000E+00 -0.00000000000E+00 -0.45593999997E+02  0.45594000000E+02  0.51100000000E-03 0.  1.
         23    2    1    2    0    0  0.35527136788E-14  0.35527136788E-14  0.35527136788E-14  0.91188000000E+02  0.91188000000E+02 0.  0.
    9900012    2    3    3    0    0  0.23298083966E+02  0.23379298171E+02  0.16321377472E+02  0.54367086621E+02  0.40000005570E+02 0.  0.
        -12    1    3    3    0    0 -0.23298083966E+02 -0.23379298171E+02 -0.16321377472E+02  0.36820913379E+02  0.00000000000E+00 0.  1.
         11    1    4    4    0    0  0.14059367031E+00  0.14805031311E+02 -0.84391705912E+01  0.17041957611E+02  0.51100000000E-03 0. -1.
        -11    1    4    4    0    0 -0.15622388038E+01  0.12997178758E+01  0.28553542199E+01  0.35046975075E+01  0.51100000000E-03 0.  1.
        -12    1    4    4    0    0  0.24719729099E+02  0.72745489845E+01  0.21905193844E+02  0.33820431502E+02  0.00000000000E+00 0.  1.
</event>
<event>
 8    1  0.1238315E-006  0.9118800E+02  0.7816164E-02  0.1184000E+00
        -11   -1    0    0    0    0  0.00000000000E+00  0.00000000000E+00  0.45593999997E+02  0.45594000000E+02  0.51100000000E-03 0.  1.
         11   -1    0    0    0    0 -0.00000000000E+00 -0.00000000000E+00 -0.45593999997E+02  0.45594000000E+02  0.51100000000E-03 0. -1.
         23    2    1    2    0    0  0.71054273576E-14 -0.88817841970E-15  0.00000000000E+00  0.91188000000E+02  0.91188000000E+02 0.  0.
    9900012    2    3    3    0    0 -0.35007644514E+02 -0.64269391059E+01  0.94307589054E+01  0.54367082925E+02  0.39999997145E+02 0.  0.
        -12    1    3    3    0    0  0.35007644514E+02  0.64269391059E+01 -0.94307589054E+01  0.36820917075E+02  0.00000000000E+00 0.  1.
         11    1    4    4    0    0  0.19617939659E+01  0.91991939126E+01  0.29178020106E+00  0.94105759735E+01  0.51100000000E-03 0. -1.
        -11    1    4    4    0    0 -0.16206893775E+02 -0.16604894351E+02  0.40049745694E+01  0.23546246915E+02  0.51100000000E-03 0.  1.
        -12    1    4    4    0    0 -0.20762544705E+02  0.97876133254E+00  0.51340041350E+01  0.21410260037E+02  0.00000000000E+00 0.  1.
</event>
<event>
 8    1  0.1238315E-006  0.9118800E+02  0.7816164E-02  0.1184000E+00
        -11   -1    0    0    0    0  0.00000000000E+00  0.00000000000E+00  0.45593999997E+02  0.45594000000E+02  0.51100000000E-03 0. -1.
         11   -1    0    0    0    0 -0.00000000000E+00 -0.00000000000E+00 -0.45593999997E+02  0.45594000000E+02  0.51100000000E-03 0.  1.
         23    2    1    2    0    0  0.00000000000E+00  0.17763568394E-14  0.35527136788E-14  0.91188000000E+02  0.91188000000E+02 0.  0.
    9900012    2    3    3    0    0  0.19625547749E+02  0.15510934141E+02  0.27019035645E+02  0.54367088963E+02  0.40000010909E+02 0.  0.
        -12    1    3    3    0    0 -0.19625547749E+02 -0.15510934141E+02 -0.27019035645E+02  0.36820911037E+02  0.00000000000E+00 0.  1.
         11    1    4    4    0    0 -0.49083689424E+00  0.79233251566E+01  0.35721283596E+01  0.87051768317E+01  0.51100000000E-03 0. -1.
        -11    1    4    4    0    0 -0.68419193789E+01  0.68835034539E+01 -0.32762656764E+00  0.97109124193E+01  0.51100000000E-03 0.  1.
        -12    1    4    4    0    0  0.26958304022E+02  0.70410553044E+00  0.23774533853E+02  0.35950999712E+02  0.00000000000E+00 0.  1.
</event>
<event>
 8    1  0.1238315E-006  0.9118800E+02  0.7816164E-02  0.1184000E+00
        -11   -1    0    0    0    0  0.00000000000E+00  0.00000000000E+00  0.45593999997E+02  0.45594000000E+02  0.51100000000E-03 0.  1.
         11   -1    0    0    0    0 -0.00000000000E+00 -0.00000000000E+00 -0.45593999997E+02  0.45594000000E+02  0.51100000000E-03 0. -1.
         23    2    1    2    0    0  0.17763568394E-14  0.00000000000E+00 -0.17763568394E-14  0.91188000000E+02  0.91188000000E+02 0.  0.
    9900012    2    3    3    0    0  0.90245741298E+01  0.34162658081E+02 -0.10356176785E+02  0.54367074659E+02  0.39999978300E+02 0.  0.
        -12    1    3    3    0    0 -0.90245741298E+01 -0.34162658081E+02  0.10356176785E+02  0.36820925341E+02  0.00000000000E+00 0.  1.
         11    1    4    4    0    0  0.12533626598E+02  0.35267511799E+02  0.47769612276E+00  0.37431502482E+02  0.51100000000E-03 0. -1.
        -11    1    4    4    0    0 -0.12637412100E+01 -0.15287407335E+01  0.26216463384E+01  0.32874184189E+01  0.51100000000E-03 0.  1.
        -12    1    4    4    0    0 -0.22453112579E+01  0.42388701525E+00 -0.13455519246E+02  0.13648153759E+02  0.00000000000E+00 0.  1.
</event>
<event>
 8    1  0.1238315E-006  0.9118800E+02  0.7816164E-02  0.1184000E+00
        -11   -1    0    0    0    0  0.00000000000E+00  0.00000000000E+00  0.45593999997E+02  0.45594000000E+02  0.51100000000E-03 0. -1.
         11   -1    0    0    0    0 -0.00000000000E+00 -0.00000000000E+00 -0.45593999997E+02  0.45594000000E+02  0.51100000000E-03 0.  1.
         23    2    1    2    0    0 -0.88817841970E-15  0.00000000000E+00 -0.17763568394E-14  0.91188000000E+02  0.91188000000E+02 0.  0.
    9900012    2    3    3    0    0  0.62687851471E+01  0.34657977381E+02  0.10738150424E+02  0.54367069296E+02  0.39999966074E+02 0.  0.
         12    1    3    3    0    0 -0.62687851471E+01 -0.34657977381E+02 -0.10738150424E+02  0.36820930704E+02  0.00000000000E+00 0. -1.
         11    1    4    4    0    0  0.14353710195E+02  0.21462863233E+02  0.87597586699E+01  0.27265671947E+02  0.51100000000E-03 0. -1.
        -11    1    4    4    0    0  0.77382848781E+01  0.49234030486E+01  0.84619599990E+00  0.92107002104E+01  0.51100000000E-03 0.  1.
         12    1    4    4    0    0 -0.15823209926E+02  0.82717110995E+01  0.11321957545E+01  0.17890697138E+02  0.00000000000E+00 0. -1.
</event>
<event>
 8    1  0.1238315E-006  0.9118800E+02  0.7816164E-02  0.1184000E+00
        -11   -1    0    0    0    0  0.00000000000E+00  0.00000000000E+00  0.45593999997E+02  0.45594000000E+02  0.51100000000E-03 0. -1.
         11   -1    0    0    0    0 -0.00000000000E+00 -0.00000000000E+00 -0.45593999997E+02  0.45594000000E+02  0.51100000000E-03 0.  1.
         23    2    1    2    0    0 -0.35527136788E-14 -0.14988010832E-14  0.35527136788E-14  0.91188000000E+02  0.91188000000E+02 0.  0.
    9900012    2    3    3    0    0 -0.23845377974E+02 -0.22022588459E+00  0.28056030382E+02  0.54366927352E+02  0.39999642483E+02 0.  0.
        -12    1    3    3    0    0  0.23845377974E+02  0.22022588459E+00 -0.28056030382E+02  0.36821072648E+02  0.00000000000E+00 0.  1.
         11    1    4    4    0    0 -0.15761422013E+02  0.53399615268E+01  0.12059605600E+02  0.20551683641E+02  0.51100000000E-03 0. -1.
        -11    1    4    4    0    0 -0.25076746112E+01  0.92107150122E+01 -0.21260668276E+01  0.97798703166E+01  0.51100000000E-03 0.  1.
        -12    1    4    4    0    0 -0.55762813495E+01 -0.14770902424E+02  0.18122491609E+02  0.24035373395E+02  0.00000000000E+00 0.  1.
</event>
<event>
 8    1  0.1238315E-006  0.9118800E+02  0.7816164E-02  0.1184000E+00
        -11   -1    0    0    0    0  0.00000000000E+00  0.00000000000E+00  0.45593999997E+02  0.45594000000E+02  0.51100000000E-03 0. -1.
         11   -1    0    0    0    0 -0.00000000000E+00 -0.00000000000E+00 -0.45593999997E+02  0.45594000000E+02  0.51100000000E-03 0.  1.
         23    2    1    2    0    0  0.00000000000E+00  0.00000000000E+00  0.00000000000E+00  0.91188000000E+02  0.91188000000E+02 0.  0.
    9900012    2    3    3    0    0 -0.11651784619E+02 -0.12103581416E+02  0.32764605070E+02  0.54367080494E+02  0.39999991602E+02 0.  0.
        -12    1    3    3    0    0  0.11651784619E+02  0.12103581416E+02 -0.32764605070E+02  0.36820919506E+02  0.00000000000E+00 0.  1.
         11    1    4    4    0    0  0.17065884518E+01  0.84592346453E+01  0.11408898755E+02  0.14305036386E+02  0.51100000000E-03 0. -1.
        -11    1    4    4    0    0 -0.40024362449E+01 -0.76081016060E+01  0.22455018289E+02  0.24044345543E+02  0.51100000000E-03 0.  1.
        -12    1    4    4    0    0 -0.93559368255E+01 -0.12954714455E+02 -0.10993119749E+01  0.16017698565E+02  0.00000000000E+00 0.  1.
</event>
<event>
 8    1  0.1238315E-006  0.9118800E+02  0.7816164E-02  0.1184000E+00
        -11   -1    0    0    0    0  0.00000000000E+00  0.00000000000E+00  0.45593999997E+02  0.45594000000E+02  0.51100000000E-03 0.  1.
         11   -1    0    0    0    0 -0.00000000000E+00 -0.00000000000E+00 -0.45593999997E+02  0.45594000000E+02  0.51100000000E-03 0. -1.
         23    2    1    2    0    0 -0.71054273576E-14 -0.44408920985E-15  0.17763568394E-14  0.91188000000E+02  0.91188000000E+02 0.  0.
    9900012    2    3    3    0    0 -0.35352909162E+02 -0.99702679654E+00  0.10244880121E+02  0.54367084512E+02  0.40000000763E+02 0.  0.
        -12    1    3    3    0    0  0.35352909162E+02  0.99702679654E+00 -0.10244880121E+02  0.36820915488E+02  0.00000000000E+00 0.  1.
         11    1    4    4    0    0 -0.12196391427E+02  0.58718273727E+01  0.18324713354E+01  0.13659731769E+02  0.51100000000E-03 0. -1.
        -11    1    4    4    0    0 -0.83056531518E+01  0.11158544805E+02  0.10249414323E+02  0.17278526866E+02  0.51100000000E-03 0.  1.
         12    1    4    4    0    0 -0.14850864583E+02 -0.18027398974E+02 -0.18370055373E+01  0.23428825877E+02  0.00000000000E+00 0. -1.
</event>
<event>
 8    1  0.1238315E-006  0.9118800E+02  0.7816164E-02  0.1184000E+00
        -11   -1    0    0    0    0  0.00000000000E+00  0.00000000000E+00  0.45593999997E+02  0.45594000000E+02  0.51100000000E-03 0.  1.
         11   -1    0    0    0    0 -0.00000000000E+00 -0.00000000000E+00 -0.45593999997E+02  0.45594000000E+02  0.51100000000E-03 0. -1.
         23    2    1    2    0    0  0.35527136788E-14  0.35527136788E-14  0.00000000000E+00  0.91188000000E+02  0.91188000000E+02 0.  0.
    9900012    2    3    3    0    0  0.19794491867E+02  0.24972153355E+02  0.18448577457E+02  0.54367077121E+02  0.39999983913E+02 0.  0.
         12    1    3    3    0    0 -0.19794491867E+02 -0.24972153355E+02 -0.18448577457E+02  0.36820922879E+02  0.00000000000E+00 0. -1.
         11    1    4    4    0    0  0.97301615796E+01 -0.11346921350E+00 -0.21067213971E+01  0.99562641052E+01  0.51100000000E-03 0. -1.
        -11    1    4    4    0    0  0.78686255703E+01 -0.45434102919E+01  0.81814287360E+01  0.12226758437E+02  0.51100000000E-03 0.  1.
         12    1    4    4    0    0  0.21957047172E+01  0.29629032861E+02  0.12373870118E+02  0.32184054579E+02  0.00000000000E+00 0. -1.
</event>
<event>
 8    1  0.1238315E-006  0.9118800E+02  0.7816164E-02  0.1184000E+00
        -11   -1    0    0    0    0  0.00000000000E+00  0.00000000000E+00  0.45593999997E+02  0.45594000000E+02  0.51100000000E-03 0.  1.
         11   -1    0    0    0    0 -0.00000000000E+00 -0.00000000000E+00 -0.45593999997E+02  0.45594000000E+02  0.51100000000E-03 0. -1.
         23    2    1    2    0    0  0.00000000000E+00 -0.13322676296E-14  0.17763568394E-14  0.91188000000E+02  0.91188000000E+02 0.  0.
    9900012    2    3    3    0    0  0.36496667397E+02 -0.22607109797E+01 -0.43201197864E+01  0.54367068721E+02  0.39999964764E+02 0.  0.
         12    1    3    3    0    0 -0.36496667397E+02  0.22607109797E+01  0.43201197864E+01  0.36820931279E+02  0.00000000000E+00 0. -1.
         11    1    4    4    0    0 -0.84159908297E+00  0.44875997210E+01 -0.51452968034E+01  0.68790202593E+01  0.51100000000E-03 0. -1.
        -11    1    4    4    0    0  0.29516437023E+02 -0.15505016364E+02  0.72262200903E+01  0.34115155636E+02  0.51100000000E-03 0.  1.
        -12    1    4    4    0    0  0.78218294569E+01  0.87567056630E+01 -0.64010430733E+01  0.13372892826E+02  0.00000000000E+00 0.  1.
</event>
<event>
 8    1  0.1238315E-006  0.9118800E+02  0.7816164E-02  0.1184000E+00
        -11   -1    0    0    0    0  0.00000000000E+00  0.00000000000E+00  0.45593999997E+02  0.45594000000E+02  0.51100000000E-03 0. -1.
         11   -1    0    0    0    0 -0.00000000000E+00 -0.00000000000E+00 -0.45593999997E+02  0.45594000000E+02  0.51100000000E-03 0.  1.
         23    2    1    2    0    0  0.17763568394E-14 -0.17763568394E-14  0.00000000000E+00  0.91188000000E+02  0.91188000000E+02 0.  0.
    9900012    2    3    3    0    0 -0.14089832524E+02  0.14826407616E+02 -0.30617544821E+02  0.54367084826E+02  0.40000001479E+02 0.  0.
         12    1    3    3    0    0  0.14089832524E+02 -0.14826407616E+02  0.30617544821E+02  0.36820915174E+02  0.00000000000E+00 0. -1.
         11    1    4    4    0    0 -0.38507110864E+01 -0.18532305039E+01  0.21863251710E+01  0.48002559500E+01  0.51100000000E-03 0. -1.
        -11    1    4    4    0    0 -0.18605239600E+02  0.20518205233E+02 -0.21986433559E+02  0.35363186331E+02  0.51100000000E-03 0.  1.
        -12    1    4    4    0    0  0.83661181624E+01 -0.38385671128E+01 -0.10817436432E+02  0.14203642545E+02  0.00000000000E+00 0.  1.
</event>
<event>
 8    1  0.1238315E-006  0.9118800E+02  0.7816164E-02  0.1184000E+00
        -11   -1    0    0    0    0  0.00000000000E+00  0.00000000000E+00  0.45593999997E+02  0.45594000000E+02  0.51100000000E-03 0. -1.
         11   -1    0    0    0    0 -0.00000000000E+00 -0.00000000000E+00 -0.45593999997E+02  0.45594000000E+02  0.51100000000E-03 0.  1.
         23    2    1    2    0    0 -0.17763568394E-14 -0.88817841970E-15 -0.71054273576E-14  0.91188000000E+02  0.91188000000E+02 0.  0.
    9900012    2    3    3    0    0  0.10003216300E+02  0.29547449543E+01  0.35312693248E+02  0.54367066301E+02  0.39999959246E+02 0.  0.
        -12    1    3    3    0    0 -0.10003216300E+02 -0.29547449543E+01 -0.35312693248E+02  0.36820933699E+02  0.00000000000E+00 0.  1.
         11    1    4    4    0    0 -0.11442185977E+01  0.19922107901E+01 -0.25782612787E+01  0.34533420789E+01  0.51100000000E-03 0. -1.
        -11    1    4    4    0    0 -0.62648128477E+01 -0.76549969085E+01  0.19854356387E+01  0.10089044188E+02  0.51100000000E-03 0.  1.
         12    1    4    4    0    0  0.17412247745E+02  0.86175310727E+01  0.35905518888E+02  0.40824680034E+02  0.00000000000E+00 0. -1.
</event>
<event>
 8    1  0.1238315E-006  0.9118800E+02  0.7816164E-02  0.1184000E+00
        -11   -1    0    0    0    0  0.00000000000E+00  0.00000000000E+00  0.45593999997E+02  0.45594000000E+02  0.51100000000E-03 0.  1.
         11   -1    0    0    0    0 -0.00000000000E+00 -0.00000000000E+00 -0.45593999997E+02  0.45594000000E+02  0.51100000000E-03 0. -1.
         23    2    1    2    0    0  0.35527136788E-14  0.00000000000E+00  0.00000000000E+00  0.91188000000E+02  0.91188000000E+02 0.  0.
    9900012    2    3    3    0    0 -0.17491431535E+02  0.32244309717E+02 -0.31812510658E+01  0.54367271536E+02  0.40000427118E+02 0.  0.
         12    1    3    3    0    0  0.17491431535E+02 -0.32244309717E+02  0.31812510658E+01  0.36820728464E+02  0.00000000000E+00 0. -1.
         11    1    4    4    0    0  0.75223668853E+01  0.25720157857E+01 -0.14157591465E+01  0.80750011134E+01  0.51100000000E-03 0. -1.
        -11    1    4    4    0    0 -0.13168413291E+02  0.30503622144E+02  0.32883978429E+01  0.33386997965E+02  0.51100000000E-03 0.  1.
        -12    1    4    4    0    0 -0.11845385130E+02 -0.83132821219E+00 -0.50538897621E+01  0.12905272457E+02  0.00000000000E+00 0.  1.
</event>
<event>
 8    1  0.1238315E-006  0.9118800E+02  0.7816164E-02  0.1184000E+00
        -11   -1    0    0    0    0  0.00000000000E+00  0.00000000000E+00  0.45593999997E+02  0.45594000000E+02  0.51100000000E-03 0.  1.
         11   -1    0    0    0    0 -0.00000000000E+00 -0.00000000000E+00 -0.45593999997E+02  0.45594000000E+02  0.51100000000E-03 0. -1.
         23    2    1    2    0    0  0.99920072216E-15  0.17763568394E-14  0.00000000000E+00  0.91188000000E+02  0.91188000000E+02 0.  0.
    9900012    2    3    3    0    0 -0.85870228057E+00 -0.14305345961E+02  0.33917547815E+02  0.54367077382E+02  0.39999984507E+02 0.  0.
         12    1    3    3    0    0  0.85870228057E+00  0.14305345961E+02 -0.33917547815E+02  0.36820922618E+02  0.00000000000E+00 0. -1.
         11    1    4    4    0    0 -0.73485589273E+01  0.13759617256E+01 -0.61379845751E+01  0.96731299942E+01  0.51100000000E-03 0. -1.
        -11    1    4    4    0    0  0.74755446545E+01 -0.56371932049E+01  0.15000780650E+02  0.17682905177E+02  0.51100000000E-03 0.  1.
        -12    1    4    4    0    0 -0.98568800774E+00 -0.10044114482E+02  0.25054751740E+02  0.27011042211E+02  0.00000000000E+00 0.  1.
</event>
<event>
 8    1  0.1238315E-006  0.9118800E+02  0.7816164E-02  0.1184000E+00
        -11   -1    0    0    0    0  0.00000000000E+00  0.00000000000E+00  0.45593999997E+02  0.45594000000E+02  0.51100000000E-03 0. -1.
         11   -1    0    0    0    0 -0.00000000000E+00 -0.00000000000E+00 -0.45593999997E+02  0.45594000000E+02  0.51100000000E-03 0.  1.
         23    2    1    2    0    0 -0.17763568394E-14 -0.17763568394E-14  0.71054273576E-14  0.91188000000E+02  0.91188000000E+02 0.  0.
    9900012    2    3    3    0    0  0.95990315084E+01  0.94296315185E+01 -0.34274195415E+02  0.54367084370E+02  0.40000000438E+02 0.  0.
         12    1    3    3    0    0 -0.95990315084E+01 -0.94296315185E+01  0.34274195415E+02  0.36820915630E+02  0.00000000000E+00 0. -1.
         11    1    4    4    0    0  0.60574197311E+01  0.97807129661E+01 -0.15285877257E+02  0.19131459006E+02  0.51100000000E-03 0. -1.
        -11    1    4    4    0    0 -0.52248844862E+01  0.19455941662E+01 -0.24164395291E+02  0.24799249073E+02  0.51100000000E-03 0.  1.
         12    1    4    4    0    0  0.87664962634E+01 -0.22966756138E+01  0.51760771322E+01  0.10436376291E+02  0.00000000000E+00 0. -1.
</event>
<event>
 8    1  0.1238315E-006  0.9118800E+02  0.7816164E-02  0.1184000E+00
        -11   -1    0    0    0    0  0.00000000000E+00  0.00000000000E+00  0.45593999997E+02  0.45594000000E+02  0.51100000000E-03 0. -1.
         11   -1    0    0    0    0 -0.00000000000E+00 -0.00000000000E+00 -0.45593999997E+02  0.45594000000E+02  0.51100000000E-03 0.  1.
         23    2    1    2    0    0 -0.71054273576E-14 -0.35527136788E-14  0.35527136788E-14  0.91188000000E+02  0.91188000000E+02 0.  0.
    9900012    2    3    3    0    0 -0.14040982118E+02 -0.21495638566E+02  0.26392581279E+02  0.54367081994E+02  0.39999995022E+02 0.  0.
        -12    1    3    3    0    0  0.14040982118E+02  0.21495638566E+02 -0.26392581279E+02  0.36820918006E+02  0.00000000000E+00 0.  1.
         11    1    4    4    0    0 -0.46657068544E+01 -0.15514440307E+02  0.45737585929E+01  0.16834071000E+02  0.51100000000E-03 0. -1.
        -11    1    4    4    0    0  0.86584567515E+01 -0.86795263606E+01  0.77764938169E+01  0.14518157855E+02  0.51100000000E-03 0.  1.
        -12    1    4    4    0    0 -0.18033732015E+02  0.26983281013E+01  0.14042328870E+02  0.23014853139E+02  0.00000000000E+00 0.  1.
</event>
<event>
 8    1  0.1238315E-006  0.9118800E+02  0.7816164E-02  0.1184000E+00
        -11   -1    0    0    0    0  0.00000000000E+00  0.00000000000E+00  0.45593999997E+02  0.45594000000E+02  0.51100000000E-03 0. -1.
         11   -1    0    0    0    0 -0.00000000000E+00 -0.00000000000E+00 -0.45593999997E+02  0.45594000000E+02  0.51100000000E-03 0.  1.
         23    2    1    2    0    0  0.00000000000E+00  0.88817841970E-15 -0.71054273576E-14  0.91188000000E+02  0.91188000000E+02 0.  0.
    9900012    2    3    3    0    0 -0.42569079109E+01 -0.36598728925E+01 -0.36390435422E+02  0.54367085770E+02  0.40000003630E+02 0.  0.
         12    1    3    3    0    0  0.42569079109E+01  0.36598728925E+01  0.36390435422E+02  0.36820914230E+02  0.00000000000E+00 0. -1.
         11    1    4    4    0    0 -0.69300395645E+01  0.95680987356E+01 -0.83205881959E+01  0.14450126296E+02  0.51100000000E-03 0.  1.
        -11    1    4    4    0    0  0.12042303264E+02 -0.26791403135E+00 -0.90427294419E+01  0.15061865816E+02  0.51100000000E-03 0. -1.
         12    1    4    4    0    0 -0.93691716108E+01 -0.12960057597E+02 -0.19027117784E+02  0.24855093658E+02  0.00000000000E+00 0. -1.
</event>
<event>
 8    1  0.1238315E-006  0.9118800E+02  0.7816164E-02  0.1184000E+00
        -11   -1    0    0    0    0  0.00000000000E+00  0.00000000000E+00  0.45593999997E+02  0.45594000000E+02  0.51100000000E-03 0.  1.
         11   -1    0    0    0    0 -0.00000000000E+00 -0.00000000000E+00 -0.45593999997E+02  0.45594000000E+02  0.51100000000E-03 0. -1.
         23    2    1    2    0    0  0.00000000000E+00  0.00000000000E+00  0.00000000000E+00  0.91188000000E+02  0.91188000000E+02 0.  0.
    9900012    2    3    3    0    0 -0.19493472164E+02 -0.10957039648E+02 -0.29252819856E+02  0.54367086861E+02  0.40000006117E+02 0.  0.
        -12    1    3    3    0    0  0.19493472164E+02  0.10957039648E+02  0.29252819856E+02  0.36820913139E+02  0.00000000000E+00 0.  1.
         11    1    4    4    0    0  0.65474270400E+01 -0.25703962233E+01 -0.10725452778E+01  0.71152014183E+01  0.51100000000E-03 0. -1.
        -11    1    4    4    0    0  0.43455218952E+01  0.10856167967E+01  0.37049658840E+00  0.44943734107E+01  0.51100000000E-03 0.  1.
         12    1    4    4    0    0 -0.30386421100E+02 -0.94722602211E+01 -0.28550771167E+02  0.42757512032E+02  0.00000000000E+00 0. -1.
</event>
<event>
 8    1  0.1238315E-006  0.9118800E+02  0.7816164E-02  0.1184000E+00
        -11   -1    0    0    0    0  0.00000000000E+00  0.00000000000E+00  0.45593999997E+02  0.45594000000E+02  0.51100000000E-03 0.  1.
         11   -1    0    0    0    0 -0.00000000000E+00 -0.00000000000E+00 -0.45593999997E+02  0.45594000000E+02  0.51100000000E-03 0. -1.
         23    2    1    2    0    0  0.00000000000E+00  0.35527136788E-14  0.00000000000E+00  0.91188000000E+02  0.91188000000E+02 0.  0.
    9900012    2    3    3    0    0  0.21388311208E+02  0.26196906194E+02 -0.14561705757E+02  0.54367068113E+02  0.39999963378E+02 0.  0.
         12    1    3    3    0    0 -0.21388311208E+02 -0.26196906194E+02  0.14561705757E+02  0.36820931887E+02  0.00000000000E+00 0. -1.
         11    1    4    4    0    0  0.14483396721E+02  0.25180064745E+02 -0.15431711748E+02  0.32892889336E+02  0.51100000000E-03 0.  1.
        -11    1    4    4    0    0  0.48991130957E+01 -0.31600942824E+01 -0.89124407722E+01  0.10649840646E+02  0.51100000000E-03 0. -1.
        -12    1    4    4    0    0  0.20058013906E+01  0.41769357308E+01  0.97824467625E+01  0.10824338131E+02  0.00000000000E+00 0.  1.
</event>
<event>
 8    1  0.1238315E-006  0.9118800E+02  0.7816164E-02  0.1184000E+00
        -11   -1    0    0    0    0  0.00000000000E+00  0.00000000000E+00  0.45593999997E+02  0.45594000000E+02  0.51100000000E-03 0. -1.
         11   -1    0    0    0    0 -0.00000000000E+00 -0.00000000000E+00 -0.45593999997E+02  0.45594000000E+02  0.51100000000E-03 0.  1.
         23    2    1    2    0    0  0.11102230246E-14  0.00000000000E+00 -0.11102230246E-14  0.91188000000E+02  0.91188000000E+02 0.  0.
    9900012    2    3    3    0    0  0.70180421356E+00 -0.36770904208E+02 -0.17848295641E+01  0.54367115409E+02  0.40000071199E+02 0.  0.
         12    1    3    3    0    0 -0.70180421356E+00  0.36770904208E+02  0.17848295641E+01  0.36820884591E+02  0.00000000000E+00 0. -1.
         11    1    4    4    0    0 -0.50723457416E+01 -0.11031638672E+02  0.30994752369E+01  0.12531260516E+02  0.51100000000E-03 0. -1.
        -11    1    4    4    0    0  0.15828951184E+02 -0.22942882731E+02  0.39632230867E+01  0.28153839900E+02  0.51100000000E-03 0.  1.
        -12    1    4    4    0    0 -0.10054801229E+02 -0.27963828048E+01 -0.88475278877E+01  0.13682014993E+02  0.00000000000E+00 0.  1.
</event>
<event>
 8    1  0.1238315E-006  0.9118800E+02  0.7816164E-02  0.1184000E+00
        -11   -1    0    0    0    0  0.00000000000E+00  0.00000000000E+00  0.45593999997E+02  0.45594000000E+02  0.51100000000E-03 0.  1.
         11   -1    0    0    0    0 -0.00000000000E+00 -0.00000000000E+00 -0.45593999997E+02  0.45594000000E+02  0.51100000000E-03 0. -1.
         23    2    1    2    0    0  0.00000000000E+00 -0.71054273576E-14  0.00000000000E+00  0.91188000000E+02  0.91188000000E+02 0.  0.
    9900012    2    3    3    0    0  0.10563787516E+02 -0.35192485676E+02  0.23823755004E+01  0.54367077039E+02  0.39999983725E+02 0.  0.
         12    1    3    3    0    0 -0.10563787516E+02  0.35192485676E+02 -0.23823755004E+01  0.36820922961E+02  0.00000000000E+00 0. -1.
         11    1    4    4    0    0  0.51808755577E+01  0.64709749938E+01 -0.57436086126E+01  0.10084841549E+02  0.51100000000E-03 0. -1.
        -11    1    4    4    0    0  0.29510430193E+01 -0.68074360546E+01  0.55137147709E+01  0.92439651327E+01  0.51100000000E-03 0.  1.
         12    1    4    4    0    0  0.24318689389E+01 -0.34856024615E+02  0.26122693420E+01  0.35038270357E+02  0.00000000000E+00 0. -1.
</event>
<event>
 8    1  0.1238315E-006  0.9118800E+02  0.7816164E-02  0.1184000E+00
        -11   -1    0    0    0    0  0.00000000000E+00  0.00000000000E+00  0.45593999997E+02  0.45594000000E+02  0.51100000000E-03 0.  1.
         11   -1    0    0    0    0 -0.00000000000E+00 -0.00000000000E+00 -0.45593999997E+02  0.45594000000E+02  0.51100000000E-03 0. -1.
         23    2    1    2    0    0  0.00000000000E+00  0.66613381478E-15  0.35527136788E-14  0.91188000000E+02  0.91188000000E+02 0.  0.
    9900012    2    3    3    0    0  0.32967731265E+02 -0.18210008934E+01  0.16296964929E+02  0.54367103557E+02  0.40000044178E+02 0.  0.
         12    1    3    3    0    0 -0.32967731265E+02  0.18210008934E+01 -0.16296964929E+02  0.36820896443E+02  0.00000000000E+00 0. -1.
         11    1    4    4    0    0  0.18062012272E+02  0.82212420965E+01 -0.62639524646E+01  0.20810146796E+02  0.51100000000E-03 0. -1.
        -11    1    4    4    0    0  0.35605642234E+01  0.15398781435E+01  0.15314762140E+02  0.15798442390E+02  0.51100000000E-03 0.  1.
         12    1    4    4    0    0  0.11345154770E+02 -0.11582121133E+02  0.72461552533E+01  0.17758514371E+02  0.00000000000E+00 0. -1.
</event>
<event>
 8    1  0.1238315E-006  0.9118800E+02  0.7816164E-02  0.1184000E+00
        -11   -1    0    0    0    0  0.00000000000E+00  0.00000000000E+00  0.45593999997E+02  0.45594000000E+02  0.51100000000E-03 0.  1.
         11   -1    0    0    0    0 -0.00000000000E+00 -0.00000000000E+00 -0.45593999997E+02  0.45594000000E+02  0.51100000000E-03 0. -1.
         23    2    1    2    0    0  0.88817841970E-15  0.00000000000E+00 -0.17763568394E-14  0.91188000000E+02  0.91188000000E+02 0.  0.
    9900012    2    3    3    0    0  0.64687297218E+01 -0.34404529543E+02  0.11413376864E+02  0.54367064532E+02  0.39999955213E+02 0.  0.
         12    1    3    3    0    0 -0.64687297218E+01  0.34404529543E+02 -0.11413376864E+02  0.36820935468E+02  0.00000000000E+00 0. -1.
         11    1    4    4    0    0  0.15450074548E+02 -0.27549457454E+01 -0.68214402688E+00  0.15708591609E+02  0.51100000000E-03 0. -1.
        -11    1    4    4    0    0  0.23562382488E+01  0.72571859196E-01 -0.93882669190E+00  0.25374241227E+01  0.51100000000E-03 0.  1.
        -12    1    4    4    0    0 -0.11337583075E+02 -0.31722155657E+02  0.13034347583E+02  0.36121048800E+02  0.00000000000E+00 0.  1.
</event>
<event>
 8    1  0.1238315E-006  0.9118800E+02  0.7816164E-02  0.1184000E+00
        -11   -1    0    0    0    0  0.00000000000E+00  0.00000000000E+00  0.45593999997E+02  0.45594000000E+02  0.51100000000E-03 0. -1.
         11   -1    0    0    0    0 -0.00000000000E+00 -0.00000000000E+00 -0.45593999997E+02  0.45594000000E+02  0.51100000000E-03 0.  1.
         23    2    1    2    0    0  0.00000000000E+00  0.33306690739E-14  0.00000000000E+00  0.91188000000E+02  0.91188000000E+02 0.  0.
    9900012    2    3    3    0    0 -0.93795678324E+01 -0.17998115249E+01  0.35560710078E+02  0.54367085895E+02  0.40000003916E+02 0.  0.
        -12    1    3    3    0    0  0.93795678324E+01  0.17998115249E+01 -0.35560710078E+02  0.36820914105E+02  0.00000000000E+00 0.  1.
         11    1    4    4    0    0  0.16763176766E+01 -0.19163607320E+02  0.23293293953E+02  0.30209790299E+02  0.51100000000E-03 0. -1.
        -11    1    4    4    0    0 -0.75100881933E+01  0.93436476189E+01  0.79389492530E+01  0.14378181074E+02  0.51100000000E-03 0.  1.
         12    1    4    4    0    0 -0.35457973157E+01  0.80201481763E+01  0.43284668718E+01  0.97791145220E+01  0.00000000000E+00 0. -1.
</event>
<event>
 8    1  0.1238315E-006  0.9118800E+02  0.7816164E-02  0.1184000E+00
        -11   -1    0    0    0    0  0.00000000000E+00  0.00000000000E+00  0.45593999997E+02  0.45594000000E+02  0.51100000000E-03 0.  1.
         11   -1    0    0    0    0 -0.00000000000E+00 -0.00000000000E+00 -0.45593999997E+02  0.45594000000E+02  0.51100000000E-03 0. -1.
         23    2    1    2    0    0  0.00000000000E+00  0.44408920985E-15  0.00000000000E+00  0.91188000000E+02  0.91188000000E+02 0.  0.
    9900012    2    3    3    0    0 -0.29526405647E+02 -0.84132593672E+00 -0.21983257222E+02  0.54367081246E+02  0.39999993317E+02 0.  0.
        -12    1    3    3    0    0  0.29526405647E+02  0.84132593672E+00  0.21983257222E+02  0.36820918754E+02  0.00000000000E+00 0.  1.
         11    1    4    4    0    0 -0.90335496961E+01  0.10637914684E+02 -0.79517002838E+01  0.16062371761E+02  0.51100000000E-03 0. -1.
        -11    1    4    4    0    0  0.41307049051E+01  0.38113694968E+01  0.91273348462E+00  0.56940620939E+01  0.51100000000E-03 0.  1.
         12    1    4    4    0    0 -0.24623560856E+02 -0.15290610117E+02 -0.14944290423E+02  0.32610647391E+02  0.00000000000E+00 0. -1.
</event>
<event>
 8    1  0.1238315E-006  0.9118800E+02  0.7816164E-02  0.1184000E+00
        -11   -1    0    0    0    0  0.00000000000E+00  0.00000000000E+00  0.45593999997E+02  0.45594000000E+02  0.51100000000E-03 0. -1.
         11   -1    0    0    0    0 -0.00000000000E+00 -0.00000000000E+00 -0.45593999997E+02  0.45594000000E+02  0.51100000000E-03 0.  1.
         23    2    1    2    0    0  0.00000000000E+00  0.00000000000E+00 -0.71054273576E-14  0.91188000000E+02  0.91188000000E+02 0.  0.
    9900012    2    3    3    0    0 -0.10244465418E+02 -0.17148038434E+02 -0.30931781878E+02  0.54367089854E+02  0.40000012940E+02 0.  0.
         12    1    3    3    0    0  0.10244465418E+02  0.17148038434E+02  0.30931781878E+02  0.36820910146E+02  0.00000000000E+00 0. -1.
         11    1    4    4    0    0  0.51254162106E+01 -0.54139058374E+01 -0.17034854055E+02  0.18594798216E+02  0.51100000000E-03 0.  1.
        -11    1    4    4    0    0 -0.11781115179E+02  0.45170432339E+01  0.19791264840E+01  0.12771659889E+02  0.51100000000E-03 0. -1.
        -12    1    4    4    0    0 -0.35887664500E+01 -0.16251175830E+02 -0.15876054307E+02  0.23000631749E+02  0.00000000000E+00 0.  1.
</event>
<event>
 8    1  0.1238315E-006  0.9118800E+02  0.7816164E-02  0.1184000E+00
        -11   -1    0    0    0    0  0.00000000000E+00  0.00000000000E+00  0.45593999997E+02  0.45594000000E+02  0.51100000000E-03 0. -1.
         11   -1    0    0    0    0 -0.00000000000E+00 -0.00000000000E+00 -0.45593999997E+02  0.45594000000E+02  0.51100000000E-03 0.  1.
         23    2    1    2    0    0 -0.35527136788E-14  0.00000000000E+00  0.00000000000E+00  0.91188000000E+02  0.91188000000E+02 0.  0.
    9900012    2    3    3    0    0 -0.27055449627E+02  0.73806311525E+01 -0.23860206626E+02  0.54367074822E+02  0.39999978672E+02 0.  0.
         12    1    3    3    0    0  0.27055449627E+02 -0.73806311525E+01  0.23860206626E+02  0.36820925178E+02  0.00000000000E+00 0. -1.
         11    1    4    4    0    0  0.13429291680E+01  0.86592820952E+01  0.59982666701E+01  0.10619125598E+02  0.51100000000E-03 0. -1.
        -11    1    4    4    0    0 -0.30053203823E+01 -0.12702379123E+00  0.15161421130E+01  0.33684971147E+01  0.51100000000E-03 0.  1.
        -12    1    4    4    0    0 -0.25393058412E+02 -0.11516271514E+01 -0.31374615409E+02  0.40379452110E+02  0.00000000000E+00 0.  1.
</event>
<event>
 8    1  0.1238315E-006  0.9118800E+02  0.7816164E-02  0.1184000E+00
        -11   -1    0    0    0    0  0.00000000000E+00  0.00000000000E+00  0.45593999997E+02  0.45594000000E+02  0.51100000000E-03 0. -1.
         11   -1    0    0    0    0 -0.00000000000E+00 -0.00000000000E+00 -0.45593999997E+02  0.45594000000E+02  0.51100000000E-03 0.  1.
         23    2    1    2    0    0 -0.35527136788E-14  0.00000000000E+00  0.00000000000E+00  0.91188000000E+02  0.91188000000E+02 0.  0.
    9900012    2    3    3    0    0 -0.23820319334E+02  0.19737257449E+02 -0.19970289503E+02  0.54367090076E+02  0.40000013447E+02 0.  0.
         12    1    3    3    0    0  0.23820319334E+02 -0.19737257449E+02  0.19970289503E+02  0.36820909924E+02  0.00000000000E+00 0. -1.
         11    1    4    4    0    0 -0.22532646616E+01 -0.63808692092E+01 -0.60225999958E+00  0.67937773638E+01  0.51100000000E-03 0. -1.
        -11    1    4    4    0    0 -0.93056495989E-02  0.20088289271E+02 -0.14196966855E+02  0.24598644690E+02  0.51100000000E-03 0.  1.
         12    1    4    4    0    0 -0.21557749023E+02  0.60298373868E+01 -0.51710626482E+01  0.22974668023E+02  0.00000000000E+00 0. -1.
</event>
<event>
 8    1  0.1238315E-006  0.9118800E+02  0.7816164E-02  0.1184000E+00
        -11   -1    0    0    0    0  0.00000000000E+00  0.00000000000E+00  0.45593999997E+02  0.45594000000E+02  0.51100000000E-03 0.  1.
         11   -1    0    0    0    0 -0.00000000000E+00 -0.00000000000E+00 -0.45593999997E+02  0.45594000000E+02  0.51100000000E-03 0. -1.
         23    2    1    2    0    0  0.00000000000E+00  0.00000000000E+00  0.00000000000E+00  0.91188000000E+02  0.91188000000E+02 0.  0.
    9900012    2    3    3    0    0  0.34200808103E+02 -0.10937850615E+02 -0.81516771139E+01  0.54367059073E+02  0.39999942769E+02 0.  0.
        -12    1    3    3    0    0 -0.34200808103E+02  0.10937850615E+02  0.81516771139E+01  0.36820940927E+02  0.00000000000E+00 0.  1.
         11    1    4    4    0    0 -0.15717461767E+01  0.42987783978E+01  0.15650423905E+01  0.48372760623E+01  0.51100000000E-03 0. -1.
        -11    1    4    4    0    0 -0.40443247959E+01  0.71580537489E+00  0.26513546866E+01  0.48886217203E+01  0.51100000000E-03 0.  1.
         12    1    4    4    0    0  0.39816879075E+02 -0.15952434388E+02 -0.12368074191E+02  0.44641161291E+02  0.00000000000E+00 0. -1.
</event>
<event>
 8    1  0.1238315E-006  0.9118800E+02  0.7816164E-02  0.1184000E+00
        -11   -1    0    0    0    0  0.00000000000E+00  0.00000000000E+00  0.45593999997E+02  0.45594000000E+02  0.51100000000E-03 0.  1.
         11   -1    0    0    0    0 -0.00000000000E+00 -0.00000000000E+00 -0.45593999997E+02  0.45594000000E+02  0.51100000000E-03 0. -1.
         23    2    1    2    0    0  0.00000000000E+00  0.00000000000E+00 -0.66613381478E-15  0.91188000000E+02  0.91188000000E+02 0.  0.
    9900012    2    3    3    0    0  0.15906527852E+01 -0.36743495888E+02  0.17791998046E+01  0.54367079068E+02  0.39999988351E+02 0.  0.
        -12    1    3    3    0    0 -0.15906527852E+01  0.36743495888E+02 -0.17791998046E+01  0.36820920932E+02  0.00000000000E+00 0.  1.
         11    1    4    4    0    0 -0.69093731524E-01  0.11630679011E+01 -0.75199989050E+01  0.76097230356E+01  0.51100000000E-03 0. -1.
        -11    1    4    4    0    0  0.21751805957E+01 -0.20266943271E+02  0.17898687803E+02  0.27126434073E+02  0.51100000000E-03 0.  1.
         12    1    4    4    0    0 -0.51543407906E+00 -0.17639620518E+02 -0.85994890935E+01  0.19630921959E+02  0.00000000000E+00 0. -1.
</event>
<event>
 8    1  0.1238315E-006  0.9118800E+02  0.7816164E-02  0.1184000E+00
        -11   -1    0    0    0    0  0.00000000000E+00  0.00000000000E+00  0.45593999997E+02  0.45594000000E+02  0.51100000000E-03 0.  1.
         11   -1    0    0    0    0 -0.00000000000E+00 -0.00000000000E+00 -0.45593999997E+02  0.45594000000E+02  0.51100000000E-03 0. -1.
         23    2    1    2    0    0  0.35527136788E-14  0.00000000000E+00  0.00000000000E+00  0.91188000000E+02  0.91188000000E+02 0.  0.
    9900012    2    3    3    0    0 -0.30973247840E+02 -0.58141376833E+01  0.19042947648E+02  0.54367080214E+02  0.39999990963E+02 0.  0.
         12    1    3    3    0    0  0.30973247840E+02  0.58141376833E+01 -0.19042947648E+02  0.36820919786E+02  0.00000000000E+00 0. -1.
         11    1    4    4    0    0  0.20839092545E+01 -0.13486237596E+02  0.14760660730E+02  0.20102198580E+02  0.51100000000E-03 0. -1.
        -11    1    4    4    0    0 -0.13842945390E+02  0.34450917609E+01  0.81889319583E+00  0.14288680158E+02  0.51100000000E-03 0.  1.
         12    1    4    4    0    0 -0.19214211705E+02  0.42270081522E+01  0.34633937221E+01  0.19976201476E+02  0.00000000000E+00 0. -1.
</event>
<event>
 8    1  0.1238315E-006  0.9118800E+02  0.7816164E-02  0.1184000E+00
        -11   -1    0    0    0    0  0.00000000000E+00  0.00000000000E+00  0.45593999997E+02  0.45594000000E+02  0.51100000000E-03 0.  1.
         11   -1    0    0    0    0 -0.00000000000E+00 -0.00000000000E+00 -0.45593999997E+02  0.45594000000E+02  0.51100000000E-03 0. -1.
         23    2    1    2    0    0  0.00000000000E+00  0.00000000000E+00 -0.88817841970E-15  0.91188000000E+02  0.91188000000E+02 0.  0.
    9900012    2    3    3    0    0  0.29050499818E+02 -0.21359436167E+02 -0.74582065482E+01  0.54367056259E+02  0.39999936354E+02 0.  0.
        -12    1    3    3    0    0 -0.29050499818E+02  0.21359436167E+02  0.74582065482E+01  0.36820943741E+02  0.00000000000E+00 0.  1.
         11    1    4    4    0    0  0.16685727331E+01  0.32466702650E+01  0.72437678084E+01  0.81115457897E+01  0.51100000000E-03 0. -1.
        -11    1    4    4    0    0  0.16367641832E+02  0.31217384637E+00 -0.31868216412E+01  0.16677919058E+02  0.51100000000E-03 0.  1.
         12    1    4    4    0    0  0.11014285253E+02 -0.24918280279E+02 -0.11515152715E+02  0.29577591412E+02  0.00000000000E+00 0. -1.
</event>
<event>
 8    1  0.1238315E-006  0.9118800E+02  0.7816164E-02  0.1184000E+00
        -11   -1    0    0    0    0  0.00000000000E+00  0.00000000000E+00  0.45593999997E+02  0.45594000000E+02  0.51100000000E-03 0. -1.
         11   -1    0    0    0    0 -0.00000000000E+00 -0.00000000000E+00 -0.45593999997E+02  0.45594000000E+02  0.51100000000E-03 0.  1.
         23    2    1    2    0    0 -0.11587952820E-14  0.00000000000E+00  0.00000000000E+00  0.91188000000E+02  0.91188000000E+02 0.  0.
    9900012    2    3    3    0    0 -0.11053371836E-01 -0.17174718567E+02 -0.32570043219E+02  0.54367098391E+02  0.40000032401E+02 0.  0.
         12    1    3    3    0    0  0.11053371836E-01  0.17174718567E+02  0.32570043219E+02  0.36820901609E+02  0.00000000000E+00 0. -1.
         11    1    4    4    0    0 -0.87457293807E+01 -0.12907557442E+02 -0.10444648357E+01  0.15626379254E+02  0.51100000000E-03 0. -1.
        -11    1    4    4    0    0  0.35980244272E+01 -0.10079303124E+02 -0.64563284595E+01  0.12498892298E+02  0.51100000000E-03 0.  1.
         12    1    4    4    0    0  0.51366515817E+01  0.58121419989E+01 -0.25069249924E+02  0.26241826839E+02  0.00000000000E+00 0. -1.
</event>
<event>
 8    1  0.1238315E-006  0.9118800E+02  0.7816164E-02  0.1184000E+00
        -11   -1    0    0    0    0  0.00000000000E+00  0.00000000000E+00  0.45593999997E+02  0.45594000000E+02  0.51100000000E-03 0. -1.
         11   -1    0    0    0    0 -0.00000000000E+00 -0.00000000000E+00 -0.45593999997E+02  0.45594000000E+02  0.51100000000E-03 0.  1.
         23    2    1    2    0    0  0.00000000000E+00 -0.35527136788E-14  0.00000000000E+00  0.91188000000E+02  0.91188000000E+02 0.  0.
    9900012    2    3    3    0    0  0.28265398442E+00  0.30078019744E+02  0.21237050520E+02  0.54367089097E+02  0.40000011213E+02 0.  0.
        -12    1    3    3    0    0 -0.28265398442E+00 -0.30078019744E+02 -0.21237050520E+02  0.36820910903E+02  0.00000000000E+00 0.  1.
         11    1    4    4    0    0  0.11642384670E+01  0.22212477861E+01 -0.19956296730E+01  0.32049853335E+01  0.51100000000E-03 0. -1.
        -11    1    4    4    0    0 -0.20869678038E+01 -0.43733522829E+01 -0.59451287709E+01  0.76698240637E+01  0.51100000000E-03 0.  1.
         12    1    4    4    0    0  0.12053833212E+01  0.32230124240E+02  0.29177808964E+02  0.43492279699E+02  0.00000000000E+00 0. -1.
</event>
<event>
 8    1  0.1238315E-006  0.9118800E+02  0.7816164E-02  0.1184000E+00
        -11   -1    0    0    0    0  0.00000000000E+00  0.00000000000E+00  0.45593999997E+02  0.45594000000E+02  0.51100000000E-03 0. -1.
         11   -1    0    0    0    0 -0.00000000000E+00 -0.00000000000E+00 -0.45593999997E+02  0.45594000000E+02  0.51100000000E-03 0.  1.
         23    2    1    2    0    0  0.00000000000E+00  0.00000000000E+00 -0.35527136788E-14  0.91188000000E+02  0.91188000000E+02 0.  0.
    9900012    2    3    3    0    0  0.22179285481E+02 -0.24470663053E+02 -0.16280197975E+02  0.54367096959E+02  0.40000029136E+02 0.  0.
         12    1    3    3    0    0 -0.22179285481E+02  0.24470663053E+02  0.16280197975E+02  0.36820903041E+02  0.00000000000E+00 0. -1.
         11    1    4    4    0    0  0.15113413334E+02 -0.53122238012E+01 -0.12927665388E+00  0.16020352587E+02  0.51100000000E-03 0. -1.
        -11    1    4    4    0    0  0.13555762299E+02 -0.62404088530E+01 -0.18427110367E+02  0.23712017858E+02  0.51100000000E-03 0.  1.
        -12    1    4    4    0    0 -0.64898901508E+01 -0.12918030398E+02  0.22761890465E+01  0.14634726513E+02  0.00000000000E+00 0.  1.
</event>
<event>
 8    1  0.1238315E-006  0.9118800E+02  0.7816164E-02  0.1184000E+00
        -11   -1    0    0    0    0  0.00000000000E+00  0.00000000000E+00  0.45593999997E+02  0.45594000000E+02  0.51100000000E-03 0.  1.
         11   -1    0    0    0    0 -0.00000000000E+00 -0.00000000000E+00 -0.45593999997E+02  0.45594000000E+02  0.51100000000E-03 0. -1.
         23    2    1    2    0    0 -0.35527136788E-14  0.00000000000E+00  0.00000000000E+00  0.91188000000E+02  0.91188000000E+02 0.  0.
    9900012    2    3    3    0    0  0.24815258180E+02 -0.20464477870E+02  0.17921761185E+02  0.54367062790E+02  0.39999951243E+02 0.  0.
         12    1    3    3    0    0 -0.24815258180E+02  0.20464477870E+02 -0.17921761185E+02  0.36820937210E+02  0.00000000000E+00 0. -1.
         11    1    4    4    0    0 -0.32392049271E+01 -0.10662879684E+02  0.20990703071E+01  0.11339997713E+02  0.51100000000E-03 0. -1.
        -11    1    4    4    0    0 -0.95615967017E-02 -0.10995815266E+02  0.44730332142E+00  0.11004913689E+02  0.51100000000E-03 0.  1.
         12    1    4    4    0    0  0.28064024704E+02  0.11942170797E+01  0.15375387556E+02  0.32022151388E+02  0.00000000000E+00 0. -1.
</event>
<event>
 8    1  0.1238315E-006  0.9118800E+02  0.7816164E-02  0.1184000E+00
        -11   -1    0    0    0    0  0.00000000000E+00  0.00000000000E+00  0.45593999997E+02  0.45594000000E+02  0.51100000000E-03 0. -1.
         11   -1    0    0    0    0 -0.00000000000E+00 -0.00000000000E+00 -0.45593999997E+02  0.45594000000E+02  0.51100000000E-03 0.  1.
         23    2    1    2    0    0  0.35527136788E-14  0.35527136788E-14  0.00000000000E+00  0.91188000000E+02  0.91188000000E+02 0.  0.
    9900012    2    3    3    0    0 -0.19412072304E+02 -0.22960638021E+02 -0.21254563833E+02  0.54367137256E+02  0.40000121003E+02 0.  0.
         12    1    3    3    0    0  0.19412072304E+02  0.22960638021E+02  0.21254563833E+02  0.36820862744E+02  0.00000000000E+00 0. -1.
         11    1    4    4    0    0 -0.23978813249E+01  0.45452496267E+01 -0.14743417076E+02  0.15613374919E+02  0.51100000000E-03 0. -1.
        -11    1    4    4    0    0  0.28566428561E+01 -0.13481894659E+02 -0.37092552986E+01  0.14271666585E+02  0.51100000000E-03 0.  1.
         12    1    4    4    0    0 -0.19870833836E+02 -0.14023992989E+02 -0.28018914588E+01  0.24482095752E+02  0.00000000000E+00 0. -1.
</event>
<event>
 8    1  0.1238315E-006  0.9118800E+02  0.7816164E-02  0.1184000E+00
        -11   -1    0    0    0    0  0.00000000000E+00  0.00000000000E+00  0.45593999997E+02  0.45594000000E+02  0.51100000000E-03 0.  1.
         11   -1    0    0    0    0 -0.00000000000E+00 -0.00000000000E+00 -0.45593999997E+02  0.45594000000E+02  0.51100000000E-03 0. -1.
         23    2    1    2    0    0  0.00000000000E+00  0.00000000000E+00  0.35527136788E-14  0.91188000000E+02  0.91188000000E+02 0.  0.
    9900012    2    3    3    0    0 -0.21760837164E+02  0.61076618979E+01  0.29067877191E+02  0.54367094901E+02  0.40000024446E+02 0.  0.
         12    1    3    3    0    0  0.21760837164E+02 -0.61076618979E+01 -0.29067877191E+02  0.36820905099E+02  0.00000000000E+00 0. -1.
         11    1    4    4    0    0 -0.67120668179E+01 -0.15103449303E+02  0.12488726236E+02  0.20715557078E+02  0.51100000000E-03 0. -1.
        -11    1    4    4    0    0 -0.63766433198E+01  0.16902922349E+02  0.53868636510E+01  0.18851754938E+02  0.51100000000E-03 0.  1.
         12    1    4    4    0    0 -0.86721270262E+01  0.43081888517E+01  0.11192287304E+02  0.14799782885E+02  0.00000000000E+00 0. -1.
</event>
<event>
 8    1  0.1238315E-006  0.9118800E+02  0.7816164E-02  0.1184000E+00
        -11   -1    0    0    0    0  0.00000000000E+00  0.00000000000E+00  0.45593999997E+02  0.45594000000E+02  0.51100000000E-03 0.  1.
         11   -1    0    0    0    0 -0.00000000000E+00 -0.00000000000E+00 -0.45593999997E+02  0.45594000000E+02  0.51100000000E-03 0. -1.
         23    2    1    2    0    0 -0.35527136788E-14  0.13322676296E-14  0.00000000000E+00  0.91188000000E+02  0.91188000000E+02 0.  0.
    9900012    2    3    3    0    0 -0.30312466217E+02 -0.26029750110E+01  0.20740227671E+02  0.54367107413E+02  0.40000052969E+02 0.  0.
         12    1    3    3    0    0  0.30312466217E+02  0.26029750110E+01 -0.20740227671E+02  0.36820892587E+02  0.00000000000E+00 0. -1.
         11    1    4    4    0    0  0.35889234630E+00 -0.10282231403E+02 -0.18388034301E+01  0.10451520686E+02  0.51100000000E-03 0. -1.
        -11    1    4    4    0    0 -0.24297194977E+02  0.14204399226E+02  0.19685470964E+02  0.34345835387E+02  0.51100000000E-03 0.  1.
        -12    1    4    4    0    0 -0.63741635865E+01 -0.65251428344E+01  0.28935601365E+01  0.95697513396E+01  0.00000000000E+00 0.  1.
</event>
<event>
 8    1  0.1238315E-006  0.9118800E+02  0.7816164E-02  0.1184000E+00
        -11   -1    0    0    0    0  0.00000000000E+00  0.00000000000E+00  0.45593999997E+02  0.45594000000E+02  0.51100000000E-03 0.  1.
         11   -1    0    0    0    0 -0.00000000000E+00 -0.00000000000E+00 -0.45593999997E+02  0.45594000000E+02  0.51100000000E-03 0. -1.
         23    2    1    2    0    0  0.00000000000E+00 -0.88817841970E-15  0.00000000000E+00  0.91188000000E+02  0.91188000000E+02 0.  0.
    9900012    2    3    3    0    0 -0.93232088553E+01  0.26197824197E+01 -0.35524559431E+02  0.54367084666E+02  0.40000001112E+02 0.  0.
        -12    1    3    3    0    0  0.93232088553E+01 -0.26197824197E+01  0.35524559431E+02  0.36820915334E+02  0.00000000000E+00 0.  1.
         11    1    4    4    0    0  0.60083889129E+01  0.13133309088E+02 -0.14717611812E+02  0.20620199869E+02  0.51100000000E-03 0. -1.
        -11    1    4    4    0    0 -0.10692647931E+02 -0.15790194800E+02 -0.12208993151E+02  0.22643376197E+02  0.51100000000E-03 0.  1.
        -12    1    4    4    0    0 -0.46389498376E+01  0.52766681324E+01 -0.85979544681E+01  0.11103508599E+02  0.00000000000E+00 0.  1.
</event>
<event>
 8    1  0.1238315E-006  0.9118800E+02  0.7816164E-02  0.1184000E+00
        -11   -1    0    0    0    0  0.00000000000E+00  0.00000000000E+00  0.45593999997E+02  0.45594000000E+02  0.51100000000E-03 0. -1.
         11   -1    0    0    0    0 -0.00000000000E+00 -0.00000000000E+00 -0.45593999997E+02  0.45594000000E+02  0.51100000000E-03 0.  1.
         23    2    1    2    0    0  0.44408920985E-15  0.00000000000E+00  0.00000000000E+00  0.91188000000E+02  0.91188000000E+02 0.  0.
    9900012    2    3    3    0    0  0.10067726597E+01  0.10424530547E+02  0.35300075128E+02  0.54367085667E+02  0.40000003395E+02 0.  0.
        -12    1    3    3    0    0 -0.10067726597E+01 -0.10424530547E+02 -0.35300075128E+02  0.36820914333E+02  0.00000000000E+00 0.  1.
         11    1    4    4    0    0  0.11669767106E+02 -0.35118642814E+01  0.21017638865E+02  0.24295221727E+02  0.51100000000E-03 0.  1.
        -11    1    4    4    0    0 -0.12629588996E+00  0.12344704426E+01  0.13492674676E+02  0.13549617636E+02  0.51100000000E-03 0. -1.
        -12    1    4    4    0    0 -0.10536698556E+02  0.12701924385E+02  0.78976158632E+00  0.16522246304E+02  0.00000000000E+00 0.  1.
</event>
<event>
 8    1  0.1238315E-006  0.9118800E+02  0.7816164E-02  0.1184000E+00
        -11   -1    0    0    0    0  0.00000000000E+00  0.00000000000E+00  0.45593999997E+02  0.45594000000E+02  0.51100000000E-03 0.  1.
         11   -1    0    0    0    0 -0.00000000000E+00 -0.00000000000E+00 -0.45593999997E+02  0.45594000000E+02  0.51100000000E-03 0. -1.
         23    2    1    2    0    0  0.00000000000E+00  0.35527136788E-14  0.00000000000E+00  0.91188000000E+02  0.91188000000E+02 0.  0.
    9900012    2    3    3    0    0  0.30704839683E+02 -0.14401409050E+02  0.14338453393E+02  0.54367095498E+02  0.40000025808E+02 0.  0.
         12    1    3    3    0    0 -0.30704839683E+02  0.14401409050E+02 -0.14338453393E+02  0.36820904502E+02  0.00000000000E+00 0. -1.
         11    1    4    4    0    0  0.13522876353E+00  0.87044074242E+01  0.42532885509E+01  0.96889348839E+01  0.51100000000E-03 0. -1.
        -11    1    4    4    0    0  0.33321622816E+02 -0.20754727316E+02  0.69036706371E+01  0.39859125951E+02  0.51100000000E-03 0.  1.
         12    1    4    4    0    0 -0.27520118966E+01 -0.23510891588E+01  0.31814942046E+01  0.48190346632E+01  0.00000000000E+00 0. -1.
</event>
<event>
 8    1  0.1238315E-006  0.9118800E+02  0.7816164E-02  0.1184000E+00
        -11   -1    0    0    0    0  0.00000000000E+00  0.00000000000E+00  0.45593999997E+02  0.45594000000E+02  0.51100000000E-03 0.  1.
         11   -1    0    0    0    0 -0.00000000000E+00 -0.00000000000E+00 -0.45593999997E+02  0.45594000000E+02  0.51100000000E-03 0. -1.
         23    2    1    2    0    0 -0.35527136788E-14 -0.44408920985E-15  0.71054273576E-14  0.91188000000E+02  0.91188000000E+02 0.  0.
    9900012    2    3    3    0    0 -0.25425566130E+02 -0.26843954290E+01  0.26497449334E+02  0.54367079138E+02  0.39999988512E+02 0.  0.
         12    1    3    3    0    0  0.25425566130E+02  0.26843954290E+01 -0.26497449334E+02  0.36820920862E+02  0.00000000000E+00 0. -1.
         11    1    4    4    0    0 -0.44871194171E+01  0.39548325695E+00 -0.39045992074E+01  0.59612534673E+01  0.51100000000E-03 0. -1.
        -11    1    4    4    0    0  0.48763698754E+01 -0.68886383356E+00 -0.32685566102E+01  0.59107511467E+01  0.51100000000E-03 0.  1.
        -12    1    4    4    0    0 -0.25814816589E+02 -0.23910148524E+01  0.33670605152E+02  0.42495074524E+02  0.00000000000E+00 0.  1.
</event>
<event>
 8    1  0.1238315E-006  0.9118800E+02  0.7816164E-02  0.1184000E+00
        -11   -1    0    0    0    0  0.00000000000E+00  0.00000000000E+00  0.45593999997E+02  0.45594000000E+02  0.51100000000E-03 0.  1.
         11   -1    0    0    0    0 -0.00000000000E+00 -0.00000000000E+00 -0.45593999997E+02  0.45594000000E+02  0.51100000000E-03 0. -1.
         23    2    1    2    0    0  0.00000000000E+00  0.00000000000E+00  0.00000000000E+00  0.91188000000E+02  0.91188000000E+02 0.  0.
    9900012    2    3    3    0    0  0.13604874498E+01  0.16878939224E+02  0.32696035779E+02  0.54367078351E+02  0.39999986717E+02 0.  0.
         12    1    3    3    0    0 -0.13604874498E+01 -0.16878939224E+02 -0.32696035779E+02  0.36820921649E+02  0.00000000000E+00 0. -1.
         11    1    4    4    0    0 -0.29322390845E+01 -0.63533116719E+01  0.18460036460E+01  0.72367344134E+01  0.51100000000E-03 0. -1.
        -11    1    4    4    0    0 -0.92119323409E+01  0.16281840153E+02  0.24103059309E+02  0.30510907632E+02  0.51100000000E-03 0.  1.
        -12    1    4    4    0    0  0.13504658875E+02  0.69504107427E+01  0.67469728237E+01  0.16619436305E+02  0.00000000000E+00 0.  1.
</event>
<event>
 8    1  0.1238315E-006  0.9118800E+02  0.7816164E-02  0.1184000E+00
        -11   -1    0    0    0    0  0.00000000000E+00  0.00000000000E+00  0.45593999997E+02  0.45594000000E+02  0.51100000000E-03 0.  1.
         11   -1    0    0    0    0 -0.00000000000E+00 -0.00000000000E+00 -0.45593999997E+02  0.45594000000E+02  0.51100000000E-03 0. -1.
         23    2    1    2    0    0  0.00000000000E+00  0.44408920985E-15 -0.17763568394E-14  0.91188000000E+02  0.91188000000E+02 0.  0.
    9900012    2    3    3    0    0  0.34195766816E+02  0.28375113519E+01 -0.13355825888E+02  0.54367081707E+02  0.39999994366E+02 0.  0.
        -12    1    3    3    0    0 -0.34195766816E+02 -0.28375113519E+01  0.13355825888E+02  0.36820918293E+02  0.00000000000E+00 0.  1.
         11    1    4    4    0    0  0.30997936450E+02  0.78843261472E+01  0.23662354154E+01  0.32072320360E+02  0.51100000000E-03 0. -1.
        -11    1    4    4    0    0 -0.37127266059E+01  0.20002730393E+01 -0.63329682027E+00  0.42645628388E+01  0.51100000000E-03 0.  1.
         12    1    4    4    0    0  0.69105569721E+01 -0.70470878346E+01 -0.15088764483E+02  0.18030198508E+02  0.00000000000E+00 0. -1.
</event>
<event>
 8    1  0.1238315E-006  0.9118800E+02  0.7816164E-02  0.1184000E+00
        -11   -1    0    0    0    0  0.00000000000E+00  0.00000000000E+00  0.45593999997E+02  0.45594000000E+02  0.51100000000E-03 0.  1.
         11   -1    0    0    0    0 -0.00000000000E+00 -0.00000000000E+00 -0.45593999997E+02  0.45594000000E+02  0.51100000000E-03 0. -1.
         23    2    1    2    0    0  0.00000000000E+00  0.00000000000E+00 -0.35527136788E-14  0.91188000000E+02  0.91188000000E+02 0.  0.
    9900012    2    3    3    0    0 -0.20636522750E+02 -0.11963234186E+02  0.28049808921E+02  0.54367125161E+02  0.40000093429E+02 0.  0.
         12    1    3    3    0    0  0.20636522750E+02  0.11963234186E+02 -0.28049808921E+02  0.36820874839E+02  0.00000000000E+00 0. -1.
         11    1    4    4    0    0  0.72783965202E+01 -0.18323838614E+01  0.15286168639E+01  0.76595924369E+01  0.51100000000E-03 0. -1.
        -11    1    4    4    0    0 -0.27882840743E+02 -0.35978829580E+01  0.28346844752E+02  0.39924192883E+02  0.51100000000E-03 0.  1.
        -12    1    4    4    0    0 -0.32078527792E-01 -0.65329673664E+01 -0.18256526945E+01  0.67833398413E+01  0.00000000000E+00 0.  1.
</event>
<event>
 8    1  0.1238315E-006  0.9118800E+02  0.7816164E-02  0.1184000E+00
        -11   -1    0    0    0    0  0.00000000000E+00  0.00000000000E+00  0.45593999997E+02  0.45594000000E+02  0.51100000000E-03 0.  1.
         11   -1    0    0    0    0 -0.00000000000E+00 -0.00000000000E+00 -0.45593999997E+02  0.45594000000E+02  0.51100000000E-03 0. -1.
         23    2    1    2    0    0 -0.71054273576E-14  0.00000000000E+00 -0.88817841970E-15  0.91188000000E+02  0.91188000000E+02 0.  0.
    9900012    2    3    3    0    0  0.34297270090E+02 -0.13108137155E+02  0.27663915619E+01  0.54367096731E+02  0.40000028617E+02 0.  0.
         12    1    3    3    0    0 -0.34297270090E+02  0.13108137155E+02 -0.27663915619E+01  0.36820903269E+02  0.00000000000E+00 0. -1.
         11    1    4    4    0    0  0.29341364732E+02 -0.10821382406E+02 -0.23804940382E+01  0.31363749036E+02  0.51100000000E-03 0.  1.
        -11    1    4    4    0    0 -0.64329997689E+01 -0.53569314642E+01 -0.27465233555E+01  0.88104251624E+01  0.51100000000E-03 0. -1.
        -12    1    4    4    0    0  0.11388905127E+02  0.30701767153E+01  0.78934089556E+01  0.14192922532E+02  0.00000000000E+00 0.  1.
</event>
<event>
 8    1  0.1238315E-006  0.9118800E+02  0.7816164E-02  0.1184000E+00
        -11   -1    0    0    0    0  0.00000000000E+00  0.00000000000E+00  0.45593999997E+02  0.45594000000E+02  0.51100000000E-03 0.  1.
         11   -1    0    0    0    0 -0.00000000000E+00 -0.00000000000E+00 -0.45593999997E+02  0.45594000000E+02  0.51100000000E-03 0. -1.
         23    2    1    2    0    0 -0.17763568394E-14  0.35527136788E-14  0.00000000000E+00  0.91188000000E+02  0.91188000000E+02 0.  0.
    9900012    2    3    3    0    0 -0.13605497630E+02 -0.29772522423E+02  0.16860196315E+02  0.54367097282E+02  0.40000029873E+02 0.  0.
         12    1    3    3    0    0  0.13605497630E+02  0.29772522423E+02 -0.16860196315E+02  0.36820902718E+02  0.00000000000E+00 0. -1.
         11    1    4    4    0    0 -0.19634229603E+02 -0.95710856426E+01  0.49941783926E+01  0.22406482780E+02  0.51100000000E-03 0. -1.
        -11    1    4    4    0    0  0.80513310912E+01 -0.15158425596E+01  0.10213438158E+02  0.13093358251E+02  0.51100000000E-03 0.  1.
        -12    1    4    4    0    0 -0.20225991184E+01 -0.18685594221E+02  0.16525797642E+01  0.18867256252E+02  0.00000000000E+00 0.  1.
</event>
<event>
 8    1  0.1238315E-006  0.9118800E+02  0.7816164E-02  0.1184000E+00
        -11   -1    0    0    0    0  0.00000000000E+00  0.00000000000E+00  0.45593999997E+02  0.45594000000E+02  0.51100000000E-03 0.  1.
         11   -1    0    0    0    0 -0.00000000000E+00 -0.00000000000E+00 -0.45593999997E+02  0.45594000000E+02  0.51100000000E-03 0. -1.
         23    2    1    2    0    0  0.00000000000E+00  0.00000000000E+00 -0.35527136788E-14  0.91188000000E+02  0.91188000000E+02 0.  0.
    9900012    2    3    3    0    0 -0.19576958948E+02 -0.47479875389E+01 -0.30821615587E+02  0.54367181233E+02  0.40000221256E+02 0.  0.
        -12    1    3    3    0    0  0.19576958948E+02  0.47479875389E+01  0.30821615587E+02  0.36820818767E+02  0.00000000000E+00 0.  1.
         11    1    4    4    0    0 -0.19458722936E+02 -0.70592633541E+01 -0.34050768027E+02  0.39848838137E+02  0.51100000000E-03 0. -1.
        -11    1    4    4    0    0 -0.46809958231E+01  0.38227748071E+01  0.63666593558E+01  0.87783643543E+01  0.51100000000E-03 0.  1.
         12    1    4    4    0    0  0.45627598119E+01 -0.15114989919E+01 -0.31375069160E+01  0.57399787414E+01  0.00000000000E+00 0. -1.
</event>
<event>
 8    1  0.1238315E-006  0.9118800E+02  0.7816164E-02  0.1184000E+00
        -11   -1    0    0    0    0  0.00000000000E+00  0.00000000000E+00  0.45593999997E+02  0.45594000000E+02  0.51100000000E-03 0.  1.
         11   -1    0    0    0    0 -0.00000000000E+00 -0.00000000000E+00 -0.45593999997E+02  0.45594000000E+02  0.51100000000E-03 0. -1.
         23    2    1    2    0    0  0.00000000000E+00  0.88817841970E-15 -0.71054273576E-14  0.91188000000E+02  0.91188000000E+02 0.  0.
    9900012    2    3    3    0    0  0.13890788850E+02  0.41786485630E+01  0.33843238591E+02  0.54367083159E+02  0.39999997677E+02 0.  0.
         12    1    3    3    0    0 -0.13890788850E+02 -0.41786485630E+01 -0.33843238591E+02  0.36820916841E+02  0.00000000000E+00 0. -1.
         11    1    4    4    0    0  0.10792440001E+02 -0.13823120385E+02  0.89748303037E+01  0.19700329886E+02  0.51100000000E-03 0. -1.
        -11    1    4    4    0    0  0.86812488788E+01  0.13227244778E+02  0.21207334899E+02  0.26458933091E+02  0.51100000000E-03 0.  1.
        -12    1    4    4    0    0 -0.55829000300E+01  0.47745241695E+01  0.36610733887E+01  0.82078201825E+01  0.00000000000E+00 0.  1.
</event>
<event>
 8    1  0.1238315E-006  0.9118800E+02  0.7816164E-02  0.1184000E+00
        -11   -1    0    0    0    0  0.00000000000E+00  0.00000000000E+00  0.45593999997E+02  0.45594000000E+02  0.51100000000E-03 0. -1.
         11   -1    0    0    0    0 -0.00000000000E+00 -0.00000000000E+00 -0.45593999997E+02  0.45594000000E+02  0.51100000000E-03 0.  1.
         23    2    1    2    0    0  0.00000000000E+00  0.00000000000E+00  0.88817841970E-15  0.91188000000E+02  0.91188000000E+02 0.  0.
    9900012    2    3    3    0    0 -0.19439452429E+02  0.30570888303E+02  0.65808612117E+01  0.54367092126E+02  0.40000018120E+02 0.  0.
        -12    1    3    3    0    0  0.19439452429E+02 -0.30570888303E+02 -0.65808612117E+01  0.36820907874E+02  0.00000000000E+00 0.  1.
         11    1    4    4    0    0  0.45906884871E+01  0.17863265948E+02  0.48471799446E+01  0.19070024772E+02  0.51100000000E-03 0. -1.
        -11    1    4    4    0    0 -0.21405562262E+02  0.16034993061E+02 -0.51275742739E+01  0.27232537825E+02  0.51100000000E-03 0.  1.
        -12    1    4    4    0    0 -0.26245786540E+01 -0.33273707057E+01  0.68612555410E+01  0.80645295290E+01  0.00000000000E+00 0.  1.
</event>
<event>
 8    1  0.1238315E-006  0.9118800E+02  0.7816164E-02  0.1184000E+00
        -11   -1    0    0    0    0  0.00000000000E+00  0.00000000000E+00  0.45593999997E+02  0.45594000000E+02  0.51100000000E-03 0. -1.
         11   -1    0    0    0    0 -0.00000000000E+00 -0.00000000000E+00 -0.45593999997E+02  0.45594000000E+02  0.51100000000E-03 0.  1.
         23    2    1    2    0    0  0.00000000000E+00  0.00000000000E+00  0.00000000000E+00  0.91188000000E+02  0.91188000000E+02 0.  0.
    9900012    2    3    3    0    0  0.18591858798E+02  0.22144786123E+02 -0.22797609735E+02  0.54367085079E+02  0.40000002055E+02 0.  0.
         12    1    3    3    0    0 -0.18591858798E+02 -0.22144786123E+02  0.22797609735E+02  0.36820914921E+02  0.00000000000E+00 0. -1.
         11    1    4    4    0    0 -0.65034721339E+01  0.19246556059E+02 -0.50512309411E+01  0.20934182674E+02  0.51100000000E-03 0.  1.
        -11    1    4    4    0    0  0.25654222391E+02  0.49519099319E+01 -0.17027188212E+02  0.31186305923E+02  0.51100000000E-03 0. -1.
        -12    1    4    4    0    0 -0.55889145920E+00 -0.20536798681E+01 -0.71919058187E+00  0.22465964829E+01  0.00000000000E+00 0.  1.
</event>
<event>
 8    1  0.1238315E-006  0.9118800E+02  0.7816164E-02  0.1184000E+00
        -11   -1    0    0    0    0  0.00000000000E+00  0.00000000000E+00  0.45593999997E+02  0.45594000000E+02  0.51100000000E-03 0. -1.
         11   -1    0    0    0    0 -0.00000000000E+00 -0.00000000000E+00 -0.45593999997E+02  0.45594000000E+02  0.51100000000E-03 0.  1.
         23    2    1    2    0    0  0.10130785100E-14  0.00000000000E+00  0.71054273576E-14  0.91188000000E+02  0.91188000000E+02 0.  0.
    9900012    2    3    3    0    0 -0.90264987843E-01 -0.18110553235E+02  0.32058995784E+02  0.54367088863E+02  0.40000010682E+02 0.  0.
        -12    1    3    3    0    0  0.90264987843E-01  0.18110553235E+02 -0.32058995784E+02  0.36820911137E+02  0.00000000000E+00 0.  1.
         11    1    4    4    0    0 -0.23910185093E+01 -0.66808909192E+01  0.26780466646E+02  0.27704596497E+02  0.51100000000E-03 0. -1.
        -11    1    4    4    0    0  0.10600727759E+02 -0.13284039648E+02  0.71385011007E+00  0.17010312185E+02  0.51100000000E-03 0.  1.
        -12    1    4    4    0    0 -0.82999742376E+01  0.18543773319E+01  0.45646790277E+01  0.96521801817E+01  0.00000000000E+00 0.  1.
</event>
<event>
 8    1  0.1238315E-006  0.9118800E+02  0.7816164E-02  0.1184000E+00
        -11   -1    0    0    0    0  0.00000000000E+00  0.00000000000E+00  0.45593999997E+02  0.45594000000E+02  0.51100000000E-03 0. -1.
         11   -1    0    0    0    0 -0.00000000000E+00 -0.00000000000E+00 -0.45593999997E+02  0.45594000000E+02  0.51100000000E-03 0.  1.
         23    2    1    2    0    0 -0.35527136788E-14  0.55511151231E-15 -0.35527136788E-14  0.91188000000E+02  0.91188000000E+02 0.  0.
    9900012    2    3    3    0    0  0.22991750189E+02 -0.82153983088E+00  0.28748642103E+02  0.54367083021E+02  0.39999997363E+02 0.  0.
        -12    1    3    3    0    0 -0.22991750189E+02  0.82153983088E+00 -0.28748642103E+02  0.36820916979E+02  0.00000000000E+00 0.  1.
         11    1    4    4    0    0 -0.45140734944E+01 -0.42236897379E+01  0.60622238879E+01  0.86583470272E+01  0.51100000000E-03 0. -1.
        -11    1    4    4    0    0  0.20789447891E+00 -0.21945347310E+01  0.17159073201E+02  0.17300086595E+02  0.51100000000E-03 0.  1.
         12    1    4    4    0    0  0.27297929204E+02  0.55966846380E+01  0.55273450136E+01  0.28408649399E+02  0.00000000000E+00 0. -1.
</event>
<event>
 8    1  0.1238315E-006  0.9118800E+02  0.7816164E-02  0.1184000E+00
        -11   -1    0    0    0    0  0.00000000000E+00  0.00000000000E+00  0.45593999997E+02  0.45594000000E+02  0.51100000000E-03 0.  1.
         11   -1    0    0    0    0 -0.00000000000E+00 -0.00000000000E+00 -0.45593999997E+02  0.45594000000E+02  0.51100000000E-03 0. -1.
         23    2    1    2    0    0  0.00000000000E+00  0.00000000000E+00  0.00000000000E+00  0.91188000000E+02  0.91188000000E+02 0.  0.
    9900012    2    3    3    0    0  0.56846614162E+01 -0.35192065514E+02  0.92186225319E+01  0.54367084042E+02  0.39999999691E+02 0.  0.
         12    1    3    3    0    0 -0.56846614162E+01  0.35192065514E+02 -0.92186225319E+01  0.36820915958E+02  0.00000000000E+00 0. -1.
         11    1    4    4    0    0  0.10041833033E+02 -0.10512812039E+02  0.51368318778E+01  0.15418971095E+02  0.51100000000E-03 0. -1.
        -11    1    4    4    0    0  0.98307567374E+01 -0.19084476584E+02  0.84699937530E+01  0.23078167583E+02  0.51100000000E-03 0.  1.
         12    1    4    4    0    0 -0.14187928354E+02 -0.55947768908E+01 -0.43882030989E+01  0.15869945364E+02  0.00000000000E+00 0. -1.
</event>
<event>
 8    1  0.1238315E-006  0.9118800E+02  0.7816164E-02  0.1184000E+00
        -11   -1    0    0    0    0  0.00000000000E+00  0.00000000000E+00  0.45593999997E+02  0.45594000000E+02  0.51100000000E-03 0. -1.
         11   -1    0    0    0    0 -0.00000000000E+00 -0.00000000000E+00 -0.45593999997E+02  0.45594000000E+02  0.51100000000E-03 0.  1.
         23    2    1    2    0    0  0.17763568394E-14  0.00000000000E+00  0.35527136788E-14  0.91188000000E+02  0.91188000000E+02 0.  0.
    9900012    2    3    3    0    0  0.15881573198E+02  0.25517684748E+02  0.21269786958E+02  0.54367076066E+02  0.39999981508E+02 0.  0.
        -12    1    3    3    0    0 -0.15881573198E+02 -0.25517684748E+02 -0.21269786958E+02  0.36820923934E+02  0.00000000000E+00 0.  1.
         11    1    4    4    0    0  0.17610243508E+02  0.17912222130E+02  0.13127914320E+02  0.28342732979E+02  0.51100000000E-03 0.  1.
        -11    1    4    4    0    0  0.16641946699E+01 -0.72598758284E+01 -0.19997839459E+01  0.77119697246E+01  0.51100000000E-03 0. -1.
         12    1    4    4    0    0 -0.33928649807E+01  0.14865338447E+02  0.10141656584E+02  0.18312373363E+02  0.00000000000E+00 0. -1.
</event>
<event>
 8    1  0.1238315E-006  0.9118800E+02  0.7816164E-02  0.1184000E+00
        -11   -1    0    0    0    0  0.00000000000E+00  0.00000000000E+00  0.45593999997E+02  0.45594000000E+02  0.51100000000E-03 0.  1.
         11   -1    0    0    0    0 -0.00000000000E+00 -0.00000000000E+00 -0.45593999997E+02  0.45594000000E+02  0.51100000000E-03 0. -1.
         23    2    1    2    0    0 -0.22204460493E-15  0.00000000000E+00  0.00000000000E+00  0.91188000000E+02  0.91188000000E+02 0.  0.
    9900012    2    3    3    0    0  0.11633683887E+01  0.26129982919E+02  0.25916231773E+02  0.54367075207E+02  0.39999979549E+02 0.  0.
         12    1    3    3    0    0 -0.11633683887E+01 -0.26129982919E+02 -0.25916231773E+02  0.36820924793E+02  0.00000000000E+00 0. -1.
         11    1    4    4    0    0 -0.76488595971E+01 -0.58281713357E-01 -0.67258777856E+01  0.10185572254E+02  0.51100000000E-03 0. -1.
        -11    1    4    4    0    0  0.10737975754E+01  0.14260682921E+02  0.22710932402E+02  0.26838527706E+02  0.51100000000E-03 0.  1.
        -12    1    4    4    0    0  0.77384304105E+01  0.11927581711E+02  0.99311771560E+01  0.17342975246E+02  0.00000000000E+00 0.  1.
</event>
<event>
 8    1  0.1238315E-006  0.9118800E+02  0.7816164E-02  0.1184000E+00
        -11   -1    0    0    0    0  0.00000000000E+00  0.00000000000E+00  0.45593999997E+02  0.45594000000E+02  0.51100000000E-03 0. -1.
         11   -1    0    0    0    0 -0.00000000000E+00 -0.00000000000E+00 -0.45593999997E+02  0.45594000000E+02  0.51100000000E-03 0.  1.
         23    2    1    2    0    0  0.44408920985E-15  0.00000000000E+00  0.00000000000E+00  0.91188000000E+02  0.91188000000E+02 0.  0.
    9900012    2    3    3    0    0  0.20153104903E+01 -0.14597069327E+02  0.33743801798E+02  0.54367081094E+02  0.39999992969E+02 0.  0.
        -12    1    3    3    0    0 -0.20153104903E+01  0.14597069327E+02 -0.33743801798E+02  0.36820918906E+02  0.00000000000E+00 0.  1.
         11    1    4    4    0    0  0.11336933244E+02 -0.44401338494E+01  0.15968115192E+02  0.20080377164E+02  0.51100000000E-03 0. -1.
        -11    1    4    4    0    0  0.68742357239E+01  0.34429032051E+01  0.21237189539E+01  0.79761445401E+01  0.51100000000E-03 0.  1.
         12    1    4    4    0    0 -0.16195858478E+02 -0.13599838683E+02  0.15651967652E+02  0.26310559390E+02  0.00000000000E+00 0. -1.
</event>
<event>
 8    1  0.1238315E-006  0.9118800E+02  0.7816164E-02  0.1184000E+00
        -11   -1    0    0    0    0  0.00000000000E+00  0.00000000000E+00  0.45593999997E+02  0.45594000000E+02  0.51100000000E-03 0. -1.
         11   -1    0    0    0    0 -0.00000000000E+00 -0.00000000000E+00 -0.45593999997E+02  0.45594000000E+02  0.51100000000E-03 0.  1.
         23    2    1    2    0    0 -0.26645352591E-14 -0.71054273576E-14  0.17763568394E-14  0.91188000000E+02  0.91188000000E+02 0.  0.
    9900012    2    3    3    0    0  0.65706750625E+01  0.33346808867E+02 -0.14163234515E+02  0.54367073283E+02  0.39999975163E+02 0.  0.
         12    1    3    3    0    0 -0.65706750625E+01 -0.33346808867E+02  0.14163234515E+02  0.36820926717E+02  0.00000000000E+00 0. -1.
         11    1    4    4    0    0 -0.70662351966E+01 -0.51075383607E+01 -0.44016679648E+01  0.97669498357E+01  0.51100000000E-03 0. -1.
        -11    1    4    4    0    0  0.12764668675E+02  0.25836479377E+02 -0.32464699984E+00  0.28819539013E+02  0.51100000000E-03 0.  1.
         12    1    4    4    0    0  0.87224158386E+00  0.12617867850E+02 -0.94369195508E+01  0.15780584434E+02  0.00000000000E+00 0. -1.
</event>
<event>
 8    1  0.1238315E-006  0.9118800E+02  0.7816164E-02  0.1184000E+00
        -11   -1    0    0    0    0  0.00000000000E+00  0.00000000000E+00  0.45593999997E+02  0.45594000000E+02  0.51100000000E-03 0.  1.
         11   -1    0    0    0    0 -0.00000000000E+00 -0.00000000000E+00 -0.45593999997E+02  0.45594000000E+02  0.51100000000E-03 0. -1.
         23    2    1    2    0    0 -0.35527136788E-14 -0.17763568394E-14  0.35527136788E-14  0.91188000000E+02  0.91188000000E+02 0.  0.
    9900012    2    3    3    0    0 -0.26517113183E+02  0.10225358411E+02 -0.23410763426E+02  0.54367094384E+02  0.40000023267E+02 0.  0.
        -12    1    3    3    0    0  0.26517113183E+02 -0.10225358411E+02  0.23410763426E+02  0.36820905616E+02  0.00000000000E+00 0.  1.
         11    1    4    4    0    0  0.29245161167E+01 -0.23991717920E+01  0.90426755210E-02  0.37827109109E+01  0.51100000000E-03 0. -1.
        -11    1    4    4    0    0  0.15648115899E+01  0.90307084205E+01  0.30485430258E+01  0.96589825929E+01  0.51100000000E-03 0.  1.
         12    1    4    4    0    0 -0.31006440890E+02  0.35938217825E+01 -0.26468349127E+02  0.40925400880E+02  0.00000000000E+00 0. -1.
</event>
<event>
 8    1  0.1238315E-006  0.9118800E+02  0.7816164E-02  0.1184000E+00
        -11   -1    0    0    0    0  0.00000000000E+00  0.00000000000E+00  0.45593999997E+02  0.45594000000E+02  0.51100000000E-03 0. -1.
         11   -1    0    0    0    0 -0.00000000000E+00 -0.00000000000E+00 -0.45593999997E+02  0.45594000000E+02  0.51100000000E-03 0.  1.
         23    2    1    2    0    0  0.00000000000E+00  0.00000000000E+00 -0.35527136788E-14  0.91188000000E+02  0.91188000000E+02 0.  0.
    9900012    2    3    3    0    0 -0.18403283465E+02 -0.17106130221E+02  0.26916151176E+02  0.54367085732E+02  0.40000003542E+02 0.  0.
        -12    1    3    3    0    0  0.18403283465E+02  0.17106130221E+02 -0.26916151176E+02  0.36820914268E+02  0.00000000000E+00 0.  1.
         11    1    4    4    0    0  0.16993981476E+01  0.91701049509E+00  0.59382918456E+01  0.62443712748E+01  0.51100000000E-03 0.  1.
        -11    1    4    4    0    0  0.12010107122E+01 -0.19035653152E+02  0.18636589850E+02  0.26666852067E+02  0.51100000000E-03 0. -1.
         12    1    4    4    0    0 -0.21303692325E+02  0.10125124359E+01  0.23412694801E+01  0.21455862390E+02  0.00000000000E+00 0. -1.
</event>
<event>
 8    1  0.1238315E-006  0.9118800E+02  0.7816164E-02  0.1184000E+00
        -11   -1    0    0    0    0  0.00000000000E+00  0.00000000000E+00  0.45593999997E+02  0.45594000000E+02  0.51100000000E-03 0.  1.
         11   -1    0    0    0    0 -0.00000000000E+00 -0.00000000000E+00 -0.45593999997E+02  0.45594000000E+02  0.51100000000E-03 0. -1.
         23    2    1    2    0    0  0.00000000000E+00  0.00000000000E+00  0.00000000000E+00  0.91188000000E+02  0.91188000000E+02 0.  0.
    9900012    2    3    3    0    0  0.18083738478E+02  0.21732549239E+02  0.23589320089E+02  0.54367064161E+02  0.39999954368E+02 0.  0.
         12    1    3    3    0    0 -0.18083738478E+02 -0.21732549239E+02 -0.23589320089E+02  0.36820935839E+02  0.00000000000E+00 0. -1.
         11    1    4    4    0    0  0.84088016803E+00  0.19963869643E+02  0.16055303708E+02  0.25632712459E+02  0.51100000000E-03 0. -1.
        -11    1    4    4    0    0 -0.37716479997E+01 -0.85011494918E+00  0.64618507258E+01  0.75301752386E+01  0.51100000000E-03 0.  1.
         12    1    4    4    0    0  0.21014506310E+02  0.26187945445E+01  0.10721656561E+01  0.21204176464E+02  0.00000000000E+00 0. -1.
</event>
<event>
 8    1  0.1238315E-006  0.9118800E+02  0.7816164E-02  0.1184000E+00
        -11   -1    0    0    0    0  0.00000000000E+00  0.00000000000E+00  0.45593999997E+02  0.45594000000E+02  0.51100000000E-03 0. -1.
         11   -1    0    0    0    0 -0.00000000000E+00 -0.00000000000E+00 -0.45593999997E+02  0.45594000000E+02  0.51100000000E-03 0.  1.
         23    2    1    2    0    0  0.35527136788E-14 -0.44408920985E-15 -0.71054273576E-14  0.91188000000E+02  0.91188000000E+02 0.  0.
    9900012    2    3    3    0    0  0.15853004003E+02 -0.23876934017E+01  0.33147561953E+02  0.54367086389E+02  0.40000005041E+02 0.  0.
        -12    1    3    3    0    0 -0.15853004003E+02  0.23876934017E+01 -0.33147561953E+02  0.36820913611E+02  0.00000000000E+00 0.  1.
         11    1    4    4    0    0 -0.11930862031E+02 -0.33708957402E+01  0.44546863635E+01  0.13173937822E+02  0.51100000000E-03 0. -1.
        -11    1    4    4    0    0  0.13651859751E+02  0.30505213347E+01  0.82016702799E+01  0.16215620577E+02  0.51100000000E-03 0.  1.
         12    1    4    4    0    0  0.14132006283E+02 -0.20673189963E+01  0.20491205310E+02  0.24977527989E+02  0.00000000000E+00 0. -1.
</event>
<event>
 8    1  0.1238315E-006  0.9118800E+02  0.7816164E-02  0.1184000E+00
        -11   -1    0    0    0    0  0.00000000000E+00  0.00000000000E+00  0.45593999997E+02  0.45594000000E+02  0.51100000000E-03 0. -1.
         11   -1    0    0    0    0 -0.00000000000E+00 -0.00000000000E+00 -0.45593999997E+02  0.45594000000E+02  0.51100000000E-03 0.  1.
         23    2    1    2    0    0  0.00000000000E+00  0.88817841970E-15  0.00000000000E+00  0.91188000000E+02  0.91188000000E+02 0.  0.
    9900012    2    3    3    0    0 -0.19893334846E+02  0.53173323038E+01  0.30524787082E+02  0.54367062742E+02  0.39999951134E+02 0.  0.
        -12    1    3    3    0    0  0.19893334846E+02 -0.53173323038E+01 -0.30524787082E+02  0.36820937258E+02  0.00000000000E+00 0.  1.
         11    1    4    4    0    0 -0.10390194650E+02  0.12558172817E+02  0.38687516005E+01  0.16752047295E+02  0.51100000000E-03 0. -1.
        -11    1    4    4    0    0 -0.53200024009E+01  0.91760105628E+00  0.27850743549E+02  0.28369144043E+02  0.51100000000E-03 0.  1.
         12    1    4    4    0    0 -0.41831377950E+01 -0.81584415695E+01 -0.11947080674E+01  0.92458714042E+01  0.00000000000E+00 0. -1.
</event>
<event>
 8    1  0.1238315E-006  0.9118800E+02  0.7816164E-02  0.1184000E+00
        -11   -1    0    0    0    0  0.00000000000E+00  0.00000000000E+00  0.45593999997E+02  0.45594000000E+02  0.51100000000E-03 0.  1.
         11   -1    0    0    0    0 -0.00000000000E+00 -0.00000000000E+00 -0.45593999997E+02  0.45594000000E+02  0.51100000000E-03 0. -1.
         23    2    1    2    0    0  0.00000000000E+00  0.99920072216E-15  0.00000000000E+00  0.91188000000E+02  0.91188000000E+02 0.  0.
    9900012    2    3    3    0    0 -0.13422417608E+02  0.77950582864E+00 -0.34278430774E+02  0.54367085562E+02  0.40000003155E+02 0.  0.
        -12    1    3    3    0    0  0.13422417608E+02 -0.77950582864E+00  0.34278430774E+02  0.36820914438E+02  0.00000000000E+00 0.  1.
         11    1    4    4    0    0 -0.24531700423E+01  0.59145757344E+01 -0.25717130734E+02  0.26502284106E+02  0.51100000000E-03 0. -1.
        -11    1    4    4    0    0 -0.37201489750E+01  0.63850632007E+01  0.47837294572E+01  0.88029885979E+01  0.51100000000E-03 0.  1.
         12    1    4    4    0    0 -0.72490985902E+01 -0.11520133107E+02 -0.13345029497E+02  0.19061812858E+02  0.00000000000E+00 0. -1.
</event>
<event>
 8    1  0.1238315E-006  0.9118800E+02  0.7816164E-02  0.1184000E+00
        -11   -1    0    0    0    0  0.00000000000E+00  0.00000000000E+00  0.45593999997E+02  0.45594000000E+02  0.51100000000E-03 0.  1.
         11   -1    0    0    0    0 -0.00000000000E+00 -0.00000000000E+00 -0.45593999997E+02  0.45594000000E+02  0.51100000000E-03 0. -1.
         23    2    1    2    0    0  0.35527136788E-14  0.35527136788E-14  0.00000000000E+00  0.91188000000E+02  0.91188000000E+02 0.  0.
    9900012    2    3    3    0    0 -0.26762978537E+02 -0.19304394985E+02  0.16335972582E+02  0.54367072715E+02  0.39999973869E+02 0.  0.
         12    1    3    3    0    0  0.26762978537E+02  0.19304394985E+02 -0.16335972582E+02  0.36820927285E+02  0.00000000000E+00 0. -1.
         11    1    4    4    0    0  0.56026758113E+01 -0.12896963688E+02 -0.51125465736E+01  0.14961944437E+02  0.51100000000E-03 0. -1.
        -11    1    4    4    0    0 -0.24406420924E+02 -0.43420478220E+01  0.16970139988E+02  0.30041844369E+02  0.51100000000E-03 0.  1.
         12    1    4    4    0    0 -0.79592334242E+01 -0.20653834756E+01  0.44783791672E+01  0.93632839093E+01  0.00000000000E+00 0. -1.
</event>
<event>
 8    1  0.1238315E-006  0.9118800E+02  0.7816164E-02  0.1184000E+00
        -11   -1    0    0    0    0  0.00000000000E+00  0.00000000000E+00  0.45593999997E+02  0.45594000000E+02  0.51100000000E-03 0. -1.
         11   -1    0    0    0    0 -0.00000000000E+00 -0.00000000000E+00 -0.45593999997E+02  0.45594000000E+02  0.51100000000E-03 0.  1.
         23    2    1    2    0    0  0.00000000000E+00  0.00000000000E+00  0.00000000000E+00  0.91188000000E+02  0.91188000000E+02 0.  0.
    9900012    2    3    3    0    0  0.78481533561E+01  0.24347863480E+02  0.26483368296E+02  0.54367071665E+02  0.39999971475E+02 0.  0.
        -12    1    3    3    0    0 -0.78481533561E+01 -0.24347863480E+02 -0.26483368296E+02  0.36820928335E+02  0.00000000000E+00 0.  1.
         11    1    4    4    0    0  0.82046341362E+01  0.11071172741E+02  0.93207254928E+01  0.16636189803E+02  0.51100000000E-03 0. -1.
        -11    1    4    4    0    0  0.86326014210E+01  0.12624545964E+02  0.22537823025E+02  0.27237004884E+02  0.51100000000E-03 0.  1.
        -12    1    4    4    0    0 -0.89890822011E+01  0.65214477479E+00 -0.53751802218E+01  0.10493876979E+02  0.00000000000E+00 0.  1.
</event>
<event>
 8    1  0.1238315E-006  0.9118800E+02  0.7816164E-02  0.1184000E+00
        -11   -1    0    0    0    0  0.00000000000E+00  0.00000000000E+00  0.45593999997E+02  0.45594000000E+02  0.51100000000E-03 0. -1.
         11   -1    0    0    0    0 -0.00000000000E+00 -0.00000000000E+00 -0.45593999997E+02  0.45594000000E+02  0.51100000000E-03 0.  1.
         23    2    1    2    0    0  0.00000000000E+00  0.44408920985E-15  0.00000000000E+00  0.91188000000E+02  0.91188000000E+02 0.  0.
    9900012    2    3    3    0    0 -0.35077336736E+02  0.12189713588E+01 -0.11129884746E+02  0.54367085045E+02  0.40000001976E+02 0.  0.
         12    1    3    3    0    0  0.35077336736E+02 -0.12189713588E+01  0.11129884746E+02  0.36820914955E+02  0.00000000000E+00 0. -1.
         11    1    4    4    0    0 -0.78574578324E+01 -0.35280820368E+01  0.88754810507E+01  0.12367747191E+02  0.51100000000E-03 0. -1.
        -11    1    4    4    0    0 -0.84797692451E+01  0.16012558182E+01 -0.21271059846E+02  0.22954923086E+02  0.51100000000E-03 0.  1.
        -12    1    4    4    0    0 -0.18740109659E+02  0.31457975774E+01  0.12656940487E+01  0.19044414768E+02  0.00000000000E+00 0.  1.
</event>
<event>
 8    1  0.1238315E-006  0.9118800E+02  0.7816164E-02  0.1184000E+00
        -11   -1    0    0    0    0  0.00000000000E+00  0.00000000000E+00  0.45593999997E+02  0.45594000000E+02  0.51100000000E-03 0.  1.
         11   -1    0    0    0    0 -0.00000000000E+00 -0.00000000000E+00 -0.45593999997E+02  0.45594000000E+02  0.51100000000E-03 0. -1.
         23    2    1    2    0    0 -0.17763568394E-14  0.00000000000E+00  0.00000000000E+00  0.91188000000E+02  0.91188000000E+02 0.  0.
    9900012    2    3    3    0    0  0.12163551050E+02 -0.22878151142E+02  0.26161366925E+02  0.54367097062E+02  0.40000029372E+02 0.  0.
         12    1    3    3    0    0 -0.12163551050E+02  0.22878151142E+02 -0.26161366925E+02  0.36820902938E+02  0.00000000000E+00 0. -1.
         11    1    4    4    0    0  0.13282232402E+02 -0.22229016611E+02  0.15833790186E+02  0.30352195785E+02  0.51100000000E-03 0. -1.
        -11    1    4    4    0    0 -0.10763355845E+02 -0.39154712373E+01  0.62343409996E+01  0.13040235888E+02  0.51100000000E-03 0.  1.
        -12    1    4    4    0    0  0.96446744935E+01  0.32663367069E+01  0.40932357397E+01  0.10974665389E+02  0.00000000000E+00 0.  1.
</event>
<event>
 8    1  0.1238315E-006  0.9118800E+02  0.7816164E-02  0.1184000E+00
        -11   -1    0    0    0    0  0.00000000000E+00  0.00000000000E+00  0.45593999997E+02  0.45594000000E+02  0.51100000000E-03 0. -1.
         11   -1    0    0    0    0 -0.00000000000E+00 -0.00000000000E+00 -0.45593999997E+02  0.45594000000E+02  0.51100000000E-03 0.  1.
         23    2    1    2    0    0  0.00000000000E+00  0.00000000000E+00 -0.71054273576E-14  0.91188000000E+02  0.91188000000E+02 0.  0.
    9900012    2    3    3    0    0  0.20011384051E+02  0.13410998601E+02 -0.27847246141E+02  0.54367088920E+02  0.40000010812E+02 0.  0.
         12    1    3    3    0    0 -0.20011384051E+02 -0.13410998601E+02  0.27847246141E+02  0.36820911080E+02  0.00000000000E+00 0. -1.
         11    1    4    4    0    0  0.19374597028E+01 -0.94580709799E+01 -0.13268132697E+02  0.16408906188E+02  0.51100000000E-03 0. -1.
        -11    1    4    4    0    0  0.15038957976E+02  0.77211228870E+01 -0.28020634440E+00  0.16907528250E+02  0.51100000000E-03 0.  1.
        -12    1    4    4    0    0  0.30349663714E+01  0.15147946694E+02 -0.14298907100E+02  0.21050654483E+02  0.00000000000E+00 0.  1.
</event>
<event>
 8    1  0.1238315E-006  0.9118800E+02  0.7816164E-02  0.1184000E+00
        -11   -1    0    0    0    0  0.00000000000E+00  0.00000000000E+00  0.45593999997E+02  0.45594000000E+02  0.51100000000E-03 0.  1.
         11   -1    0    0    0    0 -0.00000000000E+00 -0.00000000000E+00 -0.45593999997E+02  0.45594000000E+02  0.51100000000E-03 0. -1.
         23    2    1    2    0    0 -0.71054273576E-14  0.00000000000E+00  0.88817841970E-15  0.91188000000E+02  0.91188000000E+02 0.  0.
    9900012    2    3    3    0    0  0.24982263816E+02  0.26794769545E+02  0.37023966767E+01  0.54367069519E+02  0.39999966583E+02 0.  0.
         12    1    3    3    0    0 -0.24982263816E+02 -0.26794769545E+02 -0.37023966767E+01  0.36820930481E+02  0.00000000000E+00 0. -1.
         11    1    4    4    0    0  0.32751404670E+02  0.22981638086E+02 -0.56437962369E+01  0.40406220229E+02  0.51100000000E-03 0. -1.
        -11    1    4    4    0    0 -0.56684963271E+01  0.37311768582E+01  0.32734400991E+01  0.75345166866E+01  0.51100000000E-03 0.  1.
         12    1    4    4    0    0 -0.21006445269E+01  0.81954600408E-01  0.60727528145E+01  0.64263326035E+01  0.00000000000E+00 0. -1.
</event>
<event>
 8    1  0.1238315E-006  0.9118800E+02  0.7816164E-02  0.1184000E+00
        -11   -1    0    0    0    0  0.00000000000E+00  0.00000000000E+00  0.45593999997E+02  0.45594000000E+02  0.51100000000E-03 0. -1.
         11   -1    0    0    0    0 -0.00000000000E+00 -0.00000000000E+00 -0.45593999997E+02  0.45594000000E+02  0.51100000000E-03 0.  1.
         23    2    1    2    0    0  0.44408920985E-15  0.00000000000E+00  0.00000000000E+00  0.91188000000E+02  0.91188000000E+02 0.  0.
    9900012    2    3    3    0    0 -0.36679888325E+01  0.94834473147E+01  0.35389125946E+02  0.54367079991E+02  0.39999990456E+02 0.  0.
        -12    1    3    3    0    0  0.36679888325E+01 -0.94834473147E+01 -0.35389125946E+02  0.36820920009E+02  0.00000000000E+00 0.  1.
         11    1    4    4    0    0 -0.15368172346E+01 -0.95624426560E+00  0.90980537757E+01  0.92763566703E+01  0.51100000000E-03 0. -1.
        -11    1    4    4    0    0 -0.39820433105E+01 -0.12599160876E+02  0.12423159311E+02  0.18136438770E+02  0.51100000000E-03 0.  1.
         12    1    4    4    0    0  0.18508717126E+01  0.23038852456E+02  0.13867912859E+02  0.26954284551E+02  0.00000000000E+00 0. -1.
</event>
<event>
 8    1  0.1238315E-006  0.9118800E+02  0.7816164E-02  0.1184000E+00
        -11   -1    0    0    0    0  0.00000000000E+00  0.00000000000E+00  0.45593999997E+02  0.45594000000E+02  0.51100000000E-03 0. -1.
         11   -1    0    0    0    0 -0.00000000000E+00 -0.00000000000E+00 -0.45593999997E+02  0.45594000000E+02  0.51100000000E-03 0.  1.
         23    2    1    2    0    0 -0.17763568394E-14  0.00000000000E+00  0.00000000000E+00  0.91188000000E+02  0.91188000000E+02 0.  0.
    9900012    2    3    3    0    0  0.79430778080E+01  0.12238237036E+02  0.33806990056E+02  0.54367088721E+02  0.40000010357E+02 0.  0.
        -12    1    3    3    0    0 -0.79430778080E+01 -0.12238237036E+02 -0.33806990056E+02  0.36820911279E+02  0.00000000000E+00 0.  1.
         11    1    4    4    0    0 -0.10895722590E+02 -0.30108348585E+01  0.21714753021E+02  0.24480857753E+02  0.51100000000E-03 0. -1.
        -11    1    4    4    0    0  0.15448625210E+02  0.95258230297E+01  0.14049917881E+02  0.22952157153E+02  0.51100000000E-03 0.  1.
         12    1    4    4    0    0  0.33901751882E+01  0.57232488644E+01 -0.19576808459E+01  0.69340738145E+01  0.00000000000E+00 0. -1.
</event>
<event>
 8    1  0.1238315E-006  0.9118800E+02  0.7816164E-02  0.1184000E+00
        -11   -1    0    0    0    0  0.00000000000E+00  0.00000000000E+00  0.45593999997E+02  0.45594000000E+02  0.51100000000E-03 0.  1.
         11   -1    0    0    0    0 -0.00000000000E+00 -0.00000000000E+00 -0.45593999997E+02  0.45594000000E+02  0.51100000000E-03 0. -1.
         23    2    1    2    0    0  0.00000000000E+00  0.00000000000E+00  0.00000000000E+00  0.91188000000E+02  0.91188000000E+02 0.  0.
    9900012    2    3    3    0    0  0.85773278128E+01  0.21098881993E+02 -0.28931750114E+02  0.54367088300E+02  0.40000009398E+02 0.  0.
        -12    1    3    3    0    0 -0.85773278128E+01 -0.21098881993E+02  0.28931750114E+02  0.36820911700E+02  0.00000000000E+00 0.  1.
         11    1    4    4    0    0  0.64181500708E+01  0.68412188757E+01 -0.35281207519E+01  0.10022103688E+02  0.51100000000E-03 0. -1.
        -11    1    4    4    0    0  0.11080432048E+02 -0.51910360091E+01 -0.16038976930E+01  0.12340798892E+02  0.51100000000E-03 0.  1.
        -12    1    4    4    0    0 -0.89212543061E+01  0.19448699126E+02 -0.23799731669E+02  0.32004185720E+02  0.00000000000E+00 0.  1.
</event>
<event>
 8    1  0.1238315E-006  0.9118800E+02  0.7816164E-02  0.1184000E+00
        -11   -1    0    0    0    0  0.00000000000E+00  0.00000000000E+00  0.45593999997E+02  0.45594000000E+02  0.51100000000E-03 0. -1.
         11   -1    0    0    0    0 -0.00000000000E+00 -0.00000000000E+00 -0.45593999997E+02  0.45594000000E+02  0.51100000000E-03 0.  1.
         23    2    1    2    0    0 -0.35527136788E-14 -0.88817841970E-15  0.00000000000E+00  0.91188000000E+02  0.91188000000E+02 0.  0.
    9900012    2    3    3    0    0  0.23488749121E+02  0.46344075769E+01 -0.27974641955E+02  0.54367086631E+02  0.40000005592E+02 0.  0.
         12    1    3    3    0    0 -0.23488749121E+02 -0.46344075769E+01  0.27974641955E+02  0.36820913369E+02  0.00000000000E+00 0. -1.
         11    1    4    4    0    0  0.14382055565E+02  0.14953535950E+01  0.94481566129E+00  0.14490420337E+02  0.51100000000E-03 0. -1.
        -11    1    4    4    0    0  0.53435577595E+01  0.14294328949E+02 -0.12812877343E+02  0.19926145531E+02  0.51100000000E-03 0.  1.
        -12    1    4    4    0    0  0.37631357964E+01 -0.11155274967E+02 -0.16106580273E+02  0.19950520763E+02  0.00000000000E+00 0.  1.
</event>
<event>
 8    1  0.1238315E-006  0.9118800E+02  0.7816164E-02  0.1184000E+00
        -11   -1    0    0    0    0  0.00000000000E+00  0.00000000000E+00  0.45593999997E+02  0.45594000000E+02  0.51100000000E-03 0.  1.
         11   -1    0    0    0    0 -0.00000000000E+00 -0.00000000000E+00 -0.45593999997E+02  0.45594000000E+02  0.51100000000E-03 0. -1.
         23    2    1    2    0    0 -0.17763568394E-14  0.17763568394E-14  0.71054273576E-14  0.91188000000E+02  0.91188000000E+02 0.  0.
    9900012    2    3    3    0    0 -0.14983090771E+02  0.83592328211E+01  0.32579309897E+02  0.54367065523E+02  0.39999957473E+02 0.  0.
         12    1    3    3    0    0  0.14983090771E+02 -0.83592328211E+01 -0.32579309897E+02  0.36820934477E+02  0.00000000000E+00 0. -1.
         11    1    4    4    0    0  0.86272985720E+01 -0.20728350632E+00  0.11763298490E+02  0.14589326192E+02  0.51100000000E-03 0. -1.
        -11    1    4    4    0    0 -0.22519491555E+02 -0.26040598014E+01  0.13670016268E+02  0.26472211324E+02  0.51100000000E-03 0.  1.
        -12    1    4    4    0    0 -0.10908977874E+01  0.11170576129E+02  0.71459951386E+01  0.13305528007E+02  0.00000000000E+00 0.  1.
</event>
<event>
 8    1  0.1238315E-006  0.9118800E+02  0.7816164E-02  0.1184000E+00
        -11   -1    0    0    0    0  0.00000000000E+00  0.00000000000E+00  0.45593999997E+02  0.45594000000E+02  0.51100000000E-03 0. -1.
         11   -1    0    0    0    0 -0.00000000000E+00 -0.00000000000E+00 -0.45593999997E+02  0.45594000000E+02  0.51100000000E-03 0.  1.
         23    2    1    2    0    0  0.00000000000E+00  0.35527136788E-14  0.00000000000E+00  0.91188000000E+02  0.91188000000E+02 0.  0.
    9900012    2    3    3    0    0  0.28299637508E+02  0.22637910676E+02 -0.65142069878E+01  0.54367090512E+02  0.40000014441E+02 0.  0.
         12    1    3    3    0    0 -0.28299637508E+02 -0.22637910676E+02  0.65142069878E+01  0.36820909488E+02  0.00000000000E+00 0. -1.
         11    1    4    4    0    0  0.16968965063E+02 -0.14838091818E+00  0.62475561699E+01  0.18083134423E+02  0.51100000000E-03 0. -1.
        -11    1    4    4    0    0  0.11804669992E+02  0.26584489387E+02 -0.13972425677E+02  0.32269397099E+02  0.51100000000E-03 0.  1.
         12    1    4    4    0    0 -0.47399754789E+00 -0.37981977928E+01  0.12106625191E+01  0.40145589900E+01  0.00000000000E+00 0. -1.
</event>
<event>
 8    1  0.1238315E-006  0.9118800E+02  0.7816164E-02  0.1184000E+00
        -11   -1    0    0    0    0  0.00000000000E+00  0.00000000000E+00  0.45593999997E+02  0.45594000000E+02  0.51100000000E-03 0.  1.
         11   -1    0    0    0    0 -0.00000000000E+00 -0.00000000000E+00 -0.45593999997E+02  0.45594000000E+02  0.51100000000E-03 0. -1.
         23    2    1    2    0    0  0.00000000000E+00  0.00000000000E+00  0.00000000000E+00  0.91188000000E+02  0.91188000000E+02 0.  0.
    9900012    2    3    3    0    0 -0.91193575841E+01 -0.33937024293E+02  0.10995259663E+02  0.54367081547E+02  0.39999994004E+02 0.  0.
         12    1    3    3    0    0  0.91193575841E+01  0.33937024293E+02 -0.10995259663E+02  0.36820918453E+02  0.00000000000E+00 0. -1.
         11    1    4    4    0    0 -0.59510969490E+01 -0.99086362210E+01 -0.19863124457E+01  0.11727832880E+02  0.51100000000E-03 0. -1.
        -11    1    4    4    0    0 -0.91823540559E+01  0.52901908355E+01  0.21691258019E+01  0.10816970560E+02  0.51100000000E-03 0.  1.
         12    1    4    4    0    0  0.60140934209E+01 -0.29318578908E+02  0.10812446307E+02  0.31822278108E+02  0.00000000000E+00 0. -1.
</event>
<event>
 8    1  0.1238315E-006  0.9118800E+02  0.7816164E-02  0.1184000E+00
        -11   -1    0    0    0    0  0.00000000000E+00  0.00000000000E+00  0.45593999997E+02  0.45594000000E+02  0.51100000000E-03 0. -1.
         11   -1    0    0    0    0 -0.00000000000E+00 -0.00000000000E+00 -0.45593999997E+02  0.45594000000E+02  0.51100000000E-03 0.  1.
         23    2    1    2    0    0  0.00000000000E+00  0.00000000000E+00  0.17763568394E-14  0.91188000000E+02  0.91188000000E+02 0.  0.
    9900012    2    3    3    0    0  0.23202561898E+02 -0.24056924151E+02 -0.15449429946E+02  0.54367090670E+02  0.40000014801E+02 0.  0.
         12    1    3    3    0    0 -0.23202561898E+02  0.24056924151E+02  0.15449429946E+02  0.36820909330E+02  0.00000000000E+00 0. -1.
         11    1    4    4    0    0  0.16756951995E+02 -0.35297484512E+01  0.36361346740E+01  0.17506457092E+02  0.51100000000E-03 0. -1.
        -11    1    4    4    0    0  0.57506708089E+01 -0.36175539639E-01 -0.14850391480E+02  0.15925000809E+02  0.51100000000E-03 0.  1.
        -12    1    4    4    0    0  0.69493909431E+00 -0.20491000160E+02 -0.42351731403E+01  0.20935632769E+02  0.00000000000E+00 0.  1.
</event>
<event>
 8    1  0.1238315E-006  0.9118800E+02  0.7816164E-02  0.1184000E+00
        -11   -1    0    0    0    0  0.00000000000E+00  0.00000000000E+00  0.45593999997E+02  0.45594000000E+02  0.51100000000E-03 0.  1.
         11   -1    0    0    0    0 -0.00000000000E+00 -0.00000000000E+00 -0.45593999997E+02  0.45594000000E+02  0.51100000000E-03 0. -1.
         23    2    1    2    0    0  0.00000000000E+00  0.00000000000E+00  0.00000000000E+00  0.91188000000E+02  0.91188000000E+02 0.  0.
    9900012    2    3    3    0    0 -0.11164632792E+02 -0.19661802698E+02 -0.29061061788E+02  0.54367070857E+02  0.39999969633E+02 0.  0.
        -12    1    3    3    0    0  0.11164632792E+02  0.19661802698E+02  0.29061061788E+02  0.36820929143E+02  0.00000000000E+00 0.  1.
         11    1    4    4    0    0 -0.28280353929E+01  0.65118322757E+01 -0.25559506055E+02  0.26527157665E+02  0.51100000000E-03 0. -1.
        -11    1    4    4    0    0 -0.66770608919E+01 -0.18613646905E+02 -0.14254481697E+01  0.19826318267E+02  0.51100000000E-03 0.  1.
         12    1    4    4    0    0 -0.16595365073E+01 -0.75599880680E+01 -0.20761075636E+01  0.80135949250E+01  0.00000000000E+00 0. -1.
</event>
<event>
 8    1  0.1238315E-006  0.9118800E+02  0.7816164E-02  0.1184000E+00
        -11   -1    0    0    0    0  0.00000000000E+00  0.00000000000E+00  0.45593999997E+02  0.45594000000E+02  0.51100000000E-03 0. -1.
         11   -1    0    0    0    0 -0.00000000000E+00 -0.00000000000E+00 -0.45593999997E+02  0.45594000000E+02  0.51100000000E-03 0.  1.
         23    2    1    2    0    0 -0.35527136788E-14  0.17763568394E-14 -0.71054273576E-14  0.91188000000E+02  0.91188000000E+02 0.  0.
    9900012    2    3    3    0    0  0.17936761798E+02  0.14389875894E+02  0.28757311607E+02  0.54367096657E+02  0.40000028450E+02 0.  0.
        -12    1    3    3    0    0 -0.17936761798E+02 -0.14389875894E+02 -0.28757311607E+02  0.36820903343E+02  0.00000000000E+00 0.  1.
         11    1    4    4    0    0  0.10238193961E+02  0.17218477046E+02 -0.53041936111E+00  0.20039408981E+02  0.51100000000E-03 0. -1.
        -11    1    4    4    0    0  0.60454824942E+01 -0.11611720296E+01  0.13638390178E+01  0.63052546497E+01  0.51100000000E-03 0.  1.
        -12    1    4    4    0    0  0.16530853435E+01 -0.16674291221E+01  0.27923891951E+02  0.28022433026E+02  0.00000000000E+00 0.  1.
</event>
<event>
 8    1  0.1238315E-006  0.9118800E+02  0.7816164E-02  0.1184000E+00
        -11   -1    0    0    0    0  0.00000000000E+00  0.00000000000E+00  0.45593999997E+02  0.45594000000E+02  0.51100000000E-03 0. -1.
         11   -1    0    0    0    0 -0.00000000000E+00 -0.00000000000E+00 -0.45593999997E+02  0.45594000000E+02  0.51100000000E-03 0.  1.
         23    2    1    2    0    0  0.00000000000E+00 -0.26645352591E-14  0.00000000000E+00  0.91188000000E+02  0.91188000000E+02 0.  0.
    9900012    2    3    3    0    0 -0.32715246297E+02 -0.34212556632E+01 -0.16546463186E+02  0.54367112252E+02  0.40000064001E+02 0.  0.
         12    1    3    3    0    0  0.32715246297E+02  0.34212556632E+01  0.16546463186E+02  0.36820887748E+02  0.00000000000E+00 0. -1.
         11    1    4    4    0    0 -0.78586265794E+01  0.68540787949E+01 -0.20980520701E+02  0.23429013146E+02  0.51100000000E-03 0. -1.
        -11    1    4    4    0    0 -0.13011236729E+02 -0.31271063649E+01  0.92735744204E+01  0.16280978417E+02  0.51100000000E-03 0.  1.
         12    1    4    4    0    0 -0.11845382989E+02 -0.71482280932E+01 -0.48395169054E+01  0.14657120690E+02  0.00000000000E+00 0. -1.
</event>
<event>
 8    1  0.1238315E-006  0.9118800E+02  0.7816164E-02  0.1184000E+00
        -11   -1    0    0    0    0  0.00000000000E+00  0.00000000000E+00  0.45593999997E+02  0.45594000000E+02  0.51100000000E-03 0.  1.
         11   -1    0    0    0    0 -0.00000000000E+00 -0.00000000000E+00 -0.45593999997E+02  0.45594000000E+02  0.51100000000E-03 0. -1.
         23    2    1    2    0    0 -0.35527136788E-14  0.00000000000E+00 -0.17763568394E-14  0.91188000000E+02  0.91188000000E+02 0.  0.
    9900012    2    3    3    0    0  0.28599528906E+02 -0.20685109084E+02  0.10486791388E+02  0.54367087667E+02  0.40000007954E+02 0.  0.
         12    1    3    3    0    0 -0.28599528906E+02  0.20685109084E+02 -0.10486791388E+02  0.36820912333E+02  0.00000000000E+00 0. -1.
         11    1    4    4    0    0  0.14582873596E+01 -0.74368737726E+01 -0.11142942840E+02  0.13475862456E+02  0.51100000000E-03 0. -1.
        -11    1    4    4    0    0  0.26705514947E+02 -0.75400943697E+01  0.13270079368E+02  0.30759267845E+02  0.51100000000E-03 0.  1.
         12    1    4    4    0    0  0.43572659886E+00 -0.57081409419E+01  0.83596548596E+01  0.10131957365E+02  0.00000000000E+00 0. -1.
</event>
<event>
 8    1  0.1238315E-006  0.9118800E+02  0.7816164E-02  0.1184000E+00
        -11   -1    0    0    0    0  0.00000000000E+00  0.00000000000E+00  0.45593999997E+02  0.45594000000E+02  0.51100000000E-03 0.  1.
         11   -1    0    0    0    0 -0.00000000000E+00 -0.00000000000E+00 -0.45593999997E+02  0.45594000000E+02  0.51100000000E-03 0. -1.
         23    2    1    2    0    0  0.00000000000E+00  0.17763568394E-14 -0.17763568394E-14  0.91188000000E+02  0.91188000000E+02 0.  0.
    9900012    2    3    3    0    0 -0.32079697334E+02 -0.10634941952E+02  0.14614056720E+02  0.54367087122E+02  0.40000006711E+02 0.  0.
        -12    1    3    3    0    0  0.32079697334E+02  0.10634941952E+02 -0.14614056720E+02  0.36820912878E+02  0.00000000000E+00 0.  1.
         11    1    4    4    0    0 -0.83320985993E+01 -0.98323117916E+01 -0.39508809458E+01  0.13479899211E+02  0.51100000000E-03 0. -1.
        -11    1    4    4    0    0 -0.19189442267E+02 -0.13076104151E+02  0.13419673228E+02  0.26819896049E+02  0.51100000000E-03 0.  1.
        -12    1    4    4    0    0 -0.45581564676E+01  0.12273473990E+02  0.51452644380E+01  0.14067291861E+02  0.00000000000E+00 0.  1.
</event>
<event>
 8    1  0.1238315E-006  0.9118800E+02  0.7816164E-02  0.1184000E+00
        -11   -1    0    0    0    0  0.00000000000E+00  0.00000000000E+00  0.45593999997E+02  0.45594000000E+02  0.51100000000E-03 0.  1.
         11   -1    0    0    0    0 -0.00000000000E+00 -0.00000000000E+00 -0.45593999997E+02  0.45594000000E+02  0.51100000000E-03 0. -1.
         23    2    1    2    0    0  0.00000000000E+00  0.00000000000E+00  0.00000000000E+00  0.91188000000E+02  0.91188000000E+02 0.  0.
    9900012    2    3    3    0    0  0.27181742781E+02  0.23101185522E+02 -0.91251421346E+01  0.54367080238E+02  0.39999991019E+02 0.  0.
        -12    1    3    3    0    0 -0.27181742781E+02 -0.23101185522E+02  0.91251421346E+01  0.36820919762E+02  0.00000000000E+00 0.  1.
         11    1    4    4    0    0 -0.25559458486E+00  0.14485522360E+02 -0.11633012117E+02  0.18580168401E+02  0.51100000000E-03 0. -1.
        -11    1    4    4    0    0  0.10267846648E+02 -0.26086978463E+01  0.93837324799E+01  0.14152328951E+02  0.51100000000E-03 0.  1.
        -12    1    4    4    0    0  0.17169490718E+02  0.11224361008E+02 -0.68758624972E+01  0.21634582886E+02  0.00000000000E+00 0.  1.
</event>
<event>
 8    1  0.1238315E-006  0.9118800E+02  0.7816164E-02  0.1184000E+00
        -11   -1    0    0    0    0  0.00000000000E+00  0.00000000000E+00  0.45593999997E+02  0.45594000000E+02  0.51100000000E-03 0. -1.
         11   -1    0    0    0    0 -0.00000000000E+00 -0.00000000000E+00 -0.45593999997E+02  0.45594000000E+02  0.51100000000E-03 0.  1.
         23    2    1    2    0    0  0.00000000000E+00 -0.88817841970E-15  0.00000000000E+00  0.91188000000E+02  0.91188000000E+02 0.  0.
    9900012    2    3    3    0    0  0.25963267636E+02 -0.48034984693E+01 -0.25663524678E+02  0.54367063527E+02  0.39999952922E+02 0.  0.
         12    1    3    3    0    0 -0.25963267636E+02  0.48034984693E+01  0.25663524678E+02  0.36820936473E+02  0.00000000000E+00 0. -1.
         11    1    4    4    0    0  0.17107855711E+02  0.20067772902E+01 -0.12959428606E+02  0.21555803677E+02  0.51100000000E-03 0. -1.
        -11    1    4    4    0    0 -0.46900088566E+01  0.44030888516E+01  0.47795206627E+01  0.80141869541E+01  0.51100000000E-03 0.  1.
        -12    1    4    4    0    0  0.13545420782E+02 -0.11213364611E+02 -0.17483616735E+02  0.24797072896E+02  0.00000000000E+00 0.  1.
</event>
<event>
 8    1  0.1238315E-006  0.9118800E+02  0.7816164E-02  0.1184000E+00
        -11   -1    0    0    0    0  0.00000000000E+00  0.00000000000E+00  0.45593999997E+02  0.45594000000E+02  0.51100000000E-03 0.  1.
         11   -1    0    0    0    0 -0.00000000000E+00 -0.00000000000E+00 -0.45593999997E+02  0.45594000000E+02  0.51100000000E-03 0. -1.
         23    2    1    2    0    0 -0.35527136788E-14 -0.35527136788E-14  0.35527136788E-14  0.91188000000E+02  0.91188000000E+02 0.  0.
    9900012    2    3    3    0    0  0.24783470846E+02  0.72948857431E+01 -0.26236301402E+02  0.54367091586E+02  0.40000016889E+02 0.  0.
        -12    1    3    3    0    0 -0.24783470846E+02 -0.72948857431E+01  0.26236301402E+02  0.36820908414E+02  0.00000000000E+00 0.  1.
         11    1    4    4    0    0  0.32339656599E+00  0.10740589587E+02 -0.12372074584E+02  0.16386978971E+02  0.51100000000E-03 0. -1.
        -11    1    4    4    0    0  0.20603574898E+02  0.17222063727E+01  0.20814950856E+01  0.20779940217E+02  0.51100000000E-03 0.  1.
        -12    1    4    4    0    0  0.38564993817E+01 -0.51679102169E+01 -0.15945721903E+02  0.17200172398E+02  0.00000000000E+00 0.  1.
</event>
<event>
 8    1  0.1238315E-006  0.9118800E+02  0.7816164E-02  0.1184000E+00
        -11   -1    0    0    0    0  0.00000000000E+00  0.00000000000E+00  0.45593999997E+02  0.45594000000E+02  0.51100000000E-03 0.  1.
         11   -1    0    0    0    0 -0.00000000000E+00 -0.00000000000E+00 -0.45593999997E+02  0.45594000000E+02  0.51100000000E-03 0. -1.
         23    2    1    2    0    0  0.00000000000E+00  0.00000000000E+00  0.35527136788E-14  0.91188000000E+02  0.91188000000E+02 0.  0.
    9900012    2    3    3    0    0 -0.31992050081E+02 -0.91400484252E+01  0.15771739769E+02  0.54367088429E+02  0.40000009692E+02 0.  0.
         12    1    3    3    0    0  0.31992050081E+02  0.91400484252E+01 -0.15771739769E+02  0.36820911571E+02  0.00000000000E+00 0. -1.
         11    1    4    4    0    0 -0.24868171818E+00  0.11057981528E+02  0.39708357256E-01  0.11060848750E+02  0.51100000000E-03 0. -1.
        -11    1    4    4    0    0 -0.22555770188E+02 -0.15812619424E+02  0.41024908829E+01  0.27850172953E+02  0.51100000000E-03 0.  1.
        -12    1    4    4    0    0 -0.91875981748E+01 -0.43854105292E+01  0.11629540529E+02  0.15456066726E+02  0.00000000000E+00 0.  1.
</event>
<event>
 8    1  0.1238315E-006  0.9118800E+02  0.7816164E-02  0.1184000E+00
        -11   -1    0    0    0    0  0.00000000000E+00  0.00000000000E+00  0.45593999997E+02  0.45594000000E+02  0.51100000000E-03 0. -1.
         11   -1    0    0    0    0 -0.00000000000E+00 -0.00000000000E+00 -0.45593999997E+02  0.45594000000E+02  0.51100000000E-03 0.  1.
         23    2    1    2    0    0  0.00000000000E+00  0.00000000000E+00  0.00000000000E+00  0.91188000000E+02  0.91188000000E+02 0.  0.
    9900012    2    3    3    0    0  0.11830795855E+02  0.11058955021E+02 -0.33068344810E+02  0.54367032533E+02  0.39999882265E+02 0.  0.
         12    1    3    3    0    0 -0.11830795855E+02 -0.11058955021E+02  0.33068344810E+02  0.36820967467E+02  0.00000000000E+00 0. -1.
         11    1    4    4    0    0 -0.37269112734E+01  0.12370776714E+01 -0.39026999005E+00  0.39462057386E+01  0.51100000000E-03 0. -1.
        -11    1    4    4    0    0  0.29051344063E+00  0.99598865854E+01 -0.33677222939E+02  0.35120351422E+02  0.51100000000E-03 0.  1.
        -12    1    4    4    0    0  0.15267193688E+02 -0.13800923626E+00  0.99914811826E+00  0.15300475373E+02  0.00000000000E+00 0.  1.
</event>
<event>
 8    1  0.1238315E-006  0.9118800E+02  0.7816164E-02  0.1184000E+00
        -11   -1    0    0    0    0  0.00000000000E+00  0.00000000000E+00  0.45593999997E+02  0.45594000000E+02  0.51100000000E-03 0.  1.
         11   -1    0    0    0    0 -0.00000000000E+00 -0.00000000000E+00 -0.45593999997E+02  0.45594000000E+02  0.51100000000E-03 0. -1.
         23    2    1    2    0    0  0.35527136788E-14  0.17763568394E-14  0.00000000000E+00  0.91188000000E+02  0.91188000000E+02 0.  0.
    9900012    2    3    3    0    0 -0.28108909944E+02 -0.10580601741E+02  0.21300719640E+02  0.54367073768E+02  0.39999976269E+02 0.  0.
         12    1    3    3    0    0  0.28108909944E+02  0.10580601741E+02 -0.21300719640E+02  0.36820926232E+02  0.00000000000E+00 0. -1.
         11    1    4    4    0    0 -0.18683877773E+02  0.17689433496E+01 -0.50456500565E+01  0.19433863074E+02  0.51100000000E-03 0. -1.
        -11    1    4    4    0    0 -0.13468733805E+02 -0.10661242141E+02  0.15128101562E+02  0.22889480803E+02  0.51100000000E-03 0.  1.
        -12    1    4    4    0    0  0.40437016347E+01 -0.16883029494E+01  0.11218268134E+02  0.12043729891E+02  0.00000000000E+00 0.  1.
</event>
<event>
 8    1  0.1238315E-006  0.9118800E+02  0.7816164E-02  0.1184000E+00
        -11   -1    0    0    0    0  0.00000000000E+00  0.00000000000E+00  0.45593999997E+02  0.45594000000E+02  0.51100000000E-03 0. -1.
         11   -1    0    0    0    0 -0.00000000000E+00 -0.00000000000E+00 -0.45593999997E+02  0.45594000000E+02  0.51100000000E-03 0.  1.
         23    2    1    2    0    0  0.00000000000E+00  0.00000000000E+00  0.00000000000E+00  0.91188000000E+02  0.91188000000E+02 0.  0.
    9900012    2    3    3    0    0 -0.62612983673E+01  0.32006223111E+02  0.17093157912E+02  0.54367106169E+02  0.40000050134E+02 0.  0.
        -12    1    3    3    0    0  0.62612983673E+01 -0.32006223111E+02 -0.17093157912E+02  0.36820893831E+02  0.00000000000E+00 0.  1.
         11    1    4    4    0    0 -0.11635872056E+02  0.20116212152E+02  0.15885652192E+02  0.28149768306E+02  0.51100000000E-03 0. -1.
        -11    1    4    4    0    0 -0.75388224711E+01 -0.93980639371E+00  0.24210986882E+01  0.79736315082E+01  0.51100000000E-03 0.  1.
        -12    1    4    4    0    0  0.12913396160E+02  0.12829817353E+02 -0.12135929679E+01  0.18243706356E+02  0.00000000000E+00 0.  1.
</event>
<event>
 8    1  0.1238315E-006  0.9118800E+02  0.7816164E-02  0.1184000E+00
        -11   -1    0    0    0    0  0.00000000000E+00  0.00000000000E+00  0.45593999997E+02  0.45594000000E+02  0.51100000000E-03 0. -1.
         11   -1    0    0    0    0 -0.00000000000E+00 -0.00000000000E+00 -0.45593999997E+02  0.45594000000E+02  0.51100000000E-03 0.  1.
         23    2    1    2    0    0  0.71054273576E-14 -0.71054273576E-14  0.00000000000E+00  0.91188000000E+02  0.91188000000E+02 0.  0.
    9900012    2    3    3    0    0 -0.24929398585E+02  0.22485318105E+02  0.15123360204E+02  0.54367075678E+02  0.39999980623E+02 0.  0.
        -12    1    3    3    0    0  0.24929398585E+02 -0.22485318105E+02 -0.15123360204E+02  0.36820924322E+02  0.00000000000E+00 0.  1.
         11    1    4    4    0    0 -0.27859401414E+01  0.58510328635E+01  0.58456271334E+01  0.87273939343E+01  0.51100000000E-03 0. -1.
        -11    1    4    4    0    0 -0.90582968128E+01 -0.19244990446E+00  0.19869291003E+02  0.21837548016E+02  0.51100000000E-03 0.  1.
         12    1    4    4    0    0 -0.13085161630E+02  0.16826735146E+02 -0.10591557933E+02  0.23802133728E+02  0.00000000000E+00 0. -1.
</event>
<event>
 8    1  0.1238315E-006  0.9118800E+02  0.7816164E-02  0.1184000E+00
        -11   -1    0    0    0    0  0.00000000000E+00  0.00000000000E+00  0.45593999997E+02  0.45594000000E+02  0.51100000000E-03 0. -1.
         11   -1    0    0    0    0 -0.00000000000E+00 -0.00000000000E+00 -0.45593999997E+02  0.45594000000E+02  0.51100000000E-03 0.  1.
         23    2    1    2    0    0 -0.17763568394E-14  0.00000000000E+00  0.00000000000E+00  0.91188000000E+02  0.91188000000E+02 0.  0.
    9900012    2    3    3    0    0  0.88669448371E+01  0.10368882813E+02  0.34200053489E+02  0.54367080672E+02  0.39999992008E+02 0.  0.
        -12    1    3    3    0    0 -0.88669448371E+01 -0.10368882813E+02 -0.34200053489E+02  0.36820919328E+02  0.00000000000E+00 0.  1.
         11    1    4    4    0    0  0.35467148849E+01 -0.14344240395E-01  0.69085508072E+01  0.77657882246E+01  0.51100000000E-03 0. -1.
        -11    1    4    4    0    0  0.20240447086E+01  0.11623463689E+02 -0.59222720000E+01  0.13201324593E+02  0.51100000000E-03 0.  1.
        -12    1    4    4    0    0  0.32961852436E+01 -0.12402366362E+01  0.33213774681E+02  0.33399967854E+02  0.00000000000E+00 0.  1.
</event>
<event>
 8    1  0.1238315E-006  0.9118800E+02  0.7816164E-02  0.1184000E+00
        -11   -1    0    0    0    0  0.00000000000E+00  0.00000000000E+00  0.45593999997E+02  0.45594000000E+02  0.51100000000E-03 0.  1.
         11   -1    0    0    0    0 -0.00000000000E+00 -0.00000000000E+00 -0.45593999997E+02  0.45594000000E+02  0.51100000000E-03 0. -1.
         23    2    1    2    0    0  0.00000000000E+00  0.44408920985E-15  0.35527136788E-14  0.91188000000E+02  0.91188000000E+02 0.  0.
    9900012    2    3    3    0    0  0.28882421236E+02 -0.38971226465E+01 -0.22503289141E+02  0.54367084157E+02  0.39999999952E+02 0.  0.
        -12    1    3    3    0    0 -0.28882421236E+02  0.38971226465E+01  0.22503289141E+02  0.36820915843E+02  0.00000000000E+00 0.  1.
         11    1    4    4    0    0  0.18143428510E+02  0.44488098207E+01  0.19687380698E+01  0.18784350847E+02  0.51100000000E-03 0. -1.
        -11    1    4    4    0    0 -0.53522133602E+01 -0.37443818913E+01 -0.78396159606E+00  0.65788433365E+01  0.51100000000E-03 0.  1.
        -12    1    4    4    0    0  0.16091206087E+02 -0.46015505759E+01 -0.23688065614E+02  0.29003889973E+02  0.00000000000E+00 0.  1.
</event>
<event>
 8    1  0.1238315E-006  0.9118800E+02  0.7816164E-02  0.1184000E+00
        -11   -1    0    0    0    0  0.00000000000E+00  0.00000000000E+00  0.45593999997E+02  0.45594000000E+02  0.51100000000E-03 0.  1.
         11   -1    0    0    0    0 -0.00000000000E+00 -0.00000000000E+00 -0.45593999997E+02  0.45594000000E+02  0.51100000000E-03 0. -1.
         23    2    1    2    0    0  0.00000000000E+00  0.00000000000E+00 -0.17763568394E-14  0.91188000000E+02  0.91188000000E+02 0.  0.
    9900012    2    3    3    0    0  0.24222660342E+02 -0.26508431524E+02 -0.81453009470E+01  0.54367080085E+02  0.39999990669E+02 0.  0.
        -12    1    3    3    0    0 -0.24222660342E+02  0.26508431524E+02  0.81453009470E+01  0.36820919915E+02  0.00000000000E+00 0.  1.
         11    1    4    4    0    0  0.22189925100E+02 -0.10581890883E+02 -0.85199656071E+01  0.26018435863E+02  0.51100000000E-03 0.  1.
        -11    1    4    4    0    0 -0.21372304485E+01 -0.16931507693E+02  0.85713816803E+01  0.19097441999E+02  0.51100000000E-03 0. -1.
         12    1    4    4    0    0  0.41699656914E+01  0.10049670517E+01 -0.81967170202E+01  0.92512022220E+01  0.00000000000E+00 0. -1.
</event>
<event>
 8    1  0.1238315E-006  0.9118800E+02  0.7816164E-02  0.1184000E+00
        -11   -1    0    0    0    0  0.00000000000E+00  0.00000000000E+00  0.45593999997E+02  0.45594000000E+02  0.51100000000E-03 0. -1.
         11   -1    0    0    0    0 -0.00000000000E+00 -0.00000000000E+00 -0.45593999997E+02  0.45594000000E+02  0.51100000000E-03 0.  1.
         23    2    1    2    0    0 -0.88817841970E-15  0.00000000000E+00  0.35527136788E-14  0.91188000000E+02  0.91188000000E+02 0.  0.
    9900012    2    3    3    0    0 -0.48946304888E+01  0.25773528443E+02 -0.25836999825E+02  0.54367044880E+02  0.39999910413E+02 0.  0.
         12    1    3    3    0    0  0.48946304888E+01 -0.25773528443E+02  0.25836999825E+02  0.36820955120E+02  0.00000000000E+00 0. -1.
         11    1    4    4    0    0 -0.83145980174E+01 -0.55948953609E+00  0.57222858344E+01  0.10108913105E+02  0.51100000000E-03 0. -1.
        -11    1    4    4    0    0 -0.29039756303E+01  0.24160435134E+02 -0.24342477891E+02  0.34419702650E+02  0.51100000000E-03 0.  1.
         12    1    4    4    0    0  0.63239431589E+01  0.21725828445E+01 -0.72168077676E+01  0.98384291250E+01  0.00000000000E+00 0. -1.
</event>
<event>
 8    1  0.1238315E-006  0.9118800E+02  0.7816164E-02  0.1184000E+00
        -11   -1    0    0    0    0  0.00000000000E+00  0.00000000000E+00  0.45593999997E+02  0.45594000000E+02  0.51100000000E-03 0.  1.
         11   -1    0    0    0    0 -0.00000000000E+00 -0.00000000000E+00 -0.45593999997E+02  0.45594000000E+02  0.51100000000E-03 0. -1.
         23    2    1    2    0    0 -0.88817841970E-15  0.35527136788E-14  0.35527136788E-14  0.91188000000E+02  0.91188000000E+02 0.  0.
    9900012    2    3    3    0    0  0.35984503027E+01 -0.20263603030E+02 -0.30532251965E+02  0.54367070321E+02  0.39999968412E+02 0.  0.
        -12    1    3    3    0    0 -0.35984503027E+01  0.20263603030E+02  0.30532251965E+02  0.36820929679E+02  0.00000000000E+00 0.  1.
         11    1    4    4    0    0  0.63266977062E+01  0.31854827285E+01  0.12718596188E+01  0.71966680644E+01  0.51100000000E-03 0. -1.
        -11    1    4    4    0    0 -0.93115835283E+01  0.10999618449E+01 -0.96313963710E+01  0.13441700048E+02  0.51100000000E-03 0.  1.
        -12    1    4    4    0    0  0.65833361249E+01 -0.24549047604E+02 -0.22172715213E+02  0.33728702209E+02  0.00000000000E+00 0.  1.
</event>
<event>
 8    1  0.1238315E-006  0.9118800E+02  0.7816164E-02  0.1184000E+00
        -11   -1    0    0    0    0  0.00000000000E+00  0.00000000000E+00  0.45593999997E+02  0.45594000000E+02  0.51100000000E-03 0. -1.
         11   -1    0    0    0    0 -0.00000000000E+00 -0.00000000000E+00 -0.45593999997E+02  0.45594000000E+02  0.51100000000E-03 0.  1.
         23    2    1    2    0    0 -0.35527136788E-14  0.17763568394E-14  0.00000000000E+00  0.91188000000E+02  0.91188000000E+02 0.  0.
    9900012    2    3    3    0    0 -0.29334723664E+02 -0.12908984992E+02  0.18127653165E+02  0.54367085899E+02  0.40000003925E+02 0.  0.
        -12    1    3    3    0    0  0.29334723664E+02  0.12908984992E+02 -0.18127653165E+02  0.36820914101E+02  0.00000000000E+00 0.  1.
         11    1    4    4    0    0 -0.20276300228E+02 -0.12477994737E+02  0.24586355784E+01  0.23934777892E+02  0.51100000000E-03 0. -1.
        -11    1    4    4    0    0 -0.99965787666E+01  0.67476479829E+01 -0.11557602511E+01  0.12116027499E+02  0.51100000000E-03 0.  1.
        -12    1    4    4    0    0  0.93815533080E+00 -0.71786382381E+01  0.16824777837E+02  0.18316280508E+02  0.00000000000E+00 0.  1.
</event>
<event>
 8    1  0.1238315E-006  0.9118800E+02  0.7816164E-02  0.1184000E+00
        -11   -1    0    0    0    0  0.00000000000E+00  0.00000000000E+00  0.45593999997E+02  0.45594000000E+02  0.51100000000E-03 0.  1.
         11   -1    0    0    0    0 -0.00000000000E+00 -0.00000000000E+00 -0.45593999997E+02  0.45594000000E+02  0.51100000000E-03 0. -1.
         23    2    1    2    0    0 -0.22204460493E-14  0.00000000000E+00  0.00000000000E+00  0.91188000000E+02  0.91188000000E+02 0.  0.
    9900012    2    3    3    0    0 -0.70855154121E+00  0.32067369176E+02 -0.18082112378E+02  0.54367068464E+02  0.39999964177E+02 0.  0.
        -12    1    3    3    0    0  0.70855154121E+00 -0.32067369176E+02  0.18082112378E+02  0.36820931536E+02  0.00000000000E+00 0.  1.
         11    1    4    4    0    0 -0.13940621494E+02  0.89644283118E+01 -0.13080474439E+02  0.21113993331E+02  0.51100000000E-03 0. -1.
        -11    1    4    4    0    0  0.73834162040E+01  0.25911944380E+01 -0.85948116708E+01  0.11623248744E+02  0.51100000000E-03 0.  1.
        -12    1    4    4    0    0  0.58486537487E+01  0.20511746426E+02  0.35931737317E+01  0.21629826388E+02  0.00000000000E+00 0.  1.
</event>
<event>
 8    1  0.1238315E-006  0.9118800E+02  0.7816164E-02  0.1184000E+00
        -11   -1    0    0    0    0  0.00000000000E+00  0.00000000000E+00  0.45593999997E+02  0.45594000000E+02  0.51100000000E-03 0.  1.
         11   -1    0    0    0    0 -0.00000000000E+00 -0.00000000000E+00 -0.45593999997E+02  0.45594000000E+02  0.51100000000E-03 0. -1.
         23    2    1    2    0    0  0.00000000000E+00  0.00000000000E+00  0.00000000000E+00  0.91188000000E+02  0.91188000000E+02 0.  0.
    9900012    2    3    3    0    0  0.75404656968E+01 -0.16405334560E+02 -0.32090277243E+02  0.54367088571E+02  0.40000010015E+02 0.  0.
        -12    1    3    3    0    0 -0.75404656968E+01  0.16405334560E+02  0.32090277243E+02  0.36820911429E+02  0.00000000000E+00 0.  1.
         11    1    4    4    0    0 -0.29833711113E+01  0.36174111266E+01 -0.81316389157E+01  0.93866776957E+01  0.51100000000E-03 0.  1.
        -11    1    4    4    0    0  0.39950971648E+01 -0.12868299930E+02 -0.30465443916E+02  0.33312118181E+02  0.51100000000E-03 0. -1.
        -12    1    4    4    0    0  0.65287396433E+01 -0.71544457573E+01  0.65068055891E+01  0.11668292694E+02  0.00000000000E+00 0.  1.
</event>
<event>
 8    1  0.1238315E-006  0.9118800E+02  0.7816164E-02  0.1184000E+00
        -11   -1    0    0    0    0  0.00000000000E+00  0.00000000000E+00  0.45593999997E+02  0.45594000000E+02  0.51100000000E-03 0.  1.
         11   -1    0    0    0    0 -0.00000000000E+00 -0.00000000000E+00 -0.45593999997E+02  0.45594000000E+02  0.51100000000E-03 0. -1.
         23    2    1    2    0    0  0.17763568394E-14  0.17763568394E-14 -0.71054273576E-14  0.91188000000E+02  0.91188000000E+02 0.  0.
    9900012    2    3    3    0    0 -0.40933021982E+01 -0.11447651743E+02  0.34755965005E+02  0.54367069040E+02  0.39999965491E+02 0.  0.
         12    1    3    3    0    0  0.40933021982E+01  0.11447651743E+02 -0.34755965005E+02  0.36820930960E+02  0.00000000000E+00 0. -1.
         11    1    4    4    0    0 -0.23954198935E+00  0.15718680165E+01  0.22422741391E+01  0.27488075600E+01  0.51100000000E-03 0. -1.
        -11    1    4    4    0    0  0.57675863831E+01 -0.93080657716E+01 -0.54836172608E+01  0.12246436201E+02  0.51100000000E-03 0.  1.
        -12    1    4    4    0    0 -0.96213465920E+01 -0.37114539883E+01  0.37997308127E+02  0.39371825279E+02  0.00000000000E+00 0.  1.
</event>
<event>
 8    1  0.1238315E-006  0.9118800E+02  0.7816164E-02  0.1184000E+00
        -11   -1    0    0    0    0  0.00000000000E+00  0.00000000000E+00  0.45593999997E+02  0.45594000000E+02  0.51100000000E-03 0. -1.
         11   -1    0    0    0    0 -0.00000000000E+00 -0.00000000000E+00 -0.45593999997E+02  0.45594000000E+02  0.51100000000E-03 0.  1.
         23    2    1    2    0    0  0.35527136788E-14 -0.71054273576E-14 -0.35527136788E-14  0.91188000000E+02  0.91188000000E+02 0.  0.
    9900012    2    3    3    0    0  0.23734382281E+02  0.17037176530E+02 -0.22409737204E+02  0.54367046618E+02  0.39999914375E+02 0.  0.
         12    1    3    3    0    0 -0.23734382281E+02 -0.17037176530E+02  0.22409737204E+02  0.36820953382E+02  0.00000000000E+00 0. -1.
         11    1    4    4    0    0  0.79760796901E+01 -0.53808805032E+01 -0.11407550834E+01  0.96888102796E+01  0.51100000000E-03 0. -1.
        -11    1    4    4    0    0  0.95913721605E+01 -0.45273913249E+01 -0.10752292079E+02  0.15103094959E+02  0.51100000000E-03 0.  1.
        -12    1    4    4    0    0  0.61669304302E+01  0.26945448359E+02 -0.10516690042E+02  0.29575141379E+02  0.00000000000E+00 0.  1.
</event>
<event>
 8    1  0.1238315E-006  0.9118800E+02  0.7816164E-02  0.1184000E+00
        -11   -1    0    0    0    0  0.00000000000E+00  0.00000000000E+00  0.45593999997E+02  0.45594000000E+02  0.51100000000E-03 0.  1.
         11   -1    0    0    0    0 -0.00000000000E+00 -0.00000000000E+00 -0.45593999997E+02  0.45594000000E+02  0.51100000000E-03 0. -1.
         23    2    1    2    0    0  0.00000000000E+00  0.35527136788E-14 -0.88817841970E-15  0.91188000000E+02  0.91188000000E+02 0.  0.
    9900012    2    3    3    0    0 -0.27944303126E+02 -0.23559342025E+02  0.44556062055E+01  0.54367094246E+02  0.40000022953E+02 0.  0.
         12    1    3    3    0    0  0.27944303126E+02  0.23559342025E+02 -0.44556062055E+01  0.36820905754E+02  0.00000000000E+00 0. -1.
         11    1    4    4    0    0 -0.72645675286E+01 -0.37355479821E+01 -0.54830373996E+01  0.98382904760E+01  0.51100000000E-03 0. -1.
        -11    1    4    4    0    0 -0.21144972690E+00 -0.21244381488E+02  0.11115515773E+02  0.23977555066E+02  0.51100000000E-03 0.  1.
        -12    1    4    4    0    0 -0.20468285871E+02  0.14205874455E+01 -0.11768721683E+01  0.20551248704E+02  0.00000000000E+00 0.  1.
</event>
<event>
 8    1  0.1238315E-006  0.9118800E+02  0.7816164E-02  0.1184000E+00
        -11   -1    0    0    0    0  0.00000000000E+00  0.00000000000E+00  0.45593999997E+02  0.45594000000E+02  0.51100000000E-03 0. -1.
         11   -1    0    0    0    0 -0.00000000000E+00 -0.00000000000E+00 -0.45593999997E+02  0.45594000000E+02  0.51100000000E-03 0.  1.
         23    2    1    2    0    0  0.00000000000E+00  0.71054273576E-14  0.17763568394E-14  0.91188000000E+02  0.91188000000E+02 0.  0.
    9900012    2    3    3    0    0  0.15413390108E+01 -0.34797059497E+02 -0.11940153893E+02  0.54367104430E+02  0.40000046169E+02 0.  0.
         12    1    3    3    0    0 -0.15413390108E+01  0.34797059497E+02  0.11940153893E+02  0.36820895570E+02  0.00000000000E+00 0. -1.
         11    1    4    4    0    0 -0.33982406091E+01  0.62585831644E+00 -0.10185432544E+02  0.10755592696E+02  0.51100000000E-03 0. -1.
        -11    1    4    4    0    0  0.31101488074E+01 -0.14165439727E+02 -0.13014927870E+02  0.19486432613E+02  0.51100000000E-03 0.  1.
        -12    1    4    4    0    0  0.18294308125E+01 -0.21257478086E+02  0.11260206521E+02  0.24125079121E+02  0.00000000000E+00 0.  1.
</event>
<event>
 8    1  0.1238315E-006  0.9118800E+02  0.7816164E-02  0.1184000E+00
        -11   -1    0    0    0    0  0.00000000000E+00  0.00000000000E+00  0.45593999997E+02  0.45594000000E+02  0.51100000000E-03 0. -1.
         11   -1    0    0    0    0 -0.00000000000E+00 -0.00000000000E+00 -0.45593999997E+02  0.45594000000E+02  0.51100000000E-03 0.  1.
         23    2    1    2    0    0 -0.71054273576E-14  0.88817841970E-15  0.17763568394E-14  0.91188000000E+02  0.91188000000E+02 0.  0.
    9900012    2    3    3    0    0 -0.34605930342E+02  0.68068492593E+01  0.10577169677E+02  0.54367080266E+02  0.39999991083E+02 0.  0.
        -12    1    3    3    0    0  0.34605930342E+02 -0.68068492593E+01 -0.10577169677E+02  0.36820919734E+02  0.00000000000E+00 0.  1.
         11    1    4    4    0    0 -0.16843502608E+02  0.11036705586E+02  0.16142919687E+02  0.25809035367E+02  0.51100000000E-03 0. -1.
        -11    1    4    4    0    0 -0.13077366767E+01 -0.11906594180E+01  0.72617215227E+01  0.74739845330E+01  0.51100000000E-03 0.  1.
        -12    1    4    4    0    0 -0.16454691057E+02 -0.30391969091E+01 -0.12827471532E+02  0.21084060366E+02  0.00000000000E+00 0.  1.
</event>
<event>
 8    1  0.1238315E-006  0.9118800E+02  0.7816164E-02  0.1184000E+00
        -11   -1    0    0    0    0  0.00000000000E+00  0.00000000000E+00  0.45593999997E+02  0.45594000000E+02  0.51100000000E-03 0.  1.
         11   -1    0    0    0    0 -0.00000000000E+00 -0.00000000000E+00 -0.45593999997E+02  0.45594000000E+02  0.51100000000E-03 0. -1.
         23    2    1    2    0    0  0.00000000000E+00  0.00000000000E+00  0.17763568394E-14  0.91188000000E+02  0.91188000000E+02 0.  0.
    9900012    2    3    3    0    0 -0.28845627185E+02  0.19706517021E+02  0.11634625031E+02  0.54367061386E+02  0.39999948041E+02 0.  0.
        -12    1    3    3    0    0  0.28845627185E+02 -0.19706517021E+02 -0.11634625031E+02  0.36820938614E+02  0.00000000000E+00 0.  1.
         11    1    4    4    0    0 -0.14871342631E+02  0.84615814159E+01  0.76356087643E+01  0.18736534182E+02  0.51100000000E-03 0. -1.
        -11    1    4    4    0    0 -0.19071687915E+02  0.22069078534E+01  0.11900580026E+02  0.22588128019E+02  0.51100000000E-03 0.  1.
         12    1    4    4    0    0  0.50974033601E+01  0.90380277519E+01 -0.79015637585E+01  0.13042399185E+02  0.00000000000E+00 0. -1.
</event>
<event>
 8    1  0.1238315E-006  0.9118800E+02  0.7816164E-02  0.1184000E+00
        -11   -1    0    0    0    0  0.00000000000E+00  0.00000000000E+00  0.45593999997E+02  0.45594000000E+02  0.51100000000E-03 0.  1.
         11   -1    0    0    0    0 -0.00000000000E+00 -0.00000000000E+00 -0.45593999997E+02  0.45594000000E+02  0.51100000000E-03 0. -1.
         23    2    1    2    0    0  0.00000000000E+00  0.35527136788E-14 -0.17763568394E-14  0.91188000000E+02  0.91188000000E+02 0.  0.
    9900012    2    3    3    0    0  0.22629571531E+02  0.26244335612E+02 -0.12446574662E+02  0.54367083658E+02  0.39999998816E+02 0.  0.
        -12    1    3    3    0    0 -0.22629571531E+02 -0.26244335612E+02  0.12446574662E+02  0.36820916342E+02  0.00000000000E+00 0.  1.
         11    1    4    4    0    0  0.12872622020E+02  0.58423936392E+01 -0.15830264502E+02  0.21223459557E+02  0.51100000000E-03 0. -1.
        -11    1    4    4    0    0  0.16425041794E+02  0.14267444908E+02  0.77372960085E+01  0.23091291257E+02  0.51100000000E-03 0.  1.
         12    1    4    4    0    0 -0.66680922830E+01  0.61344970653E+01 -0.43536061684E+01  0.10052332844E+02  0.00000000000E+00 0. -1.
</event>
<event>
 8    1  0.1238315E-006  0.9118800E+02  0.7816164E-02  0.1184000E+00
        -11   -1    0    0    0    0  0.00000000000E+00  0.00000000000E+00  0.45593999997E+02  0.45594000000E+02  0.51100000000E-03 0.  1.
         11   -1    0    0    0    0 -0.00000000000E+00 -0.00000000000E+00 -0.45593999997E+02  0.45594000000E+02  0.51100000000E-03 0. -1.
         23    2    1    2    0    0 -0.17763568394E-14  0.00000000000E+00  0.88817841970E-15  0.91188000000E+02  0.91188000000E+02 0.  0.
    9900012    2    3    3    0    0  0.12002892644E+02  0.34502973088E+02 -0.46103372032E+01  0.54367084845E+02  0.40000001521E+02 0.  0.
         12    1    3    3    0    0 -0.12002892644E+02 -0.34502973088E+02  0.46103372032E+01  0.36820915155E+02  0.00000000000E+00 0. -1.
         11    1    4    4    0    0  0.13813462168E+02  0.97297013289E+01 -0.52013326744E+01  0.17678594029E+02  0.51100000000E-03 0. -1.
        -11    1    4    4    0    0 -0.10250355662E+01  0.29771772707E+01  0.11767396137E+02  0.12181374902E+02  0.51100000000E-03 0.  1.
         12    1    4    4    0    0 -0.78553395705E+00  0.21796094488E+02 -0.11176400665E+02  0.24507115913E+02  0.00000000000E+00 0. -1.
</event>
<event>
 8    1  0.1238315E-006  0.9118800E+02  0.7816164E-02  0.1184000E+00
        -11   -1    0    0    0    0  0.00000000000E+00  0.00000000000E+00  0.45593999997E+02  0.45594000000E+02  0.51100000000E-03 0.  1.
         11   -1    0    0    0    0 -0.00000000000E+00 -0.00000000000E+00 -0.45593999997E+02  0.45594000000E+02  0.51100000000E-03 0. -1.
         23    2    1    2    0    0  0.00000000000E+00  0.00000000000E+00  0.00000000000E+00  0.91188000000E+02  0.91188000000E+02 0.  0.
    9900012    2    3    3    0    0  0.64931372022E+01  0.18400885938E+02  0.31225367469E+02  0.54367122667E+02  0.40000087744E+02 0.  0.
         12    1    3    3    0    0 -0.64931372022E+01 -0.18400885938E+02 -0.31225367469E+02  0.36820877333E+02  0.00000000000E+00 0. -1.
         11    1    4    4    0    0 -0.28299957164E+01 -0.92748043949E+01  0.65698266273E+01  0.11712962669E+02  0.51100000000E-03 0. -1.
        -11    1    4    4    0    0  0.13321757851E+02  0.10535203537E+02  0.97087973875E+01  0.19563243411E+02  0.51100000000E-03 0.  1.
         12    1    4    4    0    0 -0.39986249319E+01  0.17140486796E+02  0.14946743454E+02  0.23090916587E+02  0.00000000000E+00 0. -1.
</event>
<event>
 8    1  0.1238315E-006  0.9118800E+02  0.7816164E-02  0.1184000E+00
        -11   -1    0    0    0    0  0.00000000000E+00  0.00000000000E+00  0.45593999997E+02  0.45594000000E+02  0.51100000000E-03 0.  1.
         11   -1    0    0    0    0 -0.00000000000E+00 -0.00000000000E+00 -0.45593999997E+02  0.45594000000E+02  0.51100000000E-03 0. -1.
         23    2    1    2    0    0  0.00000000000E+00  0.00000000000E+00  0.00000000000E+00  0.91188000000E+02  0.91188000000E+02 0.  0.
    9900012    2    3    3    0    0  0.17389901662E+02  0.21802639520E+02  0.24041982241E+02  0.54367072799E+02  0.39999974061E+02 0.  0.
         12    1    3    3    0    0 -0.17389901662E+02 -0.21802639520E+02 -0.24041982241E+02  0.36820927201E+02  0.00000000000E+00 0. -1.
         11    1    4    4    0    0 -0.69700793000E+01 -0.48048287463E+00  0.10912094848E+02  0.12957109380E+02  0.51100000000E-03 0. -1.
        -11    1    4    4    0    0  0.95091537719E+01  0.60648440929E+00 -0.36829650050E+01  0.10215481403E+02  0.51100000000E-03 0.  1.
        -12    1    4    4    0    0  0.14850827190E+02  0.21676637985E+02  0.16812852398E+02  0.31194482017E+02  0.00000000000E+00 0.  1.
</event>
<event>
 8    1  0.1238315E-006  0.9118800E+02  0.7816164E-02  0.1184000E+00
        -11   -1    0    0    0    0  0.00000000000E+00  0.00000000000E+00  0.45593999997E+02  0.45594000000E+02  0.51100000000E-03 0. -1.
         11   -1    0    0    0    0 -0.00000000000E+00 -0.00000000000E+00 -0.45593999997E+02  0.45594000000E+02  0.51100000000E-03 0.  1.
         23    2    1    2    0    0  0.17763568394E-14  0.00000000000E+00  0.00000000000E+00  0.91188000000E+02  0.91188000000E+02 0.  0.
    9900012    2    3    3    0    0  0.66339956828E+01  0.34701114791E+02  0.10373147583E+02  0.54367089403E+02  0.40000011911E+02 0.  0.
         12    1    3    3    0    0 -0.66339956828E+01 -0.34701114791E+02 -0.10373147583E+02  0.36820910597E+02  0.00000000000E+00 0. -1.
         11    1    4    4    0    0  0.20456850187E+02  0.22432417007E+02  0.62681022276E+01  0.30999760614E+02  0.51100000000E-03 0.  1.
        -11    1    4    4    0    0 -0.41089440606E+01 -0.17209094382E+00  0.62051688195E+01  0.74442700734E+01  0.51100000000E-03 0. -1.
         12    1    4    4    0    0 -0.97139104434E+01  0.12440788728E+02 -0.21001234642E+01  0.15923058715E+02  0.00000000000E+00 0. -1.
</event>
<event>
 8    1  0.1238315E-006  0.9118800E+02  0.7816164E-02  0.1184000E+00
        -11   -1    0    0    0    0  0.00000000000E+00  0.00000000000E+00  0.45593999997E+02  0.45594000000E+02  0.51100000000E-03 0. -1.
         11   -1    0    0    0    0 -0.00000000000E+00 -0.00000000000E+00 -0.45593999997E+02  0.45594000000E+02  0.51100000000E-03 0.  1.
         23    2    1    2    0    0  0.35527136788E-14  0.00000000000E+00  0.88817841970E-15  0.91188000000E+02  0.91188000000E+02 0.  0.
    9900012    2    3    3    0    0  0.24387358890E+02  0.27147796834E+02 -0.49022186509E+01  0.54367110626E+02  0.40000060295E+02 0.  0.
         12    1    3    3    0    0 -0.24387358890E+02 -0.27147796834E+02  0.49022186509E+01  0.36820889374E+02  0.00000000000E+00 0. -1.
         11    1    4    4    0    0  0.82151978053E+01 -0.38964508449E+00 -0.12827328438E+02  0.15237508109E+02  0.51100000000E-03 0. -1.
        -11    1    4    4    0    0  0.95075372885E+01  0.28970126746E+02  0.28347035499E+01  0.30621839485E+02  0.51100000000E-03 0.  1.
        -12    1    4    4    0    0  0.66646237964E+01 -0.14326848277E+01  0.50904062367E+01  0.85077630325E+01  0.00000000000E+00 0.  1.
</event>
<event>
 8    1  0.1238315E-006  0.9118800E+02  0.7816164E-02  0.1184000E+00
        -11   -1    0    0    0    0  0.00000000000E+00  0.00000000000E+00  0.45593999997E+02  0.45594000000E+02  0.51100000000E-03 0.  1.
         11   -1    0    0    0    0 -0.00000000000E+00 -0.00000000000E+00 -0.45593999997E+02  0.45594000000E+02  0.51100000000E-03 0. -1.
         23    2    1    2    0    0  0.00000000000E+00  0.00000000000E+00 -0.17763568394E-14  0.91188000000E+02  0.91188000000E+02 0.  0.
    9900012    2    3    3    0    0  0.22086540325E+02 -0.29320158347E+02  0.28796548614E+01  0.54367090707E+02  0.40000014885E+02 0.  0.
         12    1    3    3    0    0 -0.22086540325E+02  0.29320158347E+02 -0.28796548614E+01  0.36820909293E+02  0.00000000000E+00 0. -1.
         11    1    4    4    0    0 -0.14057116629E+01  0.27202081809E+01 -0.28606240298E+01  0.41903135834E+01  0.51100000000E-03 0. -1.
        -11    1    4    4    0    0  0.12392107661E+02 -0.55607693304E+01  0.14781990498E+02  0.20074703763E+02  0.51100000000E-03 0.  1.
         12    1    4    4    0    0  0.11100144327E+02 -0.26479597198E+02 -0.90417116065E+01  0.30102073361E+02  0.00000000000E+00 0. -1.
</event>
<event>
 8    1  0.1238315E-006  0.9118800E+02  0.7816164E-02  0.1184000E+00
        -11   -1    0    0    0    0  0.00000000000E+00  0.00000000000E+00  0.45593999997E+02  0.45594000000E+02  0.51100000000E-03 0.  1.
         11   -1    0    0    0    0 -0.00000000000E+00 -0.00000000000E+00 -0.45593999997E+02  0.45594000000E+02  0.51100000000E-03 0. -1.
         23    2    1    2    0    0 -0.88817841970E-15 -0.13322676296E-14  0.00000000000E+00  0.91188000000E+02  0.91188000000E+02 0.  0.
    9900012    2    3    3    0    0 -0.14666601322E+01  0.36584150273E+01 -0.36609364485E+02  0.54367073063E+02  0.39999974662E+02 0.  0.
        -12    1    3    3    0    0  0.14666601322E+01 -0.36584150273E+01  0.36609364485E+02  0.36820926937E+02  0.00000000000E+00 0.  1.
         11    1    4    4    0    0  0.74142218891E+01 -0.75064561614E+01 -0.11471898394E+02  0.15585955965E+02  0.51100000000E-03 0. -1.
        -11    1    4    4    0    0  0.37516397580E+01  0.15073122110E+02 -0.91269639601E+01  0.18015972980E+02  0.51100000000E-03 0.  1.
        -12    1    4    4    0    0 -0.12632521779E+02 -0.39082509211E+01 -0.16010502131E+02  0.20765144118E+02  0.00000000000E+00 0.  1.
</event>
<event>
 8    1  0.1238315E-006  0.9118800E+02  0.7816164E-02  0.1184000E+00
        -11   -1    0    0    0    0  0.00000000000E+00  0.00000000000E+00  0.45593999997E+02  0.45594000000E+02  0.51100000000E-03 0.  1.
         11   -1    0    0    0    0 -0.00000000000E+00 -0.00000000000E+00 -0.45593999997E+02  0.45594000000E+02  0.51100000000E-03 0. -1.
         23    2    1    2    0    0  0.00000000000E+00 -0.35527136788E-14  0.35527136788E-14  0.91188000000E+02  0.91188000000E+02 0.  0.
    9900012    2    3    3    0    0  0.10869398436E+02 -0.26672818036E+02  0.22938967965E+02  0.54367091597E+02  0.40000016914E+02 0.  0.
         12    1    3    3    0    0 -0.10869398436E+02  0.26672818036E+02 -0.22938967965E+02  0.36820908403E+02  0.00000000000E+00 0. -1.
         11    1    4    4    0    0  0.77368247417E+01  0.69047164575E+01 -0.34403583930E+01  0.10925641060E+02  0.51100000000E-03 0. -1.
        -11    1    4    4    0    0  0.49643213184E+00 -0.24817861736E+02  0.22509095637E+02  0.33508686824E+02  0.51100000000E-03 0.  1.
         12    1    4    4    0    0  0.26361415629E+01 -0.87596727566E+01  0.38702307211E+01  0.99327637130E+01  0.00000000000E+00 0. -1.
</event>
<event>
 8    1  0.1238315E-006  0.9118800E+02  0.7816164E-02  0.1184000E+00
        -11   -1    0    0    0    0  0.00000000000E+00  0.00000000000E+00  0.45593999997E+02  0.45594000000E+02  0.51100000000E-03 0. -1.
         11   -1    0    0    0    0 -0.00000000000E+00 -0.00000000000E+00 -0.45593999997E+02  0.45594000000E+02  0.51100000000E-03 0.  1.
         23    2    1    2    0    0  0.00000000000E+00  0.17763568394E-14  0.00000000000E+00  0.91188000000E+02  0.91188000000E+02 0.  0.
    9900012    2    3    3    0    0  0.26460505598E+02 -0.65585565145E+01 -0.24750882552E+02  0.54367092798E+02  0.40000019652E+02 0.  0.
         12    1    3    3    0    0 -0.26460505598E+02  0.65585565145E+01  0.24750882552E+02  0.36820907202E+02  0.00000000000E+00 0. -1.
         11    1    4    4    0    0 -0.18883737983E+01 -0.64118893190E+01  0.10863355932E+01  0.67718834547E+01  0.51100000000E-03 0. -1.
        -11    1    4    4    0    0  0.77596819487E+01  0.92340785060E+01  0.14495449120E+01  0.12148335298E+02  0.51100000000E-03 0.  1.
        -12    1    4    4    0    0  0.20589197448E+02 -0.93807457014E+01 -0.27286763057E+02  0.35446874045E+02  0.00000000000E+00 0.  1.
</event>
<event>
 8    1  0.1238315E-006  0.9118800E+02  0.7816164E-02  0.1184000E+00
        -11   -1    0    0    0    0  0.00000000000E+00  0.00000000000E+00  0.45593999997E+02  0.45594000000E+02  0.51100000000E-03 0. -1.
         11   -1    0    0    0    0 -0.00000000000E+00 -0.00000000000E+00 -0.45593999997E+02  0.45594000000E+02  0.51100000000E-03 0.  1.
         23    2    1    2    0    0  0.71054273576E-14 -0.17763568394E-14  0.00000000000E+00  0.91188000000E+02  0.91188000000E+02 0.  0.
    9900012    2    3    3    0    0  0.25170180106E+02 -0.12612857740E+02  0.23730935446E+02  0.54367089581E+02  0.40000012318E+02 0.  0.
        -12    1    3    3    0    0 -0.25170180106E+02  0.12612857740E+02 -0.23730935446E+02  0.36820910419E+02  0.00000000000E+00 0.  1.
         11    1    4    4    0    0 -0.68557621861E+01 -0.70604157997E+01  0.30502913458E+01  0.10303165726E+02  0.51100000000E-03 0. -1.
        -11    1    4    4    0    0 -0.24153646747E+01 -0.47828899046E+00  0.56142685760E+01  0.61304778586E+01  0.51100000000E-03 0.  1.
         12    1    4    4    0    0  0.34441306967E+02 -0.50741529500E+01  0.15066375524E+02  0.37933445997E+02  0.00000000000E+00 0. -1.
</event>
<event>
 8    1  0.1238315E-006  0.9118800E+02  0.7816164E-02  0.1184000E+00
        -11   -1    0    0    0    0  0.00000000000E+00  0.00000000000E+00  0.45593999997E+02  0.45594000000E+02  0.51100000000E-03 0.  1.
         11   -1    0    0    0    0 -0.00000000000E+00 -0.00000000000E+00 -0.45593999997E+02  0.45594000000E+02  0.51100000000E-03 0. -1.
         23    2    1    2    0    0 -0.35527136788E-14 -0.35527136788E-14  0.35527136788E-14  0.91188000000E+02  0.91188000000E+02 0.  0.
    9900012    2    3    3    0    0  0.16335904075E+02  0.14685509830E+02 -0.29550839492E+02  0.54367108164E+02  0.40000054680E+02 0.  0.
        -12    1    3    3    0    0 -0.16335904075E+02 -0.14685509830E+02  0.29550839492E+02  0.36820891836E+02  0.00000000000E+00 0.  1.
         11    1    4    4    0    0  0.16350068465E+02  0.19039780869E+02 -0.21303642758E+02  0.32919343696E+02  0.51100000000E-03 0. -1.
        -11    1    4    4    0    0  0.33483773166E+01  0.62626480093E+01  0.73598525358E+00  0.71396124053E+01  0.51100000000E-03 0.  1.
        -12    1    4    4    0    0 -0.33625417067E+01 -0.10616919048E+02 -0.89831819877E+01  0.14308152062E+02  0.00000000000E+00 0.  1.
</event>
<event>
 8    1  0.1238315E-006  0.9118800E+02  0.7816164E-02  0.1184000E+00
        -11   -1    0    0    0    0  0.00000000000E+00  0.00000000000E+00  0.45593999997E+02  0.45594000000E+02  0.51100000000E-03 0.  1.
         11   -1    0    0    0    0 -0.00000000000E+00 -0.00000000000E+00 -0.45593999997E+02  0.45594000000E+02  0.51100000000E-03 0. -1.
         23    2    1    2    0    0  0.35527136788E-14  0.13322676296E-14 -0.35527136788E-14  0.91188000000E+02  0.91188000000E+02 0.  0.
    9900012    2    3    3    0    0 -0.19630137552E+02  0.19419591672E+01  0.31091225593E+02  0.54367111708E+02  0.40000062761E+02 0.  0.
         12    1    3    3    0    0  0.19630137552E+02 -0.19419591672E+01 -0.31091225593E+02  0.36820888292E+02  0.00000000000E+00 0. -1.
         11    1    4    4    0    0  0.67066091568E+01 -0.26934041314E+01  0.57624510205E+01  0.92433151100E+01  0.51100000000E-03 0. -1.
        -11    1    4    4    0    0 -0.13969630889E+01 -0.88318552955E+01  0.71806114415E+01  0.11467970822E+02  0.51100000000E-03 0.  1.
        -12    1    4    4    0    0 -0.24939783620E+02  0.13467218594E+02  0.18148163131E+02  0.33655825776E+02  0.00000000000E+00 0.  1.
</event>
<event>
 8    1  0.1238315E-006  0.9118800E+02  0.7816164E-02  0.1184000E+00
        -11   -1    0    0    0    0  0.00000000000E+00  0.00000000000E+00  0.45593999997E+02  0.45594000000E+02  0.51100000000E-03 0. -1.
         11   -1    0    0    0    0 -0.00000000000E+00 -0.00000000000E+00 -0.45593999997E+02  0.45594000000E+02  0.51100000000E-03 0.  1.
         23    2    1    2    0    0 -0.44408920985E-15  0.00000000000E+00  0.00000000000E+00  0.91188000000E+02  0.91188000000E+02 0.  0.
    9900012    2    3    3    0    0 -0.22843086730E+01  0.13122408469E+02  0.34327310034E+02  0.54367083604E+02  0.39999998691E+02 0.  0.
        -12    1    3    3    0    0  0.22843086730E+01 -0.13122408469E+02 -0.34327310034E+02  0.36820916396E+02  0.00000000000E+00 0.  1.
         11    1    4    4    0    0 -0.61770948533E+01  0.10188153639E+02  0.31246619080E+02  0.33441085204E+02  0.51100000000E-03 0. -1.
        -11    1    4    4    0    0 -0.22785689910E+01 -0.54228680468E+01 -0.50351723456E+01  0.77428893387E+01  0.51100000000E-03 0.  1.
        -12    1    4    4    0    0  0.61713551713E+01  0.83571228771E+01  0.81158632987E+01  0.13183109061E+02  0.00000000000E+00 0.  1.
</event>
<event>
 8    1  0.1238315E-006  0.9118800E+02  0.7816164E-02  0.1184000E+00
        -11   -1    0    0    0    0  0.00000000000E+00  0.00000000000E+00  0.45593999997E+02  0.45594000000E+02  0.51100000000E-03 0. -1.
         11   -1    0    0    0    0 -0.00000000000E+00 -0.00000000000E+00 -0.45593999997E+02  0.45594000000E+02  0.51100000000E-03 0.  1.
         23    2    1    2    0    0  0.00000000000E+00 -0.35527136788E-14  0.00000000000E+00  0.91188000000E+02  0.91188000000E+02 0.  0.
    9900012    2    3    3    0    0 -0.14738059563E+02  0.26297712202E+02 -0.21142379678E+02  0.54367078159E+02  0.39999986280E+02 0.  0.
        -12    1    3    3    0    0  0.14738059563E+02 -0.26297712202E+02  0.21142379678E+02  0.36820921841E+02  0.00000000000E+00 0.  1.
         11    1    4    4    0    0 -0.56391141007E+01  0.25452614663E+01 -0.46090169687E+01  0.77149855121E+01  0.51100000000E-03 0. -1.
        -11    1    4    4    0    0  0.47798360005E+01 -0.75682692772E+01 -0.61309171609E+01  0.10849593427E+02  0.51100000000E-03 0.  1.
         12    1    4    4    0    0 -0.13878781462E+02  0.31320720013E+02 -0.10402445549E+02  0.35802499220E+02  0.00000000000E+00 0. -1.
</event>
<event>
 8    1  0.1238315E-006  0.9118800E+02  0.7816164E-02  0.1184000E+00
        -11   -1    0    0    0    0  0.00000000000E+00  0.00000000000E+00  0.45593999997E+02  0.45594000000E+02  0.51100000000E-03 0.  1.
         11   -1    0    0    0    0 -0.00000000000E+00 -0.00000000000E+00 -0.45593999997E+02  0.45594000000E+02  0.51100000000E-03 0. -1.
         23    2    1    2    0    0  0.17763568394E-14 -0.35527136788E-14 -0.35527136788E-14  0.91188000000E+02  0.91188000000E+02 0.  0.
    9900012    2    3    3    0    0  0.84700653940E+01 -0.20785139125E+02 -0.29189312388E+02  0.54367082387E+02  0.39999995917E+02 0.  0.
        -12    1    3    3    0    0 -0.84700653940E+01  0.20785139125E+02  0.29189312388E+02  0.36820917613E+02  0.00000000000E+00 0.  1.
         11    1    4    4    0    0  0.16905159390E+01 -0.54424819850E+01  0.67094928777E+01  0.88031670002E+01  0.51100000000E-03 0. -1.
        -11    1    4    4    0    0 -0.80600601496E+01 -0.62297227201E+01 -0.17364377255E+02  0.20131955010E+02  0.51100000000E-03 0.  1.
         12    1    4    4    0    0  0.14839609605E+02 -0.91129344199E+01 -0.18534428010E+02  0.25431960377E+02  0.00000000000E+00 0. -1.
</event>
<event>
 8    1  0.1238315E-006  0.9118800E+02  0.7816164E-02  0.1184000E+00
        -11   -1    0    0    0    0  0.00000000000E+00  0.00000000000E+00  0.45593999997E+02  0.45594000000E+02  0.51100000000E-03 0. -1.
         11   -1    0    0    0    0 -0.00000000000E+00 -0.00000000000E+00 -0.45593999997E+02  0.45594000000E+02  0.51100000000E-03 0.  1.
         23    2    1    2    0    0  0.00000000000E+00  0.00000000000E+00  0.00000000000E+00  0.91188000000E+02  0.91188000000E+02 0.  0.
    9900012    2    3    3    0    0  0.12221766038E+02  0.21417443576E+02  0.27344120758E+02  0.54367090255E+02  0.40000013855E+02 0.  0.
        -12    1    3    3    0    0 -0.12221766038E+02 -0.21417443576E+02 -0.27344120758E+02  0.36820909745E+02  0.00000000000E+00 0.  1.
         11    1    4    4    0    0  0.20586780638E+02  0.79352732530E+01  0.45458619164E+01  0.22526627787E+02  0.51100000000E-03 0. -1.
        -11    1    4    4    0    0 -0.11359596327E+02  0.42748109647E+01  0.15652629448E+02  0.19807050421E+02  0.51100000000E-03 0.  1.
        -12    1    4    4    0    0  0.29945817261E+01  0.92073593581E+01  0.71456293931E+01  0.12033412047E+02  0.00000000000E+00 0.  1.
</event>
<event>
 8    1  0.1238315E-006  0.9118800E+02  0.7816164E-02  0.1184000E+00
        -11   -1    0    0    0    0  0.00000000000E+00  0.00000000000E+00  0.45593999997E+02  0.45594000000E+02  0.51100000000E-03 0.  1.
         11   -1    0    0    0    0 -0.00000000000E+00 -0.00000000000E+00 -0.45593999997E+02  0.45594000000E+02  0.51100000000E-03 0. -1.
         23    2    1    2    0    0 -0.35527136788E-14 -0.35527136788E-14  0.35527136788E-14  0.91188000000E+02  0.91188000000E+02 0.  0.
    9900012    2    3    3    0    0 -0.21736490760E+02 -0.20953773659E+02  0.21077073643E+02  0.54367099760E+02  0.40000035523E+02 0.  0.
         12    1    3    3    0    0  0.21736490760E+02  0.20953773659E+02 -0.21077073643E+02  0.36820900240E+02  0.00000000000E+00 0. -1.
         11    1    4    4    0    0  0.58804468065E+01 -0.10563595856E+02  0.40814368810E+01  0.12760381629E+02  0.51100000000E-03 0. -1.
        -11    1    4    4    0    0 -0.81193181113E+01  0.77793742292E+01  0.38143536748E+01  0.11873975080E+02  0.51100000000E-03 0.  1.
         12    1    4    4    0    0 -0.19497619455E+02 -0.18169552032E+02  0.13181283088E+02  0.29732743050E+02  0.00000000000E+00 0. -1.
</event>
<event>
 8    1  0.1238315E-006  0.9118800E+02  0.7816164E-02  0.1184000E+00
        -11   -1    0    0    0    0  0.00000000000E+00  0.00000000000E+00  0.45593999997E+02  0.45594000000E+02  0.51100000000E-03 0.  1.
         11   -1    0    0    0    0 -0.00000000000E+00 -0.00000000000E+00 -0.45593999997E+02  0.45594000000E+02  0.51100000000E-03 0. -1.
         23    2    1    2    0    0  0.35527136788E-14  0.53290705182E-14 -0.35527136788E-14  0.91188000000E+02  0.91188000000E+02 0.  0.
    9900012    2    3    3    0    0 -0.19833815978E+02 -0.14790771987E+02  0.27269658544E+02  0.54367062079E+02  0.39999949622E+02 0.  0.
         12    1    3    3    0    0  0.19833815978E+02  0.14790771987E+02 -0.27269658544E+02  0.36820937921E+02  0.00000000000E+00 0. -1.
         11    1    4    4    0    0 -0.50700947132E+01 -0.58233679514E+01  0.74868102061E+01  0.10754989634E+02  0.51100000000E-03 0. -1.
        -11    1    4    4    0    0  0.10918766001E+02  0.18003504235E+00  0.95007949528E+01  0.14474700984E+02  0.51100000000E-03 0.  1.
        -12    1    4    4    0    0 -0.25682487266E+02 -0.91474390784E+01  0.10282053385E+02  0.29137371461E+02  0.00000000000E+00 0.  1.
</event>
<event>
 8    1  0.1238315E-006  0.9118800E+02  0.7816164E-02  0.1184000E+00
        -11   -1    0    0    0    0  0.00000000000E+00  0.00000000000E+00  0.45593999997E+02  0.45594000000E+02  0.51100000000E-03 0. -1.
         11   -1    0    0    0    0 -0.00000000000E+00 -0.00000000000E+00 -0.45593999997E+02  0.45594000000E+02  0.51100000000E-03 0.  1.
         23    2    1    2    0    0 -0.88817841970E-15  0.00000000000E+00  0.00000000000E+00  0.91188000000E+02  0.91188000000E+02 0.  0.
    9900012    2    3    3    0    0  0.29377376227E+01  0.40350521022E+01  0.36481044828E+02  0.54367101320E+02  0.40000039080E+02 0.  0.
        -12    1    3    3    0    0 -0.29377376227E+01 -0.40350521022E+01 -0.36481044828E+02  0.36820898680E+02  0.00000000000E+00 0.  1.
         11    1    4    4    0    0  0.17029176298E+02  0.27843891391E+01  0.13807128998E+02  0.22099377360E+02  0.51100000000E-03 0. -1.
        -11    1    4    4    0    0 -0.49878282598E+01  0.66457772082E+01  0.12902632511E+01  0.84088979640E+01  0.51100000000E-03 0.  1.
         12    1    4    4    0    0 -0.91036104153E+01 -0.53951142452E+01  0.21383652579E+02  0.23858825997E+02  0.00000000000E+00 0. -1.
</event>
<event>
 8    1  0.1238315E-006  0.9118800E+02  0.7816164E-02  0.1184000E+00
        -11   -1    0    0    0    0  0.00000000000E+00  0.00000000000E+00  0.45593999997E+02  0.45594000000E+02  0.51100000000E-03 0. -1.
         11   -1    0    0    0    0 -0.00000000000E+00 -0.00000000000E+00 -0.45593999997E+02  0.45594000000E+02  0.51100000000E-03 0.  1.
         23    2    1    2    0    0  0.35527136788E-14 -0.35527136788E-14  0.00000000000E+00  0.91188000000E+02  0.91188000000E+02 0.  0.
    9900012    2    3    3    0    0  0.24228881762E+02 -0.27724927801E+02  0.26335983418E+00  0.54367086222E+02  0.40000004661E+02 0.  0.
        -12    1    3    3    0    0 -0.24228881762E+02  0.27724927801E+02 -0.26335983418E+00  0.36820913778E+02  0.00000000000E+00 0.  1.
         11    1    4    4    0    0  0.11303945614E+02  0.32858164979E+01 -0.20213247725E+01  0.11944100243E+02  0.51100000000E-03 0. -1.
        -11    1    4    4    0    0  0.33551066790E+01 -0.87434702353E+01 -0.11270219050E+02  0.14653424524E+02  0.51100000000E-03 0.  1.
         12    1    4    4    0    0  0.95698294690E+01 -0.22267274063E+02  0.13554903657E+02  0.27769561455E+02  0.00000000000E+00 0. -1.
</event>
<event>
 8    1  0.1238315E-006  0.9118800E+02  0.7816164E-02  0.1184000E+00
        -11   -1    0    0    0    0  0.00000000000E+00  0.00000000000E+00  0.45593999997E+02  0.45594000000E+02  0.51100000000E-03 0.  1.
         11   -1    0    0    0    0 -0.00000000000E+00 -0.00000000000E+00 -0.45593999997E+02  0.45594000000E+02  0.51100000000E-03 0. -1.
         23    2    1    2    0    0  0.00000000000E+00  0.00000000000E+00  0.35527136788E-14  0.91188000000E+02  0.91188000000E+02 0.  0.
    9900012    2    3    3    0    0  0.68971271227E+01 -0.24055315705E+02 -0.27010191900E+02  0.54367095032E+02  0.40000024744E+02 0.  0.
        -12    1    3    3    0    0 -0.68971271227E+01  0.24055315705E+02  0.27010191900E+02  0.36820904968E+02  0.00000000000E+00 0.  1.
         11    1    4    4    0    0 -0.13673094179E+02 -0.12992535029E+02 -0.19120366669E+02  0.26857920484E+02  0.51100000000E-03 0. -1.
        -11    1    4    4    0    0  0.10163796121E+02 -0.99702075935E+01 -0.92187206535E+01  0.16961503524E+02  0.51100000000E-03 0.  1.
         12    1    4    4    0    0  0.10406425180E+02 -0.10925730830E+01  0.13288954224E+01  0.10547671024E+02  0.00000000000E+00 0. -1.
</event>
<event>
 8    1  0.1238315E-006  0.9118800E+02  0.7816164E-02  0.1184000E+00
        -11   -1    0    0    0    0  0.00000000000E+00  0.00000000000E+00  0.45593999997E+02  0.45594000000E+02  0.51100000000E-03 0.  1.
         11   -1    0    0    0    0 -0.00000000000E+00 -0.00000000000E+00 -0.45593999997E+02  0.45594000000E+02  0.51100000000E-03 0. -1.
         23    2    1    2    0    0  0.00000000000E+00  0.00000000000E+00  0.35527136788E-14  0.91188000000E+02  0.91188000000E+02 0.  0.
    9900012    2    3    3    0    0  0.14250705723E+02 -0.24034776267E+02  0.23979718569E+02  0.54367082216E+02  0.39999995527E+02 0.  0.
         12    1    3    3    0    0 -0.14250705723E+02  0.24034776267E+02 -0.23979718569E+02  0.36820917784E+02  0.00000000000E+00 0. -1.
         11    1    4    4    0    0  0.85961905656E+01 -0.59238221935E+01 -0.49654488006E+01  0.11560356555E+02  0.51100000000E-03 0. -1.
        -11    1    4    4    0    0  0.62312510033E+01 -0.22888993780E+02  0.29618423302E+02  0.37947141190E+02  0.51100000000E-03 0.  1.
         12    1    4    4    0    0 -0.57673584542E+00  0.47780397073E+01 -0.67325593194E+00  0.48595844709E+01  0.00000000000E+00 0. -1.
</event>
<event>
 8    1  0.1238315E-006  0.9118800E+02  0.7816164E-02  0.1184000E+00
        -11   -1    0    0    0    0  0.00000000000E+00  0.00000000000E+00  0.45593999997E+02  0.45594000000E+02  0.51100000000E-03 0. -1.
         11   -1    0    0    0    0 -0.00000000000E+00 -0.00000000000E+00 -0.45593999997E+02  0.45594000000E+02  0.51100000000E-03 0.  1.
         23    2    1    2    0    0  0.00000000000E+00 -0.49960036108E-15 -0.17763568394E-14  0.91188000000E+02  0.91188000000E+02 0.  0.
    9900012    2    3    3    0    0  0.34117547950E+02 -0.32849572246E+00  0.13844310181E+02  0.54367083227E+02  0.39999997834E+02 0.  0.
        -12    1    3    3    0    0 -0.34117547950E+02  0.32849572246E+00 -0.13844310181E+02  0.36820916773E+02  0.00000000000E+00 0.  1.
         11    1    4    4    0    0  0.24724998734E+02  0.58598575407E+01  0.51923527759E+00  0.25415213915E+02  0.51100000000E-03 0.  1.
        -11    1    4    4    0    0  0.21309554431E+01  0.28164193202E+01 -0.56885653592E+01  0.66957423035E+01  0.51100000000E-03 0. -1.
         12    1    4    4    0    0  0.72615937729E+01 -0.90047725833E+01  0.19013640263E+02  0.22256127009E+02  0.00000000000E+00 0. -1.
</event>
<event>
 8    1  0.1238315E-006  0.9118800E+02  0.7816164E-02  0.1184000E+00
        -11   -1    0    0    0    0  0.00000000000E+00  0.00000000000E+00  0.45593999997E+02  0.45594000000E+02  0.51100000000E-03 0.  1.
         11   -1    0    0    0    0 -0.00000000000E+00 -0.00000000000E+00 -0.45593999997E+02  0.45594000000E+02  0.51100000000E-03 0. -1.
         23    2    1    2    0    0  0.00000000000E+00  0.00000000000E+00  0.00000000000E+00  0.91188000000E+02  0.91188000000E+02 0.  0.
    9900012    2    3    3    0    0  0.23604239925E+02 -0.27394679578E+02  0.69390688789E+01  0.54367091693E+02  0.40000017133E+02 0.  0.
        -12    1    3    3    0    0 -0.23604239925E+02  0.27394679578E+02 -0.69390688789E+01  0.36820908307E+02  0.00000000000E+00 0.  1.
         11    1    4    4    0    0 -0.25601183191E+01 -0.17782020326E+02 -0.10775897780E+01  0.17997656866E+02  0.51100000000E-03 0. -1.
        -11    1    4    4    0    0  0.18139227555E+02 -0.82852982030E+01 -0.54174879693E+01  0.20664629655E+02  0.51100000000E-03 0.  1.
        -12    1    4    4    0    0  0.80251306893E+01 -0.13273610493E+01  0.13434146626E+02  0.15704805173E+02  0.00000000000E+00 0.  1.
</event>
<event>
 8    1  0.1238315E-006  0.9118800E+02  0.7816164E-02  0.1184000E+00
        -11   -1    0    0    0    0  0.00000000000E+00  0.00000000000E+00  0.45593999997E+02  0.45594000000E+02  0.51100000000E-03 0. -1.
         11   -1    0    0    0    0 -0.00000000000E+00 -0.00000000000E+00 -0.45593999997E+02  0.45594000000E+02  0.51100000000E-03 0.  1.
         23    2    1    2    0    0  0.17763568394E-14  0.00000000000E+00  0.00000000000E+00  0.91188000000E+02  0.91188000000E+02 0.  0.
    9900012    2    3    3    0    0  0.82839077093E+01  0.37089303454E+01 -0.35684740071E+02  0.54367082505E+02  0.39999996187E+02 0.  0.
         12    1    3    3    0    0 -0.82839077093E+01 -0.37089303454E+01  0.35684740071E+02  0.36820917495E+02  0.00000000000E+00 0. -1.
         11    1    4    4    0    0 -0.10649126308E+02 -0.27880588753E+00 -0.56709044391E+01  0.12068172242E+02  0.51100000000E-03 0. -1.
        -11    1    4    4    0    0  0.69577319499E+01  0.84596886694E+01 -0.27040342415E+02  0.29174586277E+02  0.51100000000E-03 0.  1.
        -12    1    4    4    0    0  0.11975302067E+02 -0.44719524364E+01 -0.29734932170E+01  0.13124323986E+02  0.00000000000E+00 0.  1.
</event>
<event>
 8    1  0.1238315E-006  0.9118800E+02  0.7816164E-02  0.1184000E+00
        -11   -1    0    0    0    0  0.00000000000E+00  0.00000000000E+00  0.45593999997E+02  0.45594000000E+02  0.51100000000E-03 0. -1.
         11   -1    0    0    0    0 -0.00000000000E+00 -0.00000000000E+00 -0.45593999997E+02  0.45594000000E+02  0.51100000000E-03 0.  1.
         23    2    1    2    0    0  0.00000000000E+00  0.00000000000E+00  0.00000000000E+00  0.91188000000E+02  0.91188000000E+02 0.  0.
    9900012    2    3    3    0    0 -0.34384629548E+02 -0.10758113328E+02  0.75989113475E+01  0.54367038508E+02  0.39999895887E+02 0.  0.
        -12    1    3    3    0    0  0.34384629548E+02  0.10758113328E+02 -0.75989113475E+01  0.36820961492E+02  0.00000000000E+00 0.  1.
         11    1    4    4    0    0 -0.17140432985E+02 -0.19084269686E+02  0.15591525667E+02  0.30018318828E+02  0.51100000000E-03 0. -1.
        -11    1    4    4    0    0 -0.60002911747E+01  0.36567437241E+00 -0.86760905827E+01  0.10555176928E+02  0.51100000000E-03 0.  1.
         12    1    4    4    0    0 -0.11243905388E+02  0.79604819863E+01  0.68347626279E+00  0.13793542752E+02  0.00000000000E+00 0. -1.
</event>
<event>
 8    1  0.1238315E-006  0.9118800E+02  0.7816164E-02  0.1184000E+00
        -11   -1    0    0    0    0  0.00000000000E+00  0.00000000000E+00  0.45593999997E+02  0.45594000000E+02  0.51100000000E-03 0. -1.
         11   -1    0    0    0    0 -0.00000000000E+00 -0.00000000000E+00 -0.45593999997E+02  0.45594000000E+02  0.51100000000E-03 0.  1.
         23    2    1    2    0    0  0.00000000000E+00 -0.35527136788E-14  0.00000000000E+00  0.91188000000E+02  0.91188000000E+02 0.  0.
    9900012    2    3    3    0    0 -0.19661938054E+02  0.29397898805E+02  0.10244460771E+02  0.54367119529E+02  0.40000080590E+02 0.  0.
         12    1    3    3    0    0  0.19661938054E+02 -0.29397898805E+02 -0.10244460771E+02  0.36820880471E+02  0.00000000000E+00 0. -1.
         11    1    4    4    0    0 -0.82128858537E+01 -0.53412381455E+01  0.11299364884E+02  0.14955131762E+02  0.51100000000E-03 0. -1.
        -11    1    4    4    0    0  0.31751164121E+01  0.11020786200E+02 -0.13323288335E+01  0.11546176557E+02  0.51100000000E-03 0.  1.
         12    1    4    4    0    0 -0.14624168612E+02  0.23718350750E+02  0.27742471983E+00  0.27865811210E+02  0.00000000000E+00 0. -1.
</event>
<event>
 8    1  0.1238315E-006  0.9118800E+02  0.7816164E-02  0.1184000E+00
        -11   -1    0    0    0    0  0.00000000000E+00  0.00000000000E+00  0.45593999997E+02  0.45594000000E+02  0.51100000000E-03 0. -1.
         11   -1    0    0    0    0 -0.00000000000E+00 -0.00000000000E+00 -0.45593999997E+02  0.45594000000E+02  0.51100000000E-03 0.  1.
         23    2    1    2    0    0  0.35527136788E-14  0.00000000000E+00  0.00000000000E+00  0.91188000000E+02  0.91188000000E+02 0.  0.
    9900012    2    3    3    0    0 -0.29906166841E+02 -0.10555008152E+02 -0.18707950676E+02  0.54367157659E+02  0.40000167514E+02 0.  0.
         12    1    3    3    0    0  0.29906166841E+02  0.10555008152E+02  0.18707950676E+02  0.36820842341E+02  0.00000000000E+00 0. -1.
         11    1    4    4    0    0 -0.15302088597E+02 -0.11498096563E+02 -0.19143801949E+02  0.27071115480E+02  0.51100000000E-03 0. -1.
        -11    1    4    4    0    0 -0.21854935449E+01 -0.58702921523E+00  0.10808723153E+02  0.11043073929E+02  0.51100000000E-03 0.  1.
        -12    1    4    4    0    0 -0.12418584700E+02  0.15301176266E+01 -0.10372871881E+02  0.16252968250E+02  0.00000000000E+00 0.  1.
</event>
<event>
 8    1  0.1238315E-006  0.9118800E+02  0.7816164E-02  0.1184000E+00
        -11   -1    0    0    0    0  0.00000000000E+00  0.00000000000E+00  0.45593999997E+02  0.45594000000E+02  0.51100000000E-03 0.  1.
         11   -1    0    0    0    0 -0.00000000000E+00 -0.00000000000E+00 -0.45593999997E+02  0.45594000000E+02  0.51100000000E-03 0. -1.
         23    2    1    2    0    0  0.00000000000E+00  0.00000000000E+00  0.00000000000E+00  0.91188000000E+02  0.91188000000E+02 0.  0.
    9900012    2    3    3    0    0  0.28382645702E+02  0.15698639738E+02 -0.17428652645E+02  0.54367084752E+02  0.40000001310E+02 0.  0.
        -12    1    3    3    0    0 -0.28382645702E+02 -0.15698639738E+02  0.17428652645E+02  0.36820915248E+02  0.00000000000E+00 0.  1.
         11    1    4    4    0    0 -0.32212108736E+01 -0.18525782268E+01 -0.25885098494E+01  0.45286453913E+01  0.51100000000E-03 0. -1.
        -11    1    4    4    0    0  0.17244494838E+02  0.62929167514E+01 -0.23352601581E+02  0.29703828109E+02  0.51100000000E-03 0.  1.
        -12    1    4    4    0    0  0.14359361737E+02  0.11258301214E+02  0.85124587849E+01  0.20134611252E+02  0.00000000000E+00 0.  1.
</event>
<event>
 8    1  0.1238315E-006  0.9118800E+02  0.7816164E-02  0.1184000E+00
        -11   -1    0    0    0    0  0.00000000000E+00  0.00000000000E+00  0.45593999997E+02  0.45594000000E+02  0.51100000000E-03 0. -1.
         11   -1    0    0    0    0 -0.00000000000E+00 -0.00000000000E+00 -0.45593999997E+02  0.45594000000E+02  0.51100000000E-03 0.  1.
         23    2    1    2    0    0  0.71054273576E-14 -0.88817841970E-15  0.00000000000E+00  0.91188000000E+02  0.91188000000E+02 0.  0.
    9900012    2    3    3    0    0  0.30151098305E+02 -0.19140949763E+01  0.21048163773E+02  0.54367113443E+02  0.40000066717E+02 0.  0.
         12    1    3    3    0    0 -0.30151098305E+02  0.19140949763E+01 -0.21048163773E+02  0.36820886557E+02  0.00000000000E+00 0. -1.
         11    1    4    4    0    0  0.21375526881E+01  0.13828467559E+01  0.19179669186E+00  0.25530732220E+01  0.51100000000E-03 0. -1.
        -11    1    4    4    0    0  0.37561303378E+02 -0.43229550377E+01  0.17218110495E+02  0.41545189626E+02  0.51100000000E-03 0.  1.
         12    1    4    4    0    0 -0.95477577614E+01  0.10260133055E+01  0.36382565864E+01  0.10268850596E+02  0.00000000000E+00 0. -1.
</event>
<event>
 8    1  0.1238315E-006  0.9118800E+02  0.7816164E-02  0.1184000E+00
        -11   -1    0    0    0    0  0.00000000000E+00  0.00000000000E+00  0.45593999997E+02  0.45594000000E+02  0.51100000000E-03 0. -1.
         11   -1    0    0    0    0 -0.00000000000E+00 -0.00000000000E+00 -0.45593999997E+02  0.45594000000E+02  0.51100000000E-03 0.  1.
         23    2    1    2    0    0  0.11102230246E-15  0.00000000000E+00  0.00000000000E+00  0.91188000000E+02  0.91188000000E+02 0.  0.
    9900012    2    3    3    0    0  0.64517904776E+00  0.32536540620E+02 -0.17226049473E+02  0.54367088660E+02  0.40000010217E+02 0.  0.
         12    1    3    3    0    0 -0.64517904776E+00 -0.32536540620E+02  0.17226049473E+02  0.36820911340E+02  0.00000000000E+00 0. -1.
         11    1    4    4    0    0 -0.38363934327E+01 -0.11561290035E+01 -0.13604837803E+02  0.14182600634E+02  0.51100000000E-03 0. -1.
        -11    1    4    4    0    0 -0.39546775830E+00  0.24418244003E+02 -0.11578342157E+02  0.27027116796E+02  0.51100000000E-03 0.  1.
         12    1    4    4    0    0  0.48770402387E+01  0.92744256198E+01  0.79571304870E+01  0.13157371229E+02  0.00000000000E+00 0. -1.
</event>
<event>
 8    1  0.1238315E-006  0.9118800E+02  0.7816164E-02  0.1184000E+00
        -11   -1    0    0    0    0  0.00000000000E+00  0.00000000000E+00  0.45593999997E+02  0.45594000000E+02  0.51100000000E-03 0.  1.
         11   -1    0    0    0    0 -0.00000000000E+00 -0.00000000000E+00 -0.45593999997E+02  0.45594000000E+02  0.51100000000E-03 0. -1.
         23    2    1    2    0    0 -0.35527136788E-14  0.00000000000E+00  0.35527136788E-14  0.91188000000E+02  0.91188000000E+02 0.  0.
    9900012    2    3    3    0    0  0.27026463792E+02 -0.99580442383E+01  0.22938786399E+02  0.54367077800E+02  0.39999985462E+02 0.  0.
         12    1    3    3    0    0 -0.27026463792E+02  0.99580442383E+01 -0.22938786399E+02  0.36820922200E+02  0.00000000000E+00 0. -1.
         11    1    4    4    0    0  0.94445431356E+01 -0.21467603699E+01 -0.46932286630E+01  0.10762637719E+02  0.51100000000E-03 0. -1.
        -11    1    4    4    0    0  0.74736227207E+01 -0.86200241513E+01 -0.26134612821E+01  0.11704274137E+02  0.51100000000E-03 0.  1.
        -12    1    4    4    0    0  0.10108297936E+02  0.80874028295E+00  0.30245476344E+02  0.31900165944E+02  0.00000000000E+00 0.  1.
</event>
<event>
 8    1  0.1238315E-006  0.9118800E+02  0.7816164E-02  0.1184000E+00
        -11   -1    0    0    0    0  0.00000000000E+00  0.00000000000E+00  0.45593999997E+02  0.45594000000E+02  0.51100000000E-03 0. -1.
         11   -1    0    0    0    0 -0.00000000000E+00 -0.00000000000E+00 -0.45593999997E+02  0.45594000000E+02  0.51100000000E-03 0.  1.
         23    2    1    2    0    0  0.00000000000E+00 -0.22204460493E-15  0.17763568394E-14  0.91188000000E+02  0.91188000000E+02 0.  0.
    9900012    2    3    3    0    0 -0.34687964160E+02 -0.11618729935E+01  0.12295350710E+02  0.54367075847E+02  0.39999981008E+02 0.  0.
        -12    1    3    3    0    0  0.34687964160E+02  0.11618729935E+01 -0.12295350710E+02  0.36820924153E+02  0.00000000000E+00 0.  1.
         11    1    4    4    0    0 -0.10191250828E+02 -0.43690956675E+01  0.11369321657E+02  0.15881185900E+02  0.51100000000E-03 0. -1.
        -11    1    4    4    0    0 -0.26044832876E+01  0.87416051722E+00  0.13061042777E+02  0.13346847137E+02  0.51100000000E-03 0.  1.
        -12    1    4    4    0    0 -0.21892230044E+02  0.23330621568E+01 -0.12135013724E+02  0.25139042810E+02  0.00000000000E+00 0.  1.
</event>
<event>
 8    1  0.1238315E-006  0.9118800E+02  0.7816164E-02  0.1184000E+00
        -11   -1    0    0    0    0  0.00000000000E+00  0.00000000000E+00  0.45593999997E+02  0.45594000000E+02  0.51100000000E-03 0. -1.
         11   -1    0    0    0    0 -0.00000000000E+00 -0.00000000000E+00 -0.45593999997E+02  0.45594000000E+02  0.51100000000E-03 0.  1.
         23    2    1    2    0    0  0.00000000000E+00  0.35527136788E-14 -0.35527136788E-14  0.91188000000E+02  0.91188000000E+02 0.  0.
    9900012    2    3    3    0    0 -0.23462465672E+02 -0.86642646869E+01  0.27022678349E+02  0.54367055918E+02  0.39999935576E+02 0.  0.
        -12    1    3    3    0    0  0.23462465672E+02  0.86642646869E+01 -0.27022678349E+02  0.36820944082E+02  0.00000000000E+00 0.  1.
         11    1    4    4    0    0 -0.56509951893E+01 -0.13270798170E+02  0.10516224718E+02  0.17850456948E+02  0.51100000000E-03 0. -1.
        -11    1    4    4    0    0 -0.71836930280E+01  0.93364037188E+01 -0.44135292553E+01  0.12579869660E+02  0.51100000000E-03 0.  1.
        -12    1    4    4    0    0 -0.10627777454E+02 -0.47298702362E+01  0.20919982886E+02  0.23936729309E+02  0.00000000000E+00 0.  1.
</event>
<event>
 8    1  0.1238315E-006  0.9118800E+02  0.7816164E-02  0.1184000E+00
        -11   -1    0    0    0    0  0.00000000000E+00  0.00000000000E+00  0.45593999997E+02  0.45594000000E+02  0.51100000000E-03 0. -1.
         11   -1    0    0    0    0 -0.00000000000E+00 -0.00000000000E+00 -0.45593999997E+02  0.45594000000E+02  0.51100000000E-03 0.  1.
         23    2    1    2    0    0  0.35527136788E-14  0.35527136788E-14  0.00000000000E+00  0.91188000000E+02  0.91188000000E+02 0.  0.
    9900012    2    3    3    0    0 -0.24646721496E+02 -0.24017036803E+02  0.13095996817E+02  0.54367026765E+02  0.39999869117E+02 0.  0.
        -12    1    3    3    0    0  0.24646721496E+02  0.24017036803E+02 -0.13095996817E+02  0.36820973235E+02  0.00000000000E+00 0.  1.
         11    1    4    4    0    0 -0.17376252008E+02 -0.10737382826E+02  0.96341704336E+01  0.22584126373E+02  0.51100000000E-03 0. -1.
        -11    1    4    4    0    0  0.27221422680E+00  0.44666676058E+01  0.10374553277E+02  0.11298520967E+02  0.51100000000E-03 0.  1.
        -12    1    4    4    0    0 -0.75426837143E+01 -0.17746321583E+02 -0.69127268934E+01  0.20484379425E+02  0.00000000000E+00 0.  1.
</event>
<event>
 8    1  0.1238315E-006  0.9118800E+02  0.7816164E-02  0.1184000E+00
        -11   -1    0    0    0    0  0.00000000000E+00  0.00000000000E+00  0.45593999997E+02  0.45594000000E+02  0.51100000000E-03 0.  1.
         11   -1    0    0    0    0 -0.00000000000E+00 -0.00000000000E+00 -0.45593999997E+02  0.45594000000E+02  0.51100000000E-03 0. -1.
         23    2    1    2    0    0 -0.88817841970E-15  0.00000000000E+00  0.00000000000E+00  0.91188000000E+02  0.91188000000E+02 0.  0.
    9900012    2    3    3    0    0  0.44566533020E+01  0.11109417129E+02 -0.34820959998E+02  0.54367079822E+02  0.39999990070E+02 0.  0.
        -12    1    3    3    0    0 -0.44566533020E+01 -0.11109417129E+02  0.34820959998E+02  0.36820920178E+02  0.00000000000E+00 0.  1.
         11    1    4    4    0    0  0.19588821708E+02  0.12997660483E+02 -0.15410448414E+02  0.28109483000E+02  0.51100000000E-03 0. -1.
        -11    1    4    4    0    0 -0.53362908316E+01  0.16565049808E+01 -0.12676006340E+02  0.13852838900E+02  0.51100000000E-03 0.  1.
         12    1    4    4    0    0 -0.97958775748E+01 -0.35447483351E+01 -0.67345052430E+01  0.12404757921E+02  0.00000000000E+00 0. -1.
</event>
<event>
 8    1  0.1238315E-006  0.9118800E+02  0.7816164E-02  0.1184000E+00
        -11   -1    0    0    0    0  0.00000000000E+00  0.00000000000E+00  0.45593999997E+02  0.45594000000E+02  0.51100000000E-03 0. -1.
         11   -1    0    0    0    0 -0.00000000000E+00 -0.00000000000E+00 -0.45593999997E+02  0.45594000000E+02  0.51100000000E-03 0.  1.
         23    2    1    2    0    0  0.00000000000E+00  0.00000000000E+00  0.00000000000E+00  0.91188000000E+02  0.91188000000E+02 0.  0.
    9900012    2    3    3    0    0  0.33796221196E+02  0.14075345516E+02  0.39345255084E+01  0.54367076472E+02  0.39999982433E+02 0.  0.
        -12    1    3    3    0    0 -0.33796221196E+02 -0.14075345516E+02 -0.39345255084E+01  0.36820923528E+02  0.00000000000E+00 0.  1.
         11    1    4    4    0    0  0.95246136021E+01  0.17049722203E+01 -0.40075173071E+01  0.10473079288E+02  0.51100000000E-03 0. -1.
        -11    1    4    4    0    0  0.12177678970E+02 -0.97710899049E+00 -0.11928846150E+02  0.17074776069E+02  0.51100000000E-03 0.  1.
         12    1    4    4    0    0  0.12093928623E+02  0.13347482286E+02  0.19870888966E+02  0.26819221115E+02  0.00000000000E+00 0. -1.
</event>
<event>
 8    1  0.1238315E-006  0.9118800E+02  0.7816164E-02  0.1184000E+00
        -11   -1    0    0    0    0  0.00000000000E+00  0.00000000000E+00  0.45593999997E+02  0.45594000000E+02  0.51100000000E-03 0.  1.
         11   -1    0    0    0    0 -0.00000000000E+00 -0.00000000000E+00 -0.45593999997E+02  0.45594000000E+02  0.51100000000E-03 0. -1.
         23    2    1    2    0    0  0.17763568394E-14 -0.35527136788E-14  0.00000000000E+00  0.91188000000E+02  0.91188000000E+02 0.  0.
    9900012    2    3    3    0    0  0.11972997819E+02  0.29639300861E+02  0.18273812291E+02  0.54367176436E+02  0.40000210321E+02 0.  0.
         12    1    3    3    0    0 -0.11972997819E+02 -0.29639300861E+02 -0.18273812291E+02  0.36820823564E+02  0.00000000000E+00 0. -1.
         11    1    4    4    0    0  0.55797108187E+01  0.88932105685E+01 -0.76376745825E+01  0.12982928804E+02  0.51100000000E-03 0. -1.
        -11    1    4    4    0    0  0.64406942632E+00  0.68956977908E+01  0.25455780880E+02  0.26381096526E+02  0.51100000000E-03 0.  1.
        -12    1    4    4    0    0  0.57492175737E+01  0.13850392501E+02  0.45570599280E+00  0.15003151106E+02  0.00000000000E+00 0.  1.
</event>
<event>
 8    1  0.1238315E-006  0.9118800E+02  0.7816164E-02  0.1184000E+00
        -11   -1    0    0    0    0  0.00000000000E+00  0.00000000000E+00  0.45593999997E+02  0.45594000000E+02  0.51100000000E-03 0.  1.
         11   -1    0    0    0    0 -0.00000000000E+00 -0.00000000000E+00 -0.45593999997E+02  0.45594000000E+02  0.51100000000E-03 0. -1.
         23    2    1    2    0    0 -0.71054273576E-14  0.00000000000E+00 -0.35527136788E-14  0.91188000000E+02  0.91188000000E+02 0.  0.
    9900012    2    3    3    0    0 -0.27711597104E+02  0.17641874916E+02 -0.16631635646E+02  0.54367086528E+02  0.40000005359E+02 0.  0.
        -12    1    3    3    0    0  0.27711597104E+02 -0.17641874916E+02  0.16631635646E+02  0.36820913472E+02  0.00000000000E+00 0.  1.
         11    1    4    4    0    0 -0.10567919136E+02  0.93883632011E+01 -0.86761821326E+01  0.16586091014E+02  0.51100000000E-03 0. -1.
        -11    1    4    4    0    0 -0.14400920987E+02 -0.10578884094E+02 -0.46614027602E+01  0.18466943166E+02  0.51100000000E-03 0.  1.
         12    1    4    4    0    0 -0.27427569806E+01  0.18832395809E+02 -0.32940507533E+01  0.19314052349E+02  0.00000000000E+00 0. -1.
</event>
<event>
 8    1  0.1238315E-006  0.9118800E+02  0.7816164E-02  0.1184000E+00
        -11   -1    0    0    0    0  0.00000000000E+00  0.00000000000E+00  0.45593999997E+02  0.45594000000E+02  0.51100000000E-03 0.  1.
         11   -1    0    0    0    0 -0.00000000000E+00 -0.00000000000E+00 -0.45593999997E+02  0.45594000000E+02  0.51100000000E-03 0. -1.
         23    2    1    2    0    0  0.00000000000E+00 -0.88817841970E-15  0.00000000000E+00  0.91188000000E+02  0.91188000000E+02 0.  0.
    9900012    2    3    3    0    0 -0.35778216539E+02  0.71400701872E+01  0.49717452578E+01  0.54367087031E+02  0.40000006504E+02 0.  0.
         12    1    3    3    0    0  0.35778216539E+02 -0.71400701872E+01 -0.49717452578E+01  0.36820912969E+02  0.00000000000E+00 0. -1.
         11    1    4    4    0    0  0.27949508631E+01  0.53216266565E+01  0.43065948025E+01  0.73944722362E+01  0.51100000000E-03 0.  1.
        -11    1    4    4    0    0 -0.14997379204E+02  0.11323152838E+02  0.81365021322E+01  0.20477740119E+02  0.51100000000E-03 0. -1.
         12    1    4    4    0    0 -0.23575788198E+02 -0.95047093074E+01 -0.74713516769E+01  0.26494874675E+02  0.00000000000E+00 0. -1.
</event>
<event>
 8    1  0.1238315E-006  0.9118800E+02  0.7816164E-02  0.1184000E+00
        -11   -1    0    0    0    0  0.00000000000E+00  0.00000000000E+00  0.45593999997E+02  0.45594000000E+02  0.51100000000E-03 0.  1.
         11   -1    0    0    0    0 -0.00000000000E+00 -0.00000000000E+00 -0.45593999997E+02  0.45594000000E+02  0.51100000000E-03 0. -1.
         23    2    1    2    0    0 -0.17763568394E-14  0.17763568394E-14  0.35527136788E-14  0.91188000000E+02  0.91188000000E+02 0.  0.
    9900012    2    3    3    0    0 -0.15784286535E+02  0.15985658646E+02  0.29173530912E+02  0.54367083530E+02  0.39999998524E+02 0.  0.
         12    1    3    3    0    0  0.15784286535E+02 -0.15985658646E+02 -0.29173530912E+02  0.36820916470E+02  0.00000000000E+00 0. -1.
         11    1    4    4    0    0 -0.16966759870E+01  0.10101373810E+02  0.17498115457E+02  0.20275613605E+02  0.51100000000E-03 0. -1.
        -11    1    4    4    0    0 -0.72804331886E+00  0.14761488949E+02  0.10254734199E+02  0.17988640216E+02  0.51100000000E-03 0.  1.
         12    1    4    4    0    0 -0.13359567229E+02 -0.88772041130E+01  0.14206812560E+01  0.16102829709E+02  0.00000000000E+00 0. -1.
</event>
<event>
 8    1  0.1238315E-006  0.9118800E+02  0.7816164E-02  0.1184000E+00
        -11   -1    0    0    0    0  0.00000000000E+00  0.00000000000E+00  0.45593999997E+02  0.45594000000E+02  0.51100000000E-03 0.  1.
         11   -1    0    0    0    0 -0.00000000000E+00 -0.00000000000E+00 -0.45593999997E+02  0.45594000000E+02  0.51100000000E-03 0. -1.
         23    2    1    2    0    0  0.00000000000E+00  0.00000000000E+00  0.35527136788E-14  0.91188000000E+02  0.91188000000E+02 0.  0.
    9900012    2    3    3    0    0  0.13217367914E+02  0.12861459952E+02 -0.31869484000E+02  0.54367082343E+02  0.39999995817E+02 0.  0.
        -12    1    3    3    0    0 -0.13217367914E+02 -0.12861459952E+02  0.31869484000E+02  0.36820917657E+02  0.00000000000E+00 0.  1.
         11    1    4    4    0    0  0.29260247304E+01  0.10766439220E+02  0.51045285921E+01  0.12269231704E+02  0.51100000000E-03 0. -1.
        -11    1    4    4    0    0 -0.21251548733E+01  0.22254876653E+01  0.18169978030E-01  0.30772404835E+01  0.51100000000E-03 0.  1.
         12    1    4    4    0    0  0.12416498057E+02 -0.13046693310E+00 -0.36992182570E+02  0.39020610156E+02  0.00000000000E+00 0. -1.
</event>
<event>
 8    1  0.1238315E-006  0.9118800E+02  0.7816164E-02  0.1184000E+00
        -11   -1    0    0    0    0  0.00000000000E+00  0.00000000000E+00  0.45593999997E+02  0.45594000000E+02  0.51100000000E-03 0. -1.
         11   -1    0    0    0    0 -0.00000000000E+00 -0.00000000000E+00 -0.45593999997E+02  0.45594000000E+02  0.51100000000E-03 0.  1.
         23    2    1    2    0    0  0.00000000000E+00  0.00000000000E+00  0.00000000000E+00  0.91188000000E+02  0.91188000000E+02 0.  0.
    9900012    2    3    3    0    0 -0.58410244920E+01  0.11149275106E+02  0.34602722069E+02  0.54367186903E+02  0.40000234183E+02 0.  0.
        -12    1    3    3    0    0  0.58410244920E+01 -0.11149275106E+02 -0.34602722069E+02  0.36820813097E+02  0.00000000000E+00 0.  1.
         11    1    4    4    0    0  0.66559115800E+01 -0.69757848950E+01  0.18764903643E+02  0.21097022132E+02  0.51100000000E-03 0. -1.
        -11    1    4    4    0    0 -0.16565439534E+02  0.18600233895E+02  0.11962088224E+02  0.27631034053E+02  0.51100000000E-03 0.  1.
        -12    1    4    4    0    0  0.40685034619E+01 -0.47517389463E+00  0.38757302029E+01  0.56391307180E+01  0.00000000000E+00 0.  1.
</event>
<event>
 8    1  0.1238315E-006  0.9118800E+02  0.7816164E-02  0.1184000E+00
        -11   -1    0    0    0    0  0.00000000000E+00  0.00000000000E+00  0.45593999997E+02  0.45594000000E+02  0.51100000000E-03 0.  1.
         11   -1    0    0    0    0 -0.00000000000E+00 -0.00000000000E+00 -0.45593999997E+02  0.45594000000E+02  0.51100000000E-03 0. -1.
         23    2    1    2    0    0 -0.44408920985E-15 -0.13322676296E-14  0.00000000000E+00  0.91188000000E+02  0.91188000000E+02 0.  0.
    9900012    2    3    3    0    0  0.18619195265E+01  0.26022494730E+01 -0.36681601264E+02  0.54367104873E+02  0.40000047179E+02 0.  0.
        -12    1    3    3    0    0 -0.18619195265E+01 -0.26022494730E+01  0.36681601264E+02  0.36820895127E+02  0.00000000000E+00 0.  1.
         11    1    4    4    0    0  0.97089221326E+01  0.29656547969E+01 -0.53674888231E+00  0.10165942011E+02  0.51100000000E-03 0.  1.
        -11    1    4    4    0    0  0.11638092645E+01  0.95962744278E+01 -0.24809435853E+02  0.26626134577E+02  0.51100000000E-03 0. -1.
        -12    1    4    4    0    0 -0.90108118705E+01 -0.99596797517E+01 -0.11335416529E+02  0.17575028284E+02  0.00000000000E+00 0.  1.
</event>
<event>
 8    1  0.1238315E-006  0.9118800E+02  0.7816164E-02  0.1184000E+00
        -11   -1    0    0    0    0  0.00000000000E+00  0.00000000000E+00  0.45593999997E+02  0.45594000000E+02  0.51100000000E-03 0.  1.
         11   -1    0    0    0    0 -0.00000000000E+00 -0.00000000000E+00 -0.45593999997E+02  0.45594000000E+02  0.51100000000E-03 0. -1.
         23    2    1    2    0    0  0.17763568394E-14  0.88817841970E-15  0.00000000000E+00  0.91188000000E+02  0.91188000000E+02 0.  0.
    9900012    2    3    3    0    0  0.91460992259E+01  0.79496433106E+01 -0.34769676735E+02  0.54367104030E+02  0.40000045256E+02 0.  0.
        -12    1    3    3    0    0 -0.91460992259E+01 -0.79496433106E+01  0.34769676735E+02  0.36820895970E+02  0.00000000000E+00 0.  1.
         11    1    4    4    0    0 -0.27968036900E+01  0.18650272479E+02 -0.30761310173E+02  0.36082031238E+02  0.51100000000E-03 0. -1.
        -11    1    4    4    0    0  0.12388297615E+02 -0.82593240524E+01 -0.48586765386E+01  0.15661835447E+02  0.51100000000E-03 0.  1.
         12    1    4    4    0    0 -0.44539469939E+00 -0.24413051159E+01  0.85030997730E+00  0.26232373443E+01  0.00000000000E+00 0. -1.
</event>
<event>
 8    1  0.1238315E-006  0.9118800E+02  0.7816164E-02  0.1184000E+00
        -11   -1    0    0    0    0  0.00000000000E+00  0.00000000000E+00  0.45593999997E+02  0.45594000000E+02  0.51100000000E-03 0.  1.
         11   -1    0    0    0    0 -0.00000000000E+00 -0.00000000000E+00 -0.45593999997E+02  0.45594000000E+02  0.51100000000E-03 0. -1.
         23    2    1    2    0    0  0.17763568394E-14  0.00000000000E+00  0.00000000000E+00  0.91188000000E+02  0.91188000000E+02 0.  0.
    9900012    2    3    3    0    0 -0.11038542243E+02 -0.31736941160E+02  0.15056456344E+02  0.54367085744E+02  0.40000003571E+02 0.  0.
         12    1    3    3    0    0  0.11038542243E+02  0.31736941160E+02 -0.15056456344E+02  0.36820914256E+02  0.00000000000E+00 0. -1.
         11    1    4    4    0    0  0.26253446124E+01  0.37038481243E+01 -0.20921019797E+01  0.49987814732E+01  0.51100000000E-03 0. -1.
        -11    1    4    4    0    0  0.43183513543E+01 -0.81235864475E+01 -0.44048847620E+01  0.10200187509E+02  0.51100000000E-03 0.  1.
        -12    1    4    4    0    0 -0.17982238210E+02 -0.27317202836E+02  0.21553443086E+02  0.39168116762E+02  0.00000000000E+00 0.  1.
</event>
<event>
 8    1  0.1238315E-006  0.9118800E+02  0.7816164E-02  0.1184000E+00
        -11   -1    0    0    0    0  0.00000000000E+00  0.00000000000E+00  0.45593999997E+02  0.45594000000E+02  0.51100000000E-03 0. -1.
         11   -1    0    0    0    0 -0.00000000000E+00 -0.00000000000E+00 -0.45593999997E+02  0.45594000000E+02  0.51100000000E-03 0.  1.
         23    2    1    2    0    0  0.00000000000E+00  0.00000000000E+00 -0.35527136788E-14  0.91188000000E+02  0.91188000000E+02 0.  0.
    9900012    2    3    3    0    0  0.98926636428E+01 -0.19840826364E+02  0.29398235973E+02  0.54367089323E+02  0.40000011729E+02 0.  0.
        -12    1    3    3    0    0 -0.98926636428E+01  0.19840826364E+02 -0.29398235973E+02  0.36820910677E+02  0.00000000000E+00 0.  1.
         11    1    4    4    0    0  0.52163905945E+01  0.50821385315E+01  0.21818515879E+02  0.23001880322E+02  0.51100000000E-03 0. -1.
        -11    1    4    4    0    0  0.36026516255E+01 -0.21900807197E+02 -0.98775103791E+00  0.22217112931E+02  0.51100000000E-03 0.  1.
        -12    1    4    4    0    0  0.10736214228E+01 -0.30221576983E+01  0.85674711320E+01  0.91480960703E+01  0.00000000000E+00 0.  1.
</event>
<event>
 8    1  0.1238315E-006  0.9118800E+02  0.7816164E-02  0.1184000E+00
        -11   -1    0    0    0    0  0.00000000000E+00  0.00000000000E+00  0.45593999997E+02  0.45594000000E+02  0.51100000000E-03 0.  1.
         11   -1    0    0    0    0 -0.00000000000E+00 -0.00000000000E+00 -0.45593999997E+02  0.45594000000E+02  0.51100000000E-03 0. -1.
         23    2    1    2    0    0  0.00000000000E+00  0.00000000000E+00  0.00000000000E+00  0.91188000000E+02  0.91188000000E+02 0.  0.
    9900012    2    3    3    0    0  0.23731990376E+02  0.57630446360E+01 -0.27556533049E+02  0.54367047210E+02  0.39999915726E+02 0.  0.
        -12    1    3    3    0    0 -0.23731990376E+02 -0.57630446360E+01  0.27556533049E+02  0.36820952790E+02  0.00000000000E+00 0.  1.
         11    1    4    4    0    0  0.14480720334E+02  0.11237030205E+02 -0.19933907511E+02  0.27079933126E+02  0.51100000000E-03 0. -1.
        -11    1    4    4    0    0  0.11404154096E+02  0.70830172607E+01 -0.46238450421E+01  0.14198725555E+02  0.51100000000E-03 0.  1.
        -12    1    4    4    0    0 -0.21528840545E+01 -0.12557002830E+02 -0.29987804957E+01  0.13088388529E+02  0.00000000000E+00 0.  1.
</event>
<event>
 8    1  0.1238315E-006  0.9118800E+02  0.7816164E-02  0.1184000E+00
        -11   -1    0    0    0    0  0.00000000000E+00  0.00000000000E+00  0.45593999997E+02  0.45594000000E+02  0.51100000000E-03 0. -1.
         11   -1    0    0    0    0 -0.00000000000E+00 -0.00000000000E+00 -0.45593999997E+02  0.45594000000E+02  0.51100000000E-03 0.  1.
         23    2    1    2    0    0  0.35527136788E-14 -0.88817841970E-15  0.35527136788E-14  0.91188000000E+02  0.91188000000E+02 0.  0.
    9900012    2    3    3    0    0 -0.29302504901E+02 -0.43866061341E+01 -0.21860973673E+02  0.54367064695E+02  0.39999955585E+02 0.  0.
         12    1    3    3    0    0  0.29302504901E+02  0.43866061341E+01  0.21860973673E+02  0.36820935305E+02  0.00000000000E+00 0. -1.
         11    1    4    4    0    0  0.21551708184E+01  0.23124307721E+01  0.32906539636E+01  0.45629487288E+01  0.51100000000E-03 0. -1.
        -11    1    4    4    0    0  0.11736344688E+01 -0.39421626180E+01 -0.14948229298E+02  0.15503793838E+02  0.51100000000E-03 0.  1.
         12    1    4    4    0    0 -0.32631310188E+02 -0.27568742882E+01 -0.10203398338E+02  0.34300322128E+02  0.00000000000E+00 0. -1.
</event>
<event>
 8    1  0.1238315E-006  0.9118800E+02  0.7816164E-02  0.1184000E+00
        -11   -1    0    0    0    0  0.00000000000E+00  0.00000000000E+00  0.45593999997E+02  0.45594000000E+02  0.51100000000E-03 0.  1.
         11   -1    0    0    0    0 -0.00000000000E+00 -0.00000000000E+00 -0.45593999997E+02  0.45594000000E+02  0.51100000000E-03 0. -1.
         23    2    1    2    0    0  0.17763568394E-14  0.00000000000E+00 -0.88817841970E-15  0.91188000000E+02  0.91188000000E+02 0.  0.
    9900012    2    3    3    0    0 -0.15395447084E+02 -0.33415875684E+02 -0.14621227744E+01  0.54367104551E+02  0.40000046446E+02 0.  0.
         12    1    3    3    0    0  0.15395447084E+02  0.33415875684E+02  0.14621227744E+01  0.36820895449E+02  0.00000000000E+00 0. -1.
         11    1    4    4    0    0 -0.15333334815E+02 -0.20268729704E+02  0.13264190636E+01  0.25449792694E+02  0.51100000000E-03 0. -1.
        -11    1    4    4    0    0  0.10511595923E+02 -0.10301633905E+02 -0.80427215230E+01  0.16772080363E+02  0.51100000000E-03 0.  1.
        -12    1    4    4    0    0 -0.10573708191E+02 -0.28455120749E+01  0.52541796850E+01  0.12145231494E+02  0.00000000000E+00 0.  1.
</event>
<event>
 8    1  0.1238315E-006  0.9118800E+02  0.7816164E-02  0.1184000E+00
        -11   -1    0    0    0    0  0.00000000000E+00  0.00000000000E+00  0.45593999997E+02  0.45594000000E+02  0.51100000000E-03 0.  1.
         11   -1    0    0    0    0 -0.00000000000E+00 -0.00000000000E+00 -0.45593999997E+02  0.45594000000E+02  0.51100000000E-03 0. -1.
         23    2    1    2    0    0  0.00000000000E+00 -0.17763568394E-14 -0.11102230246E-15  0.91188000000E+02  0.91188000000E+02 0.  0.
    9900012    2    3    3    0    0 -0.35260502549E+02  0.10586458255E+02 -0.63894815626E+00  0.54367022377E+02  0.39999859112E+02 0.  0.
        -12    1    3    3    0    0  0.35260502549E+02 -0.10586458255E+02  0.63894815626E+00  0.36820977623E+02  0.00000000000E+00 0.  1.
         11    1    4    4    0    0 -0.80546616428E+01  0.47914123887E+01 -0.81293465562E+01  0.12406509684E+02  0.51100000000E-03 0. -1.
        -11    1    4    4    0    0  0.53842917792E+01 -0.45430046333E+01  0.20727870521E+01  0.73434280473E+01  0.51100000000E-03 0.  1.
        -12    1    4    4    0    0 -0.32590132685E+02  0.10338050500E+02  0.54176113479E+01  0.34617084645E+02  0.00000000000E+00 0.  1.
</event>
<event>
 8    1  0.1238315E-006  0.9118800E+02  0.7816164E-02  0.1184000E+00
        -11   -1    0    0    0    0  0.00000000000E+00  0.00000000000E+00  0.45593999997E+02  0.45594000000E+02  0.51100000000E-03 0. -1.
         11   -1    0    0    0    0 -0.00000000000E+00 -0.00000000000E+00 -0.45593999997E+02  0.45594000000E+02  0.51100000000E-03 0.  1.
         23    2    1    2    0    0  0.00000000000E+00  0.00000000000E+00  0.00000000000E+00  0.91188000000E+02  0.91188000000E+02 0.  0.
    9900012    2    3    3    0    0 -0.26645203625E+02  0.23573863901E+02 -0.94914205998E+01  0.54367068447E+02  0.39999964139E+02 0.  0.
         12    1    3    3    0    0  0.26645203625E+02 -0.23573863901E+02  0.94914205998E+01  0.36820931553E+02  0.00000000000E+00 0. -1.
         11    1    4    4    0    0 -0.39127125250E+01 -0.44125316766E+01  0.20176810123E+01  0.62330403519E+01  0.51100000000E-03 0. -1.
        -11    1    4    4    0    0 -0.21950435255E+02  0.22908547341E+02  0.38297304003E+01  0.31957627953E+02  0.51100000000E-03 0.  1.
        -12    1    4    4    0    0 -0.78205584413E+00  0.50778482361E+01 -0.15338832012E+02  0.16176400142E+02  0.00000000000E+00 0.  1.
</event>
<event>
 8    1  0.1238315E-006  0.9118800E+02  0.7816164E-02  0.1184000E+00
        -11   -1    0    0    0    0  0.00000000000E+00  0.00000000000E+00  0.45593999997E+02  0.45594000000E+02  0.51100000000E-03 0. -1.
         11   -1    0    0    0    0 -0.00000000000E+00 -0.00000000000E+00 -0.45593999997E+02  0.45594000000E+02  0.51100000000E-03 0.  1.
         23    2    1    2    0    0  0.00000000000E+00 -0.35527136788E-14  0.17763568394E-14  0.91188000000E+02  0.91188000000E+02 0.  0.
    9900012    2    3    3    0    0  0.27354573131E+02 -0.19932032844E+02  0.14498982961E+02  0.54367094099E+02  0.40000022617E+02 0.  0.
        -12    1    3    3    0    0 -0.27354573131E+02  0.19932032844E+02 -0.14498982961E+02  0.36820905901E+02  0.00000000000E+00 0.  1.
         11    1    4    4    0    0  0.51615976735E+01  0.25076845347E+01  0.71625664982E+01  0.91778500407E+01  0.51100000000E-03 0. -1.
        -11    1    4    4    0    0 -0.19235714011E+00 -0.22038506073E+02  0.17185194023E+01  0.22106244828E+02  0.51100000000E-03 0.  1.
         12    1    4    4    0    0  0.22385332598E+02 -0.40121130486E+00  0.56178970610E+01  0.23082999229E+02  0.00000000000E+00 0. -1.
</event>
<event>
 8    1  0.1238315E-006  0.9118800E+02  0.7816164E-02  0.1184000E+00
        -11   -1    0    0    0    0  0.00000000000E+00  0.00000000000E+00  0.45593999997E+02  0.45594000000E+02  0.51100000000E-03 0. -1.
         11   -1    0    0    0    0 -0.00000000000E+00 -0.00000000000E+00 -0.45593999997E+02  0.45594000000E+02  0.51100000000E-03 0.  1.
         23    2    1    2    0    0 -0.71054273576E-14  0.00000000000E+00  0.00000000000E+00  0.91188000000E+02  0.91188000000E+02 0.  0.
    9900012    2    3    3    0    0  0.35155243458E+02 -0.10937969743E+02 -0.49876663545E+00  0.54367094351E+02  0.40000023192E+02 0.  0.
        -12    1    3    3    0    0 -0.35155243458E+02  0.10937969743E+02  0.49876663545E+00  0.36820905649E+02  0.00000000000E+00 0.  1.
         11    1    4    4    0    0 -0.68080279196E+00 -0.11926366416E+02 -0.94748976787E+01  0.15247143818E+02  0.51100000000E-03 0. -1.
        -11    1    4    4    0    0  0.10667255590E+02  0.52150066898E+01  0.63469436527E+01  0.13463667056E+02  0.51100000000E-03 0.  1.
         12    1    4    4    0    0  0.25168790660E+02 -0.42266100163E+01  0.26291873905E+01  0.25656283477E+02  0.00000000000E+00 0. -1.
</event>
<event>
 8    1  0.1238315E-006  0.9118800E+02  0.7816164E-02  0.1184000E+00
        -11   -1    0    0    0    0  0.00000000000E+00  0.00000000000E+00  0.45593999997E+02  0.45594000000E+02  0.51100000000E-03 0. -1.
         11   -1    0    0    0    0 -0.00000000000E+00 -0.00000000000E+00 -0.45593999997E+02  0.45594000000E+02  0.51100000000E-03 0.  1.
         23    2    1    2    0    0 -0.66613381478E-15  0.00000000000E+00  0.00000000000E+00  0.91188000000E+02  0.91188000000E+02 0.  0.
    9900012    2    3    3    0    0 -0.10625091454E+01  0.26966677223E+02  0.25048931502E+02  0.54367087796E+02  0.40000008248E+02 0.  0.
        -12    1    3    3    0    0  0.10625091454E+01 -0.26966677223E+02 -0.25048931502E+02  0.36820912204E+02  0.00000000000E+00 0.  1.
         11    1    4    4    0    0  0.12341606407E+01  0.11242223021E+02  0.31840776946E+02  0.33789729323E+02  0.51100000000E-03 0. -1.
        -11    1    4    4    0    0  0.40370820893E+01  0.95455614774E+01 -0.51677940564E+01  0.11581099749E+02  0.51100000000E-03 0.  1.
         12    1    4    4    0    0 -0.63337518755E+01  0.61788927248E+01 -0.16240513875E+01  0.89962587242E+01  0.00000000000E+00 0. -1.
</event>
<event>
 8    1  0.1238315E-006  0.9118800E+02  0.7816164E-02  0.1184000E+00
        -11   -1    0    0    0    0  0.00000000000E+00  0.00000000000E+00  0.45593999997E+02  0.45594000000E+02  0.51100000000E-03 0. -1.
         11   -1    0    0    0    0 -0.00000000000E+00 -0.00000000000E+00 -0.45593999997E+02  0.45594000000E+02  0.51100000000E-03 0.  1.
         23    2    1    2    0    0  0.17763568394E-14  0.00000000000E+00  0.00000000000E+00  0.91188000000E+02  0.91188000000E+02 0.  0.
    9900012    2    3    3    0    0  0.72818135309E+01 -0.25962747305E+02 -0.25073710522E+02  0.54367081825E+02  0.39999994636E+02 0.  0.
         12    1    3    3    0    0 -0.72818135309E+01  0.25962747305E+02  0.25073710522E+02  0.36820918175E+02  0.00000000000E+00 0. -1.
         11    1    4    4    0    0  0.91278698436E+01 -0.12170425116E+02 -0.13910487001E+02  0.20614046285E+02  0.51100000000E-03 0. -1.
        -11    1    4    4    0    0 -0.94568033011E+01 -0.18776220369E+02 -0.24664241946E+01  0.21167447380E+02  0.51100000000E-03 0.  1.
        -12    1    4    4    0    0  0.76107469884E+01  0.49838981801E+01 -0.86967993268E+01  0.12585588160E+02  0.00000000000E+00 0.  1.
</event>
<event>
 8    1  0.1238315E-006  0.9118800E+02  0.7816164E-02  0.1184000E+00
        -11   -1    0    0    0    0  0.00000000000E+00  0.00000000000E+00  0.45593999997E+02  0.45594000000E+02  0.51100000000E-03 0. -1.
         11   -1    0    0    0    0 -0.00000000000E+00 -0.00000000000E+00 -0.45593999997E+02  0.45594000000E+02  0.51100000000E-03 0.  1.
         23    2    1    2    0    0 -0.35527136788E-14  0.00000000000E+00  0.00000000000E+00  0.91188000000E+02  0.91188000000E+02 0.  0.
    9900012    2    3    3    0    0 -0.14279599055E+02  0.32389345398E+02 -0.10139170646E+02  0.54367089828E+02  0.40000012881E+02 0.  0.
        -12    1    3    3    0    0  0.14279599055E+02 -0.32389345398E+02  0.10139170646E+02  0.36820910172E+02  0.00000000000E+00 0.  1.
         11    1    4    4    0    0 -0.23647481824E+02  0.30867092338E+02 -0.54021252705E+00  0.38887949494E+02  0.51100000000E-03 0. -1.
        -11    1    4    4    0    0  0.66713002796E+01 -0.13214277281E+01 -0.22727410858E+01  0.71706185902E+01  0.51100000000E-03 0.  1.
         12    1    4    4    0    0  0.26965824889E+01  0.28436807881E+01 -0.73262170334E+01  0.83085217436E+01  0.00000000000E+00 0. -1.
</event>
<event>
 8    1  0.1238315E-006  0.9118800E+02  0.7816164E-02  0.1184000E+00
        -11   -1    0    0    0    0  0.00000000000E+00  0.00000000000E+00  0.45593999997E+02  0.45594000000E+02  0.51100000000E-03 0.  1.
         11   -1    0    0    0    0 -0.00000000000E+00 -0.00000000000E+00 -0.45593999997E+02  0.45594000000E+02  0.51100000000E-03 0. -1.
         23    2    1    2    0    0 -0.88817841970E-15 -0.35527136788E-14 -0.35527136788E-14  0.91188000000E+02  0.91188000000E+02 0.  0.
    9900012    2    3    3    0    0  0.50687288655E+01  0.25797191223E+02  0.25779746769E+02  0.54367049024E+02  0.39999919859E+02 0.  0.
         12    1    3    3    0    0 -0.50687288655E+01 -0.25797191223E+02 -0.25779746769E+02  0.36820950976E+02  0.00000000000E+00 0. -1.
         11    1    4    4    0    0 -0.91646156740E+01  0.26331923610E+02  0.85270167807E+01  0.29155966746E+02  0.51100000000E-03 0. -1.
        -11    1    4    4    0    0  0.15763152381E+02  0.75396196610E+00  0.12764283015E+02  0.20297102078E+02  0.51100000000E-03 0.  1.
        -12    1    4    4    0    0 -0.15298078412E+01 -0.12886943529E+01  0.44884469734E+01  0.49139801994E+01  0.00000000000E+00 0.  1.
</event>
<event>
 8    1  0.1238315E-006  0.9118800E+02  0.7816164E-02  0.1184000E+00
        -11   -1    0    0    0    0  0.00000000000E+00  0.00000000000E+00  0.45593999997E+02  0.45594000000E+02  0.51100000000E-03 0.  1.
         11   -1    0    0    0    0 -0.00000000000E+00 -0.00000000000E+00 -0.45593999997E+02  0.45594000000E+02  0.51100000000E-03 0. -1.
         23    2    1    2    0    0  0.35527136788E-14  0.35527136788E-14  0.00000000000E+00  0.91188000000E+02  0.91188000000E+02 0.  0.
    9900012    2    3    3    0    0  0.20392876526E+02  0.24582104551E+02  0.18320221673E+02  0.54367084757E+02  0.40000001321E+02 0.  0.
         12    1    3    3    0    0 -0.20392876526E+02 -0.24582104551E+02 -0.18320221673E+02  0.36820915243E+02  0.00000000000E+00 0. -1.
         11    1    4    4    0    0 -0.81086554041E+01 -0.40436753165E+00  0.54241380048E+01  0.97639684001E+01  0.51100000000E-03 0. -1.
        -11    1    4    4    0    0  0.10174319272E+02  0.30699298487E+01 -0.40648131685E+01  0.11378222545E+02  0.51100000000E-03 0.  1.
        -12    1    4    4    0    0  0.18327212658E+02  0.21916542234E+02  0.16960896837E+02  0.33224893812E+02  0.00000000000E+00 0.  1.
</event>
<event>
 8    1  0.1238315E-006  0.9118800E+02  0.7816164E-02  0.1184000E+00
        -11   -1    0    0    0    0  0.00000000000E+00  0.00000000000E+00  0.45593999997E+02  0.45594000000E+02  0.51100000000E-03 0.  1.
         11   -1    0    0    0    0 -0.00000000000E+00 -0.00000000000E+00 -0.45593999997E+02  0.45594000000E+02  0.51100000000E-03 0. -1.
         23    2    1    2    0    0  0.00000000000E+00  0.00000000000E+00  0.17763568394E-14  0.91188000000E+02  0.91188000000E+02 0.  0.
    9900012    2    3    3    0    0 -0.33285249303E+02  0.10251710270E+02  0.11948546457E+02  0.54367175090E+02  0.40000207252E+02 0.  0.
         12    1    3    3    0    0  0.33285249303E+02 -0.10251710270E+02 -0.11948546457E+02  0.36820824910E+02  0.00000000000E+00 0. -1.
         11    1    4    4    0    0 -0.20821786152E+02 -0.21079786434E+01  0.15784226509E+02  0.26213205818E+02  0.51100000000E-03 0. -1.
        -11    1    4    4    0    0 -0.18346627580E+02  0.73777322497E+01 -0.57293825261E+00  0.19782768644E+02  0.51100000000E-03 0.  1.
         12    1    4    4    0    0  0.58831644293E+01  0.49819566642E+01 -0.32627417995E+01  0.83712006281E+01  0.00000000000E+00 0. -1.
</event>
<event>
 8    1  0.1238315E-006  0.9118800E+02  0.7816164E-02  0.1184000E+00
        -11   -1    0    0    0    0  0.00000000000E+00  0.00000000000E+00  0.45593999997E+02  0.45594000000E+02  0.51100000000E-03 0.  1.
         11   -1    0    0    0    0 -0.00000000000E+00 -0.00000000000E+00 -0.45593999997E+02  0.45594000000E+02  0.51100000000E-03 0. -1.
         23    2    1    2    0    0 -0.35527136788E-14  0.00000000000E+00 -0.44408920985E-15  0.91188000000E+02  0.91188000000E+02 0.  0.
    9900012    2    3    3    0    0 -0.26017582133E+02  0.25948829781E+02  0.23499706761E+01  0.54367099560E+02  0.40000035068E+02 0.  0.
         12    1    3    3    0    0  0.26017582133E+02 -0.25948829781E+02 -0.23499706761E+01  0.36820900440E+02  0.00000000000E+00 0. -1.
         11    1    4    4    0    0 -0.15654306212E+02  0.11898367752E+02 -0.24882262014E+01  0.19819680321E+02  0.51100000000E-03 0.  1.
        -11    1    4    4    0    0  0.90851125365E+01  0.12967393961E+01 -0.35269277776E+01  0.98315829179E+01  0.51100000000E-03 0. -1.
         12    1    4    4    0    0 -0.19448388457E+02  0.12753722632E+02  0.83651246551E+01  0.24715836321E+02  0.00000000000E+00 0. -1.
</event>
<event>
 8    1  0.1238315E-006  0.9118800E+02  0.7816164E-02  0.1184000E+00
        -11   -1    0    0    0    0  0.00000000000E+00  0.00000000000E+00  0.45593999997E+02  0.45594000000E+02  0.51100000000E-03 0.  1.
         11   -1    0    0    0    0 -0.00000000000E+00 -0.00000000000E+00 -0.45593999997E+02  0.45594000000E+02  0.51100000000E-03 0. -1.
         23    2    1    2    0    0  0.00000000000E+00  0.00000000000E+00  0.00000000000E+00  0.91188000000E+02  0.91188000000E+02 0.  0.
    9900012    2    3    3    0    0  0.72609156188E+01 -0.17771734793E+02 -0.31420125058E+02  0.54367085945E+02  0.40000004029E+02 0.  0.
        -12    1    3    3    0    0 -0.72609156188E+01  0.17771734793E+02  0.31420125058E+02  0.36820914055E+02  0.00000000000E+00 0.  1.
         11    1    4    4    0    0 -0.36952628139E+01 -0.11373377044E+01 -0.53555831663E+01  0.66053596139E+01  0.51100000000E-03 0. -1.
        -11    1    4    4    0    0  0.19026504585E+02 -0.22444146371E+02 -0.23030626111E+02  0.37365188644E+02  0.51100000000E-03 0.  1.
        -12    1    4    4    0    0 -0.80703261520E+01  0.58097492825E+01 -0.30339157806E+01  0.10396537688E+02  0.00000000000E+00 0.  1.
</event>
<event>
 8    1  0.1238315E-006  0.9118800E+02  0.7816164E-02  0.1184000E+00
        -11   -1    0    0    0    0  0.00000000000E+00  0.00000000000E+00  0.45593999997E+02  0.45594000000E+02  0.51100000000E-03 0. -1.
         11   -1    0    0    0    0 -0.00000000000E+00 -0.00000000000E+00 -0.45593999997E+02  0.45594000000E+02  0.51100000000E-03 0.  1.
         23    2    1    2    0    0 -0.17763568394E-14  0.00000000000E+00  0.00000000000E+00  0.91188000000E+02  0.91188000000E+02 0.  0.
    9900012    2    3    3    0    0  0.77452246433E+01  0.34964403047E+02  0.85607459560E+01  0.54367022874E+02  0.39999860245E+02 0.  0.
        -12    1    3    3    0    0 -0.77452246433E+01 -0.34964403047E+02 -0.85607459560E+01  0.36820977126E+02  0.00000000000E+00 0.  1.
         11    1    4    4    0    0 -0.25323010333E+01  0.33126926507E+02  0.91856554494E+01  0.34470017038E+02  0.51100000000E-03 0. -1.
        -11    1    4    4    0    0  0.51580569373E+01  0.50357756151E+01  0.70834007689E+01  0.10106391746E+02  0.51100000000E-03 0.  1.
        -12    1    4    4    0    0  0.51194687393E+01 -0.31982990751E+01 -0.77083102623E+01  0.97906140894E+01  0.00000000000E+00 0.  1.
</event>
<event>
 8    1  0.1238315E-006  0.9118800E+02  0.7816164E-02  0.1184000E+00
        -11   -1    0    0    0    0  0.00000000000E+00  0.00000000000E+00  0.45593999997E+02  0.45594000000E+02  0.51100000000E-03 0.  1.
         11   -1    0    0    0    0 -0.00000000000E+00 -0.00000000000E+00 -0.45593999997E+02  0.45594000000E+02  0.51100000000E-03 0. -1.
         23    2    1    2    0    0  0.00000000000E+00  0.00000000000E+00  0.35527136788E-14  0.91188000000E+02  0.91188000000E+02 0.  0.
    9900012    2    3    3    0    0 -0.23364193366E+02 -0.12173916157E+02  0.25723326428E+02  0.54367091691E+02  0.40000017127E+02 0.  0.
         12    1    3    3    0    0  0.23364193366E+02  0.12173916157E+02 -0.25723326428E+02  0.36820908309E+02  0.00000000000E+00 0. -1.
         11    1    4    4    0    0 -0.99716364082E+01  0.20071049268E+01  0.30544726487E+02  0.32193824241E+02  0.51100000000E-03 0. -1.
        -11    1    4    4    0    0 -0.43376105499E+01 -0.87834738049E+01  0.14566061938E+01  0.99038365914E+01  0.51100000000E-03 0.  1.
         12    1    4    4    0    0 -0.90549464074E+01 -0.53975472789E+01 -0.62780062531E+01  0.12269430858E+02  0.00000000000E+00 0. -1.
</event>
<event>
 8    1  0.1238315E-006  0.9118800E+02  0.7816164E-02  0.1184000E+00
        -11   -1    0    0    0    0  0.00000000000E+00  0.00000000000E+00  0.45593999997E+02  0.45594000000E+02  0.51100000000E-03 0.  1.
         11   -1    0    0    0    0 -0.00000000000E+00 -0.00000000000E+00 -0.45593999997E+02  0.45594000000E+02  0.51100000000E-03 0. -1.
         23    2    1    2    0    0  0.00000000000E+00  0.35527136788E-14  0.35527136788E-14  0.91188000000E+02  0.91188000000E+02 0.  0.
    9900012    2    3    3    0    0  0.27498970252E+02  0.23011609307E+02  0.83698698821E+01  0.54367051484E+02  0.39999925467E+02 0.  0.
        -12    1    3    3    0    0 -0.27498970252E+02 -0.23011609307E+02 -0.83698698821E+01  0.36820948516E+02  0.00000000000E+00 0.  1.
         11    1    4    4    0    0  0.22105309278E+02  0.18698101335E+02 -0.74641190841E+01  0.29899444239E+02  0.51100000000E-03 0. -1.
        -11    1    4    4    0    0  0.35437025921E+01  0.63784778330E+01 -0.10372203731E+01  0.73701176307E+01  0.51100000000E-03 0.  1.
        -12    1    4    4    0    0  0.18499583815E+01 -0.20649698611E+01  0.16871209339E+02  0.17097489614E+02  0.00000000000E+00 0.  1.
</event>
<event>
 8    1  0.1238315E-006  0.9118800E+02  0.7816164E-02  0.1184000E+00
        -11   -1    0    0    0    0  0.00000000000E+00  0.00000000000E+00  0.45593999997E+02  0.45594000000E+02  0.51100000000E-03 0.  1.
         11   -1    0    0    0    0 -0.00000000000E+00 -0.00000000000E+00 -0.45593999997E+02  0.45594000000E+02  0.51100000000E-03 0. -1.
         23    2    1    2    0    0 -0.33306690739E-15  0.00000000000E+00  0.88817841970E-15  0.91188000000E+02  0.91188000000E+02 0.  0.
    9900012    2    3    3    0    0 -0.98494618391E+00  0.36441767154E+02  0.51776945644E+01  0.54367068000E+02  0.39999963120E+02 0.  0.
        -12    1    3    3    0    0  0.98494618391E+00 -0.36441767154E+02 -0.51776945644E+01  0.36820932000E+02  0.00000000000E+00 0.  1.
         11    1    4    4    0    0 -0.63885347634E+01  0.11138371193E+02 -0.12932891273E+02  0.18224608808E+02  0.51100000000E-03 0. -1.
        -11    1    4    4    0    0 -0.49473292945E+01  0.11969992595E+02  0.13358639449E+02  0.18606720240E+02  0.51100000000E-03 0.  1.
        -12    1    4    4    0    0  0.10350917874E+02  0.13333403366E+02  0.47519463876E+01  0.17535738953E+02  0.00000000000E+00 0.  1.
</event>
<event>
 8    1  0.1238315E-006  0.9118800E+02  0.7816164E-02  0.1184000E+00
        -11   -1    0    0    0    0  0.00000000000E+00  0.00000000000E+00  0.45593999997E+02  0.45594000000E+02  0.51100000000E-03 0.  1.
         11   -1    0    0    0    0 -0.00000000000E+00 -0.00000000000E+00 -0.45593999997E+02  0.45594000000E+02  0.51100000000E-03 0. -1.
         23    2    1    2    0    0  0.44408920985E-15  0.00000000000E+00  0.00000000000E+00  0.91188000000E+02  0.91188000000E+02 0.  0.
    9900012    2    3    3    0    0 -0.28500881006E+01 -0.39735573721E+01 -0.36494766461E+02  0.54367080139E+02  0.39999990794E+02 0.  0.
        -12    1    3    3    0    0  0.28500881006E+01  0.39735573721E+01  0.36494766461E+02  0.36820919861E+02  0.00000000000E+00 0.  1.
         11    1    4    4    0    0  0.25253619216E+01  0.41670028934E+01 -0.12663287583E+02  0.13568353571E+02  0.51100000000E-03 0. -1.
        -11    1    4    4    0    0  0.72432562533E+01 -0.12978296417E+02 -0.18256052332E+01  0.14974437344E+02  0.51100000000E-03 0.  1.
        -12    1    4    4    0    0 -0.12618706276E+02  0.48377361511E+01 -0.22005873644E+02  0.25824289225E+02  0.00000000000E+00 0.  1.
</event>
<event>
 8    1  0.1238315E-006  0.9118800E+02  0.7816164E-02  0.1184000E+00
        -11   -1    0    0    0    0  0.00000000000E+00  0.00000000000E+00  0.45593999997E+02  0.45594000000E+02  0.51100000000E-03 0.  1.
         11   -1    0    0    0    0 -0.00000000000E+00 -0.00000000000E+00 -0.45593999997E+02  0.45594000000E+02  0.51100000000E-03 0. -1.
         23    2    1    2    0    0 -0.35527136788E-14  0.00000000000E+00 -0.35527136788E-14  0.91188000000E+02  0.91188000000E+02 0.  0.
    9900012    2    3    3    0    0  0.26081837899E+02  0.18098812712E+02  0.18653445459E+02  0.54367077724E+02  0.39999985287E+02 0.  0.
         12    1    3    3    0    0 -0.26081837899E+02 -0.18098812712E+02 -0.18653445459E+02  0.36820922276E+02  0.00000000000E+00 0. -1.
         11    1    4    4    0    0  0.15583319011E+02  0.98915893310E+01  0.48711495634E+01  0.19089564407E+02  0.51100000000E-03 0. -1.
        -11    1    4    4    0    0  0.14037822764E+02  0.17362137759E+02  0.71997247368E+01  0.23459333581E+02  0.51100000000E-03 0.  1.
         12    1    4    4    0    0 -0.35393038766E+01 -0.91549143784E+01  0.65825711592E+01  0.11818179736E+02  0.00000000000E+00 0. -1.
</event>
<event>
 8    1  0.1238315E-006  0.9118800E+02  0.7816164E-02  0.1184000E+00
        -11   -1    0    0    0    0  0.00000000000E+00  0.00000000000E+00  0.45593999997E+02  0.45594000000E+02  0.51100000000E-03 0. -1.
         11   -1    0    0    0    0 -0.00000000000E+00 -0.00000000000E+00 -0.45593999997E+02  0.45594000000E+02  0.51100000000E-03 0.  1.
         23    2    1    2    0    0  0.35527136788E-14 -0.35527136788E-14  0.00000000000E+00  0.91188000000E+02  0.91188000000E+02 0.  0.
    9900012    2    3    3    0    0 -0.89906548223E+01  0.29833127499E+02  0.19619730534E+02  0.54367065782E+02  0.39999958063E+02 0.  0.
        -12    1    3    3    0    0  0.89906548223E+01 -0.29833127499E+02 -0.19619730534E+02  0.36820934218E+02  0.00000000000E+00 0.  1.
         11    1    4    4    0    0 -0.79570021208E+01  0.10523945853E+02  0.16854819315E+02  0.21404491432E+02  0.51100000000E-03 0. -1.
        -11    1    4    4    0    0  0.73818758933E+01  0.22020162348E+02 -0.12373608455E+01  0.23257487046E+02  0.51100000000E-03 0.  1.
        -12    1    4    4    0    0 -0.84155285948E+01 -0.27109807030E+01  0.40022720643E+01  0.97050873040E+01  0.00000000000E+00 0.  1.
</event>
<event>
 8    1  0.1238315E-006  0.9118800E+02  0.7816164E-02  0.1184000E+00
        -11   -1    0    0    0    0  0.00000000000E+00  0.00000000000E+00  0.45593999997E+02  0.45594000000E+02  0.51100000000E-03 0.  1.
         11   -1    0    0    0    0 -0.00000000000E+00 -0.00000000000E+00 -0.45593999997E+02  0.45594000000E+02  0.51100000000E-03 0. -1.
         23    2    1    2    0    0 -0.17763568394E-14 -0.35527136788E-14  0.00000000000E+00  0.91188000000E+02  0.91188000000E+02 0.  0.
    9900012    2    3    3    0    0 -0.15379505373E+02 -0.30963242515E+02  0.12669936837E+02  0.54367097349E+02  0.40000030026E+02 0.  0.
        -12    1    3    3    0    0  0.15379505373E+02  0.30963242515E+02 -0.12669936837E+02  0.36820902651E+02  0.00000000000E+00 0.  1.
         11    1    4    4    0    0 -0.55928909650E+01 -0.26496324240E+01  0.19259225006E+02  0.20229155430E+02  0.51100000000E-03 0. -1.
        -11    1    4    4    0    0 -0.26966027494E+01  0.12015377553E+01 -0.16559355334E+01  0.33848902667E+01  0.51100000000E-03 0.  1.
         12    1    4    4    0    0 -0.70900116591E+01 -0.29515147846E+02 -0.49333526349E+01  0.30753051652E+02  0.00000000000E+00 0. -1.
</event>
<event>
 8    1  0.1238315E-006  0.9118800E+02  0.7816164E-02  0.1184000E+00
        -11   -1    0    0    0    0  0.00000000000E+00  0.00000000000E+00  0.45593999997E+02  0.45594000000E+02  0.51100000000E-03 0. -1.
         11   -1    0    0    0    0 -0.00000000000E+00 -0.00000000000E+00 -0.45593999997E+02  0.45594000000E+02  0.51100000000E-03 0.  1.
         23    2    1    2    0    0 -0.17763568394E-14  0.00000000000E+00  0.88817841970E-15  0.91188000000E+02  0.91188000000E+02 0.  0.
    9900012    2    3    3    0    0  0.11154652077E+02 -0.35006361959E+02  0.24307922410E+01  0.54367076716E+02  0.39999982989E+02 0.  0.
        -12    1    3    3    0    0 -0.11154652077E+02  0.35006361959E+02 -0.24307922410E+01  0.36820923284E+02  0.00000000000E+00 0.  1.
         11    1    4    4    0    0  0.21952592712E+01  0.53151955408E+01  0.59218687674E+01  0.82546348716E+01  0.51100000000E-03 0. -1.
        -11    1    4    4    0    0  0.88485490847E+01 -0.10927225101E+02  0.59085041007E+01  0.15251606154E+02  0.51100000000E-03 0.  1.
         12    1    4    4    0    0  0.11084372096E+00 -0.29394332399E+02 -0.93995806271E+01  0.30860835690E+02  0.00000000000E+00 0. -1.
</event>
<event>
 8    1  0.1238315E-006  0.9118800E+02  0.7816164E-02  0.1184000E+00
        -11   -1    0    0    0    0  0.00000000000E+00  0.00000000000E+00  0.45593999997E+02  0.45594000000E+02  0.51100000000E-03 0.  1.
         11   -1    0    0    0    0 -0.00000000000E+00 -0.00000000000E+00 -0.45593999997E+02  0.45594000000E+02  0.51100000000E-03 0. -1.
         23    2    1    2    0    0 -0.44408920985E-15  0.17763568394E-14  0.71054273576E-14  0.91188000000E+02  0.91188000000E+02 0.  0.
    9900012    2    3    3    0    0  0.25638434584E+01 -0.13626644978E+02 -0.34110428165E+02  0.54367081268E+02  0.39999993367E+02 0.  0.
        -12    1    3    3    0    0 -0.25638434584E+01  0.13626644978E+02  0.34110428165E+02  0.36820918732E+02  0.00000000000E+00 0.  1.
         11    1    4    4    0    0 -0.28939137196E+01 -0.94687834483E+00 -0.10086776890E+02  0.10536336342E+02  0.51100000000E-03 0. -1.
        -11    1    4    4    0    0 -0.57887794599E+01  0.19870953819E+01  0.60022212469E+01  0.85723494941E+01  0.51100000000E-03 0.  1.
        -12    1    4    4    0    0  0.11246536638E+02 -0.14666862015E+02 -0.30025872522E+02  0.35258395432E+02  0.00000000000E+00 0.  1.
</event>
<event>
 8    1  0.1238315E-006  0.9118800E+02  0.7816164E-02  0.1184000E+00
        -11   -1    0    0    0    0  0.00000000000E+00  0.00000000000E+00  0.45593999997E+02  0.45594000000E+02  0.51100000000E-03 0. -1.
         11   -1    0    0    0    0 -0.00000000000E+00 -0.00000000000E+00 -0.45593999997E+02  0.45594000000E+02  0.51100000000E-03 0.  1.
         23    2    1    2    0    0  0.00000000000E+00  0.00000000000E+00  0.17763568394E-14  0.91188000000E+02  0.91188000000E+02 0.  0.
    9900012    2    3    3    0    0  0.28966260777E+02 -0.18252010506E+02 -0.13549885972E+02  0.54367087997E+02  0.40000008706E+02 0.  0.
         12    1    3    3    0    0 -0.28966260777E+02  0.18252010506E+02  0.13549885972E+02  0.36820912003E+02  0.00000000000E+00 0. -1.
         11    1    4    4    0    0  0.20195336149E+02 -0.16295587136E+02 -0.93108963835E+01  0.27569739825E+02  0.51100000000E-03 0. -1.
        -11    1    4    4    0    0 -0.74702296110E+01  0.44023636035E+01  0.61558062794E+00  0.86927599477E+01  0.51100000000E-03 0.  1.
        -12    1    4    4    0    0  0.16241154239E+02 -0.63587869728E+01 -0.48545702161E+01  0.18104588224E+02  0.00000000000E+00 0.  1.
</event>
<event>
 8    1  0.1238315E-006  0.9118800E+02  0.7816164E-02  0.1184000E+00
        -11   -1    0    0    0    0  0.00000000000E+00  0.00000000000E+00  0.45593999997E+02  0.45594000000E+02  0.51100000000E-03 0.  1.
         11   -1    0    0    0    0 -0.00000000000E+00 -0.00000000000E+00 -0.45593999997E+02  0.45594000000E+02  0.51100000000E-03 0. -1.
         23    2    1    2    0    0  0.00000000000E+00  0.35527136788E-14  0.00000000000E+00  0.91188000000E+02  0.91188000000E+02 0.  0.
    9900012    2    3    3    0    0 -0.23479147301E+02  0.16816297387E+02 -0.22841265380E+02  0.54367060034E+02  0.39999944960E+02 0.  0.
        -12    1    3    3    0    0  0.23479147301E+02 -0.16816297387E+02  0.22841265380E+02  0.36820939966E+02  0.00000000000E+00 0.  1.
         11    1    4    4    0    0 -0.92553502818E+01  0.90119685298E+01 -0.83329228629E+01  0.15372530349E+02  0.51100000000E-03 0. -1.
        -11    1    4    4    0    0  0.10391748825E+02  0.46221170348E+01 -0.47149619854E+01  0.12311916029E+02  0.51100000000E-03 0.  1.
         12    1    4    4    0    0 -0.24615545844E+02  0.31822118222E+01 -0.97933805319E+01  0.26682613656E+02  0.00000000000E+00 0. -1.
</event>
<event>
 8    1  0.1238315E-006  0.9118800E+02  0.7816164E-02  0.1184000E+00
        -11   -1    0    0    0    0  0.00000000000E+00  0.00000000000E+00  0.45593999997E+02  0.45594000000E+02  0.51100000000E-03 0. -1.
         11   -1    0    0    0    0 -0.00000000000E+00 -0.00000000000E+00 -0.45593999997E+02  0.45594000000E+02  0.51100000000E-03 0.  1.
         23    2    1    2    0    0  0.00000000000E+00 -0.35527136788E-14 -0.28865798640E-14  0.91188000000E+02  0.91188000000E+02 0.  0.
    9900012    2    3    3    0    0  0.32377343271E+02  0.17426146147E+02  0.19543413138E+01  0.54367049757E+02  0.39999921532E+02 0.  0.
         12    1    3    3    0    0 -0.32377343271E+02 -0.17426146147E+02 -0.19543413138E+01  0.36820950243E+02  0.00000000000E+00 0. -1.
         11    1    4    4    0    0 -0.57655754371E+00  0.27785954025E+01 -0.26911660681E+00  0.28505148695E+01  0.51100000000E-03 0. -1.
        -11    1    4    4    0    0  0.27704794598E+02  0.23288131788E+02  0.11314941511E+02  0.37919923887E+02  0.51100000000E-03 0.  1.
        -12    1    4    4    0    0  0.52491062160E+01 -0.86405810438E+01 -0.90914835903E+01  0.13596611001E+02  0.00000000000E+00 0.  1.
</event>
<event>
 8    1  0.1238315E-006  0.9118800E+02  0.7816164E-02  0.1184000E+00
        -11   -1    0    0    0    0  0.00000000000E+00  0.00000000000E+00  0.45593999997E+02  0.45594000000E+02  0.51100000000E-03 0. -1.
         11   -1    0    0    0    0 -0.00000000000E+00 -0.00000000000E+00 -0.45593999997E+02  0.45594000000E+02  0.51100000000E-03 0.  1.
         23    2    1    2    0    0  0.88817841970E-15  0.35527136788E-14  0.00000000000E+00  0.91188000000E+02  0.91188000000E+02 0.  0.
    9900012    2    3    3    0    0  0.73127677725E+01  0.16055653911E+02 -0.32319016024E+02  0.54367090292E+02  0.40000013938E+02 0.  0.
         12    1    3    3    0    0 -0.73127677725E+01 -0.16055653911E+02  0.32319016024E+02  0.36820909708E+02  0.00000000000E+00 0. -1.
         11    1    4    4    0    0  0.50082098045E+01 -0.31940851381E+01  0.37198658514E+01  0.70086908570E+01  0.51100000000E-03 0. -1.
        -11    1    4    4    0    0 -0.92308195117E+01  0.16430519421E+02 -0.21734310535E+02  0.28767173166E+02  0.51100000000E-03 0.  1.
         12    1    4    4    0    0  0.11535377480E+02  0.28192196277E+01 -0.14304571341E+02  0.18591226268E+02  0.00000000000E+00 0. -1.
</event>
<event>
 8    1  0.1238315E-006  0.9118800E+02  0.7816164E-02  0.1184000E+00
        -11   -1    0    0    0    0  0.00000000000E+00  0.00000000000E+00  0.45593999997E+02  0.45594000000E+02  0.51100000000E-03 0.  1.
         11   -1    0    0    0    0 -0.00000000000E+00 -0.00000000000E+00 -0.45593999997E+02  0.45594000000E+02  0.51100000000E-03 0. -1.
         23    2    1    2    0    0  0.83266726847E-15  0.22204460493E-15  0.00000000000E+00  0.91188000000E+02  0.91188000000E+02 0.  0.
    9900012    2    3    3    0    0 -0.81229429661E-01 -0.18429452113E+01  0.36774680264E+02  0.54367079944E+02  0.39999990348E+02 0.  0.
         12    1    3    3    0    0  0.81229429661E-01  0.18429452113E+01 -0.36774680264E+02  0.36820920056E+02  0.00000000000E+00 0. -1.
         11    1    4    4    0    0 -0.16147116941E+02 -0.55328705853E+01  0.10440243660E+02  0.20008516446E+02  0.51100000000E-03 0. -1.
        -11    1    4    4    0    0  0.15978679240E+02 -0.13632516837E+01  0.23815778255E+02  0.28711808365E+02  0.51100000000E-03 0.  1.
        -12    1    4    4    0    0  0.87208271296E-01  0.50531770577E+01  0.25186583485E+01  0.56467551333E+01  0.00000000000E+00 0.  1.
</event>
<event>
 8    1  0.1238315E-006  0.9118800E+02  0.7816164E-02  0.1184000E+00
        -11   -1    0    0    0    0  0.00000000000E+00  0.00000000000E+00  0.45593999997E+02  0.45594000000E+02  0.51100000000E-03 0.  1.
         11   -1    0    0    0    0 -0.00000000000E+00 -0.00000000000E+00 -0.45593999997E+02  0.45594000000E+02  0.51100000000E-03 0. -1.
         23    2    1    2    0    0  0.00000000000E+00 -0.22204460493E-15 -0.17763568394E-14  0.91188000000E+02  0.91188000000E+02 0.  0.
    9900012    2    3    3    0    0  0.34017933796E+02  0.18747667698E+01  0.13965852237E+02  0.54367087478E+02  0.40000007525E+02 0.  0.
         12    1    3    3    0    0 -0.34017933796E+02 -0.18747667698E+01 -0.13965852237E+02  0.36820912522E+02  0.00000000000E+00 0. -1.
         11    1    4    4    0    0  0.38798604292E+02  0.32055358184E+01  0.13876479766E+02  0.41329938856E+02  0.51100000000E-03 0. -1.
        -11    1    4    4    0    0 -0.33948270244E+01 -0.12791222822E+01  0.59751285575E+01  0.69902193011E+01  0.51100000000E-03 0.  1.
         12    1    4    4    0    0 -0.13858434715E+01 -0.51646766371E-01 -0.58857560857E+01  0.60469293213E+01  0.00000000000E+00 0. -1.
</event>
<event>
 8    1  0.1238315E-006  0.9118800E+02  0.7816164E-02  0.1184000E+00
        -11   -1    0    0    0    0  0.00000000000E+00  0.00000000000E+00  0.45593999997E+02  0.45594000000E+02  0.51100000000E-03 0.  1.
         11   -1    0    0    0    0 -0.00000000000E+00 -0.00000000000E+00 -0.45593999997E+02  0.45594000000E+02  0.51100000000E-03 0. -1.
         23    2    1    2    0    0  0.17763568394E-14 -0.71054273576E-14  0.17763568394E-14  0.91188000000E+02  0.91188000000E+02 0.  0.
    9900012    2    3    3    0    0  0.12244871273E+02 -0.33222786641E+02  0.10103835925E+02  0.54367110208E+02  0.40000059341E+02 0.  0.
         12    1    3    3    0    0 -0.12244871273E+02  0.33222786641E+02 -0.10103835925E+02  0.36820889792E+02  0.00000000000E+00 0. -1.
         11    1    4    4    0    0 -0.57014099029E+01 -0.99709196807E+00 -0.38844957430E+01  0.69706222615E+01  0.51100000000E-03 0. -1.
        -11    1    4    4    0    0  0.11968721241E+02 -0.22922810091E+01  0.11524868876E+02  0.16772818584E+02  0.51100000000E-03 0.  1.
         12    1    4    4    0    0  0.59775599351E+01 -0.29933413664E+02  0.24634627915E+01  0.30623669363E+02  0.00000000000E+00 0. -1.
</event>
<event>
 8    1  0.1238315E-006  0.9118800E+02  0.7816164E-02  0.1184000E+00
        -11   -1    0    0    0    0  0.00000000000E+00  0.00000000000E+00  0.45593999997E+02  0.45594000000E+02  0.51100000000E-03 0. -1.
         11   -1    0    0    0    0 -0.00000000000E+00 -0.00000000000E+00 -0.45593999997E+02  0.45594000000E+02  0.51100000000E-03 0.  1.
         23    2    1    2    0    0  0.00000000000E+00  0.00000000000E+00  0.00000000000E+00  0.91188000000E+02  0.91188000000E+02 0.  0.
    9900012    2    3    3    0    0  0.25369974474E+02  0.12679863575E+02 -0.23481114398E+02  0.54367118989E+02  0.40000079359E+02 0.  0.
         12    1    3    3    0    0 -0.25369974474E+02 -0.12679863575E+02  0.23481114398E+02  0.36820881011E+02  0.00000000000E+00 0. -1.
         11    1    4    4    0    0  0.12462990398E+02  0.97929490417E+01 -0.44007666726E+01  0.16449763772E+02  0.51100000000E-03 0. -1.
        -11    1    4    4    0    0  0.10455399409E+02  0.16006338844E+02 -0.13732289307E+02  0.23539201980E+02  0.51100000000E-03 0.  1.
        -12    1    4    4    0    0  0.24515846672E+01 -0.13119424311E+02 -0.53480584181E+01  0.14378153236E+02  0.00000000000E+00 0.  1.
</event>
<event>
 8    1  0.1238315E-006  0.9118800E+02  0.7816164E-02  0.1184000E+00
        -11   -1    0    0    0    0  0.00000000000E+00  0.00000000000E+00  0.45593999997E+02  0.45594000000E+02  0.51100000000E-03 0. -1.
         11   -1    0    0    0    0 -0.00000000000E+00 -0.00000000000E+00 -0.45593999997E+02  0.45594000000E+02  0.51100000000E-03 0.  1.
         23    2    1    2    0    0  0.00000000000E+00 -0.88817841970E-15  0.00000000000E+00  0.91188000000E+02  0.91188000000E+02 0.  0.
    9900012    2    3    3    0    0  0.33316177365E+02  0.64911572744E+01 -0.14271508194E+02  0.54367099099E+02  0.40000034017E+02 0.  0.
         12    1    3    3    0    0 -0.33316177365E+02 -0.64911572744E+01  0.14271508194E+02  0.36820900901E+02  0.00000000000E+00 0. -1.
         11    1    4    4    0    0  0.11438330705E+02 -0.14842668631E+02 -0.93218933114E+01  0.20929355379E+02  0.51100000000E-03 0. -1.
        -11    1    4    4    0    0  0.54021798667E+01  0.30406761753E+01  0.38455377807E+01  0.72950270732E+01  0.51100000000E-03 0.  1.
         12    1    4    4    0    0  0.16475666794E+02  0.18293149730E+02 -0.87951526637E+01  0.26142716648E+02  0.00000000000E+00 0. -1.
</event>
<event>
 8    1  0.1238315E-006  0.9118800E+02  0.7816164E-02  0.1184000E+00
        -11   -1    0    0    0    0  0.00000000000E+00  0.00000000000E+00  0.45593999997E+02  0.45594000000E+02  0.51100000000E-03 0.  1.
         11   -1    0    0    0    0 -0.00000000000E+00 -0.00000000000E+00 -0.45593999997E+02  0.45594000000E+02  0.51100000000E-03 0. -1.
         23    2    1    2    0    0  0.00000000000E+00  0.00000000000E+00  0.00000000000E+00  0.91188000000E+02  0.91188000000E+02 0.  0.
    9900012    2    3    3    0    0 -0.40492199306E+01 -0.19054846947E+02 -0.31245755808E+02  0.54367073474E+02  0.39999975598E+02 0.  0.
        -12    1    3    3    0    0  0.40492199306E+01  0.19054846947E+02  0.31245755808E+02  0.36820926526E+02  0.00000000000E+00 0.  1.
         11    1    4    4    0    0 -0.68695810827E+01  0.27775462757E+01 -0.51250279846E+01  0.90095404805E+01  0.51100000000E-03 0. -1.
        -11    1    4    4    0    0 -0.42681161880E+01 -0.59527709827E+01  0.55747577719E+01  0.92049020985E+01  0.51100000000E-03 0.  1.
         12    1    4    4    0    0  0.70884773401E+01 -0.15879622240E+02 -0.31695485595E+02  0.36152630895E+02  0.00000000000E+00 0. -1.
</event>
<event>
 8    1  0.1238315E-006  0.9118800E+02  0.7816164E-02  0.1184000E+00
        -11   -1    0    0    0    0  0.00000000000E+00  0.00000000000E+00  0.45593999997E+02  0.45594000000E+02  0.51100000000E-03 0.  1.
         11   -1    0    0    0    0 -0.00000000000E+00 -0.00000000000E+00 -0.45593999997E+02  0.45594000000E+02  0.51100000000E-03 0. -1.
         23    2    1    2    0    0 -0.35527136788E-14  0.00000000000E+00  0.35527136788E-14  0.91188000000E+02  0.91188000000E+02 0.  0.
    9900012    2    3    3    0    0  0.17827946797E+02 -0.22584783271E+02 -0.22975431474E+02  0.54367101399E+02  0.40000039259E+02 0.  0.
        -12    1    3    3    0    0 -0.17827946797E+02  0.22584783271E+02  0.22975431474E+02  0.36820898601E+02  0.00000000000E+00 0.  1.
         11    1    4    4    0    0  0.99720072027E+00 -0.21938144900E+02 -0.10445801778E+02  0.24318539963E+02  0.51100000000E-03 0. -1.
        -11    1    4    4    0    0  0.21240067136E+01  0.66473889218E+01  0.28646480776E+01  0.75435663228E+01  0.51100000000E-03 0.  1.
        -12    1    4    4    0    0  0.14706739363E+02 -0.72940272934E+01 -0.15394277774E+02  0.22504995113E+02  0.00000000000E+00 0.  1.
</event>
<event>
 8    1  0.1238315E-006  0.9118800E+02  0.7816164E-02  0.1184000E+00
        -11   -1    0    0    0    0  0.00000000000E+00  0.00000000000E+00  0.45593999997E+02  0.45594000000E+02  0.51100000000E-03 0. -1.
         11   -1    0    0    0    0 -0.00000000000E+00 -0.00000000000E+00 -0.45593999997E+02  0.45594000000E+02  0.51100000000E-03 0.  1.
         23    2    1    2    0    0  0.00000000000E+00  0.00000000000E+00 -0.17763568394E-14  0.91188000000E+02  0.91188000000E+02 0.  0.
    9900012    2    3    3    0    0  0.34892661759E+02 -0.59994351028E+01 -0.10113781115E+02  0.54367086994E+02  0.40000006420E+02 0.  0.
         12    1    3    3    0    0 -0.34892661759E+02  0.59994351028E+01  0.10113781115E+02  0.36820913006E+02  0.00000000000E+00 0. -1.
         11    1    4    4    0    0 -0.49852362424E+01 -0.83454428840E+01 -0.38056253532E+01  0.10439433984E+02  0.51100000000E-03 0. -1.
        -11    1    4    4    0    0  0.22449627875E+02 -0.50988317857E+01 -0.91323625472E+01  0.24766588850E+02  0.51100000000E-03 0.  1.
         12    1    4    4    0    0  0.17428270126E+02  0.74448395669E+01  0.28242067853E+01  0.19161064160E+02  0.00000000000E+00 0. -1.
</event>
<event>
 8    1  0.1238315E-006  0.9118800E+02  0.7816164E-02  0.1184000E+00
        -11   -1    0    0    0    0  0.00000000000E+00  0.00000000000E+00  0.45593999997E+02  0.45594000000E+02  0.51100000000E-03 0. -1.
         11   -1    0    0    0    0 -0.00000000000E+00 -0.00000000000E+00 -0.45593999997E+02  0.45594000000E+02  0.51100000000E-03 0.  1.
         23    2    1    2    0    0  0.44408920985E-15  0.00000000000E+00  0.00000000000E+00  0.91188000000E+02  0.91188000000E+02 0.  0.
    9900012    2    3    3    0    0 -0.16999964373E+01  0.19270315861E+02 -0.31329588933E+02  0.54367106421E+02  0.40000050707E+02 0.  0.
         12    1    3    3    0    0  0.16999964373E+01 -0.19270315861E+02  0.31329588933E+02  0.36820893579E+02  0.00000000000E+00 0. -1.
         11    1    4    4    0    0  0.13597060633E+01  0.85794723779E+01 -0.35978263521E+02  0.37012046595E+02  0.51100000000E-03 0. -1.
        -11    1    4    4    0    0 -0.26304697749E+01  0.29296362488E+01 -0.40779874133E+01  0.56685202118E+01  0.51100000000E-03 0.  1.
         12    1    4    4    0    0 -0.42923272567E+00  0.77612072342E+01  0.87266620014E+01  0.11686539614E+02  0.00000000000E+00 0. -1.
</event>
<event>
 8    1  0.1238315E-006  0.9118800E+02  0.7816164E-02  0.1184000E+00
        -11   -1    0    0    0    0  0.00000000000E+00  0.00000000000E+00  0.45593999997E+02  0.45594000000E+02  0.51100000000E-03 0.  1.
         11   -1    0    0    0    0 -0.00000000000E+00 -0.00000000000E+00 -0.45593999997E+02  0.45594000000E+02  0.51100000000E-03 0. -1.
         23    2    1    2    0    0  0.00000000000E+00  0.00000000000E+00  0.00000000000E+00  0.91188000000E+02  0.91188000000E+02 0.  0.
    9900012    2    3    3    0    0  0.62466201480E+01 -0.83107974445E+01  0.35322662029E+02  0.54367081078E+02  0.39999992934E+02 0.  0.
         12    1    3    3    0    0 -0.62466201480E+01  0.83107974445E+01 -0.35322662029E+02  0.36820918922E+02  0.00000000000E+00 0. -1.
         11    1    4    4    0    0 -0.90573840775E+01 -0.14564220951E+02  0.19694082496E+02  0.26115313972E+02  0.51100000000E-03 0. -1.
        -11    1    4    4    0    0  0.77365909290E+01  0.11327499158E+02  0.12667157559E+02  0.18671474427E+02  0.51100000000E-03 0.  1.
         12    1    4    4    0    0  0.75674132965E+01 -0.50740756517E+01  0.29614219734E+01  0.95802926795E+01  0.00000000000E+00 0. -1.
</event>
<event>
 8    1  0.1238315E-006  0.9118800E+02  0.7816164E-02  0.1184000E+00
        -11   -1    0    0    0    0  0.00000000000E+00  0.00000000000E+00  0.45593999997E+02  0.45594000000E+02  0.51100000000E-03 0.  1.
         11   -1    0    0    0    0 -0.00000000000E+00 -0.00000000000E+00 -0.45593999997E+02  0.45594000000E+02  0.51100000000E-03 0. -1.
         23    2    1    2    0    0 -0.35527136788E-14  0.35527136788E-14  0.35527136788E-14  0.91188000000E+02  0.91188000000E+02 0.  0.
    9900012    2    3    3    0    0 -0.18671087580E+02  0.18077741741E+02  0.26083752028E+02  0.54367131220E+02  0.40000107241E+02 0.  0.
         12    1    3    3    0    0  0.18671087580E+02 -0.18077741741E+02 -0.26083752028E+02  0.36820868780E+02  0.00000000000E+00 0. -1.
         11    1    4    4    0    0 -0.11395165648E+02  0.19088401395E+02  0.43669603959E+01  0.22655842763E+02  0.51100000000E-03 0. -1.
        -11    1    4    4    0    0  0.74163240983E+01  0.20330175380E+01  0.10317366735E+02  0.12867908923E+02  0.51100000000E-03 0.  1.
        -12    1    4    4    0    0 -0.14692246030E+02 -0.30436771915E+01  0.11399424897E+02  0.18843379533E+02  0.00000000000E+00 0.  1.
</event>
<event>
 8    1  0.1238315E-006  0.9118800E+02  0.7816164E-02  0.1184000E+00
        -11   -1    0    0    0    0  0.00000000000E+00  0.00000000000E+00  0.45593999997E+02  0.45594000000E+02  0.51100000000E-03 0.  1.
         11   -1    0    0    0    0 -0.00000000000E+00 -0.00000000000E+00 -0.45593999997E+02  0.45594000000E+02  0.51100000000E-03 0. -1.
         23    2    1    2    0    0  0.53290705182E-14  0.71054273576E-14  0.00000000000E+00  0.91188000000E+02  0.91188000000E+02 0.  0.
    9900012    2    3    3    0    0 -0.13390678381E+02 -0.32140061975E+02 -0.11978513899E+02  0.54367100412E+02  0.40000037008E+02 0.  0.
         12    1    3    3    0    0  0.13390678381E+02  0.32140061975E+02  0.11978513899E+02  0.36820899588E+02  0.00000000000E+00 0. -1.
         11    1    4    4    0    0 -0.52274251912E+01 -0.52177235220E+01 -0.52101325361E+01  0.90385891701E+01  0.51100000000E-03 0. -1.
        -11    1    4    4    0    0  0.11942429571E+02 -0.19476041356E+02 -0.23366470687E-02  0.22845958432E+02  0.51100000000E-03 0.  1.
        -12    1    4    4    0    0 -0.20105682761E+02 -0.74462970978E+01 -0.67660447155E+01  0.22482552810E+02  0.00000000000E+00 0.  1.
</event>
<event>
 8    1  0.1238315E-006  0.9118800E+02  0.7816164E-02  0.1184000E+00
        -11   -1    0    0    0    0  0.00000000000E+00  0.00000000000E+00  0.45593999997E+02  0.45594000000E+02  0.51100000000E-03 0. -1.
         11   -1    0    0    0    0 -0.00000000000E+00 -0.00000000000E+00 -0.45593999997E+02  0.45594000000E+02  0.51100000000E-03 0.  1.
         23    2    1    2    0    0 -0.35527136788E-14 -0.17763568394E-14  0.00000000000E+00  0.91188000000E+02  0.91188000000E+02 0.  0.
    9900012    2    3    3    0    0  0.26844916917E+02 -0.13308089749E+02 -0.21401517804E+02  0.54367085001E+02  0.40000001877E+02 0.  0.
         12    1    3    3    0    0 -0.26844916917E+02  0.13308089749E+02  0.21401517804E+02  0.36820914999E+02  0.00000000000E+00 0. -1.
         11    1    4    4    0    0  0.31137728699E+01  0.11381557334E+02 -0.14167039305E+02  0.18437473573E+02  0.51100000000E-03 0. -1.
        -11    1    4    4    0    0  0.17410294741E+02 -0.19297499504E+02 -0.19081530676E+01  0.26060562128E+02  0.51100000000E-03 0.  1.
         12    1    4    4    0    0  0.63208493063E+01 -0.53921475793E+01 -0.53263254318E+01  0.98690492994E+01  0.00000000000E+00 0. -1.
</event>
<event>
 8    1  0.1238315E-006  0.9118800E+02  0.7816164E-02  0.1184000E+00
        -11   -1    0    0    0    0  0.00000000000E+00  0.00000000000E+00  0.45593999997E+02  0.45594000000E+02  0.51100000000E-03 0. -1.
         11   -1    0    0    0    0 -0.00000000000E+00 -0.00000000000E+00 -0.45593999997E+02  0.45594000000E+02  0.51100000000E-03 0.  1.
         23    2    1    2    0    0  0.35527136788E-14  0.00000000000E+00  0.00000000000E+00  0.91188000000E+02  0.91188000000E+02 0.  0.
    9900012    2    3    3    0    0  0.11344163820E+02  0.17082015858E+02 -0.30582648438E+02  0.54367031734E+02  0.39999880444E+02 0.  0.
         12    1    3    3    0    0 -0.11344163820E+02 -0.17082015858E+02  0.30582648438E+02  0.36820968266E+02  0.00000000000E+00 0. -1.
         11    1    4    4    0    0  0.43398637370E+01 -0.57358276669E+01  0.28438181863E+01  0.77344320035E+01  0.51100000000E-03 0. -1.
        -11    1    4    4    0    0  0.14383059578E+02  0.19947233142E+02 -0.24889635149E+02  0.34989404839E+02  0.51100000000E-03 0.  1.
         12    1    4    4    0    0 -0.73787594947E+01  0.28706103826E+01 -0.85368314751E+01  0.11643194892E+02  0.00000000000E+00 0. -1.
</event>
<event>
 8    1  0.1238315E-006  0.9118800E+02  0.7816164E-02  0.1184000E+00
        -11   -1    0    0    0    0  0.00000000000E+00  0.00000000000E+00  0.45593999997E+02  0.45594000000E+02  0.51100000000E-03 0.  1.
         11   -1    0    0    0    0 -0.00000000000E+00 -0.00000000000E+00 -0.45593999997E+02  0.45594000000E+02  0.51100000000E-03 0. -1.
         23    2    1    2    0    0  0.00000000000E+00  0.00000000000E+00  0.71054273576E-14  0.91188000000E+02  0.91188000000E+02 0.  0.
    9900012    2    3    3    0    0  0.10559574048E+02  0.99425456669E+01 -0.33844079709E+02  0.54367074567E+02  0.39999978090E+02 0.  0.
        -12    1    3    3    0    0 -0.10559574048E+02 -0.99425456669E+01  0.33844079709E+02  0.36820925433E+02  0.00000000000E+00 0.  1.
         11    1    4    4    0    0 -0.42605695496E+00  0.14803454820E+01  0.57870956520E+01  0.59886078199E+01  0.51100000000E-03 0. -1.
        -11    1    4    4    0    0 -0.44721424040E+01  0.10878691779E+02 -0.20805933171E+02  0.23900477984E+02  0.51100000000E-03 0.  1.
         12    1    4    4    0    0  0.15457773407E+02 -0.24164915946E+01 -0.18825242190E+02  0.24477988762E+02  0.00000000000E+00 0. -1.
</event>
<event>
 8    1  0.1238315E-006  0.9118800E+02  0.7816164E-02  0.1184000E+00
        -11   -1    0    0    0    0  0.00000000000E+00  0.00000000000E+00  0.45593999997E+02  0.45594000000E+02  0.51100000000E-03 0.  1.
         11   -1    0    0    0    0 -0.00000000000E+00 -0.00000000000E+00 -0.45593999997E+02  0.45594000000E+02  0.51100000000E-03 0. -1.
         23    2    1    2    0    0  0.00000000000E+00  0.00000000000E+00  0.00000000000E+00  0.91188000000E+02  0.91188000000E+02 0.  0.
    9900012    2    3    3    0    0 -0.11589762695E+02  0.21775949960E+02 -0.27336172354E+02  0.54367069608E+02  0.39999966786E+02 0.  0.
        -12    1    3    3    0    0  0.11589762695E+02 -0.21775949960E+02  0.27336172354E+02  0.36820930392E+02  0.00000000000E+00 0.  1.
         11    1    4    4    0    0 -0.65581793053E+01  0.15869997974E+02 -0.25083750999E+02  0.30398373574E+02  0.51100000000E-03 0. -1.
        -11    1    4    4    0    0 -0.65946034848E+01  0.51931211550E+01  0.91619790513E+01  0.12425745968E+02  0.51100000000E-03 0.  1.
        -12    1    4    4    0    0  0.15630200952E+01  0.71283083022E+00 -0.11414400406E+02  0.11542950066E+02  0.00000000000E+00 0.  1.
</event>
<event>
 8    1  0.1238315E-006  0.9118800E+02  0.7816164E-02  0.1184000E+00
        -11   -1    0    0    0    0  0.00000000000E+00  0.00000000000E+00  0.45593999997E+02  0.45594000000E+02  0.51100000000E-03 0. -1.
         11   -1    0    0    0    0 -0.00000000000E+00 -0.00000000000E+00 -0.45593999997E+02  0.45594000000E+02  0.51100000000E-03 0.  1.
         23    2    1    2    0    0  0.00000000000E+00 -0.17763568394E-14 -0.35527136788E-14  0.91188000000E+02  0.91188000000E+02 0.  0.
    9900012    2    3    3    0    0 -0.17643916110E+02  0.83517297051E+01 -0.31220516083E+02  0.54367084894E+02  0.40000001633E+02 0.  0.
         12    1    3    3    0    0  0.17643916110E+02 -0.83517297051E+01  0.31220516083E+02  0.36820915106E+02  0.00000000000E+00 0. -1.
         11    1    4    4    0    0  0.51795801430E+00  0.55779431677E+01 -0.20128151874E+02  0.20893162245E+02  0.51100000000E-03 0. -1.
        -11    1    4    4    0    0 -0.94002702624E+01  0.54023219232E+01  0.72047632477E+01  0.13017633306E+02  0.51100000000E-03 0.  1.
        -12    1    4    4    0    0 -0.87616038623E+01 -0.26285353858E+01 -0.18297127457E+02  0.20456289343E+02  0.00000000000E+00 0.  1.
</event>
<event>
 8    1  0.1238315E-006  0.9118800E+02  0.7816164E-02  0.1184000E+00
        -11   -1    0    0    0    0  0.00000000000E+00  0.00000000000E+00  0.45593999997E+02  0.45594000000E+02  0.51100000000E-03 0. -1.
         11   -1    0    0    0    0 -0.00000000000E+00 -0.00000000000E+00 -0.45593999997E+02  0.45594000000E+02  0.51100000000E-03 0.  1.
         23    2    1    2    0    0  0.35527136788E-14 -0.13322676296E-14  0.35527136788E-14  0.91188000000E+02  0.91188000000E+02 0.  0.
    9900012    2    3    3    0    0  0.19298967375E+02 -0.32306996415E+01 -0.31191222068E+02  0.54367083444E+02  0.39999998327E+02 0.  0.
         12    1    3    3    0    0 -0.19298967375E+02  0.32306996415E+01  0.31191222068E+02  0.36820916556E+02  0.00000000000E+00 0. -1.
         11    1    4    4    0    0 -0.10130589288E+01 -0.97215619257E+01 -0.42595747508E+01  0.10662036953E+02  0.51100000000E-03 0. -1.
        -11    1    4    4    0    0  0.13148082011E+02 -0.92029742945E+01 -0.18537910687E+02  0.24519806877E+02  0.51100000000E-03 0.  1.
         12    1    4    4    0    0  0.71639442936E+01  0.15693836579E+02 -0.83937366307E+01  0.19185239613E+02  0.00000000000E+00 0. -1.
</event>
<event>
 8    1  0.1238315E-006  0.9118800E+02  0.7816164E-02  0.1184000E+00
        -11   -1    0    0    0    0  0.00000000000E+00  0.00000000000E+00  0.45593999997E+02  0.45594000000E+02  0.51100000000E-03 0. -1.
         11   -1    0    0    0    0 -0.00000000000E+00 -0.00000000000E+00 -0.45593999997E+02  0.45594000000E+02  0.51100000000E-03 0.  1.
         23    2    1    2    0    0 -0.22204460493E-15  0.71054273576E-14  0.00000000000E+00  0.91188000000E+02  0.91188000000E+02 0.  0.
    9900012    2    3    3    0    0 -0.14869218288E+01  0.36745278933E+02  0.18311674962E+01  0.54367086991E+02  0.40000006414E+02 0.  0.
         12    1    3    3    0    0  0.14869218288E+01 -0.36745278933E+02 -0.18311674962E+01  0.36820913009E+02  0.00000000000E+00 0. -1.
         11    1    4    4    0    0  0.13773468486E+01  0.20196379198E+01 -0.78912995019E+01  0.82612728897E+01  0.51100000000E-03 0.  1.
        -11    1    4    4    0    0 -0.17149169940E+01 -0.47198307303E+01 -0.11935864494E+01  0.51616268067E+01  0.51100000000E-03 0. -1.
         12    1    4    4    0    0 -0.11493516835E+01  0.39445471744E+02  0.10916053447E+02  0.40944187295E+02  0.00000000000E+00 0. -1.
</event>
<event>
 8    1  0.1238315E-006  0.9118800E+02  0.7816164E-02  0.1184000E+00
        -11   -1    0    0    0    0  0.00000000000E+00  0.00000000000E+00  0.45593999997E+02  0.45594000000E+02  0.51100000000E-03 0. -1.
         11   -1    0    0    0    0 -0.00000000000E+00 -0.00000000000E+00 -0.45593999997E+02  0.45594000000E+02  0.51100000000E-03 0.  1.
         23    2    1    2    0    0 -0.71054273576E-14  0.00000000000E+00 -0.17763568394E-14  0.91188000000E+02  0.91188000000E+02 0.  0.
    9900012    2    3    3    0    0 -0.34634365543E+02  0.31223447567E+01 -0.12103402561E+02  0.54367072976E+02  0.39999974463E+02 0.  0.
         12    1    3    3    0    0  0.34634365543E+02 -0.31223447567E+01  0.12103402561E+02  0.36820927024E+02  0.00000000000E+00 0. -1.
         11    1    4    4    0    0 -0.25462450622E+02  0.10666141144E+02  0.11421346536E+01  0.27629828635E+02  0.51100000000E-03 0. -1.
        -11    1    4    4    0    0 -0.14085976050E+02 -0.72561764753E+01 -0.14690212955E+02  0.21607155649E+02  0.51100000000E-03 0.  1.
         12    1    4    4    0    0  0.49140611290E+01 -0.28761991234E+00  0.14446757396E+01  0.51300886918E+01  0.00000000000E+00 0. -1.
</event>
<event>
 8    1  0.1238315E-006  0.9118800E+02  0.7816164E-02  0.1184000E+00
        -11   -1    0    0    0    0  0.00000000000E+00  0.00000000000E+00  0.45593999997E+02  0.45594000000E+02  0.51100000000E-03 0.  1.
         11   -1    0    0    0    0 -0.00000000000E+00 -0.00000000000E+00 -0.45593999997E+02  0.45594000000E+02  0.51100000000E-03 0. -1.
         23    2    1    2    0    0 -0.35527136788E-14 -0.17763568394E-14 -0.35527136788E-14  0.91188000000E+02  0.91188000000E+02 0.  0.
    9900012    2    3    3    0    0 -0.17989336415E+02 -0.14311226827E+02  0.28763766440E+02  0.54367058978E+02  0.39999942552E+02 0.  0.
         12    1    3    3    0    0  0.17989336415E+02  0.14311226827E+02 -0.28763766440E+02  0.36820941022E+02  0.00000000000E+00 0. -1.
         11    1    4    4    0    0  0.99608303507E+01 -0.34951374556E+01  0.73046623194E+01  0.12837142165E+02  0.51100000000E-03 0. -1.
        -11    1    4    4    0    0 -0.92314097731E-01 -0.62288304543E+01  0.83082939903E+01  0.10384343986E+02  0.51100000000E-03 0.  1.
         12    1    4    4    0    0 -0.27857852668E+02 -0.45872589175E+01  0.13150810130E+02  0.31145572827E+02  0.00000000000E+00 0. -1.
</event>
<event>
 8    1  0.1238315E-006  0.9118800E+02  0.7816164E-02  0.1184000E+00
        -11   -1    0    0    0    0  0.00000000000E+00  0.00000000000E+00  0.45593999997E+02  0.45594000000E+02  0.51100000000E-03 0. -1.
         11   -1    0    0    0    0 -0.00000000000E+00 -0.00000000000E+00 -0.45593999997E+02  0.45594000000E+02  0.51100000000E-03 0.  1.
         23    2    1    2    0    0 -0.35527136788E-14  0.35527136788E-14 -0.88817841970E-15  0.91188000000E+02  0.91188000000E+02 0.  0.
    9900012    2    3    3    0    0  0.19295574517E+02 -0.30536570336E+02  0.71398721668E+01  0.54367094276E+02  0.40000023021E+02 0.  0.
        -12    1    3    3    0    0 -0.19295574517E+02  0.30536570336E+02 -0.71398721668E+01  0.36820905724E+02  0.00000000000E+00 0.  1.
         11    1    4    4    0    0  0.16304751194E+02 -0.30725258141E+02  0.11600019765E+02  0.36666699581E+02  0.51100000000E-03 0. -1.
        -11    1    4    4    0    0  0.88477441409E+01  0.20011663529E+00  0.19027763576E+01  0.90522473000E+01  0.51100000000E-03 0.  1.
        -12    1    4    4    0    0 -0.58569208184E+01 -0.11428829703E-01 -0.63629239561E+01  0.86481473948E+01  0.00000000000E+00 0.  1.
</event>
<event>
 8    1  0.1238315E-006  0.9118800E+02  0.7816164E-02  0.1184000E+00
        -11   -1    0    0    0    0  0.00000000000E+00  0.00000000000E+00  0.45593999997E+02  0.45594000000E+02  0.51100000000E-03 0. -1.
         11   -1    0    0    0    0 -0.00000000000E+00 -0.00000000000E+00 -0.45593999997E+02  0.45594000000E+02  0.51100000000E-03 0.  1.
         23    2    1    2    0    0  0.35527136788E-14  0.00000000000E+00 -0.17763568394E-14  0.91188000000E+02  0.91188000000E+02 0.  0.
    9900012    2    3    3    0    0  0.27452448079E+02 -0.20522358897E+02 -0.13452688266E+02  0.54367096402E+02  0.40000027867E+02 0.  0.
         12    1    3    3    0    0 -0.27452448079E+02  0.20522358897E+02  0.13452688266E+02  0.36820903598E+02  0.00000000000E+00 0. -1.
         11    1    4    4    0    0  0.13090330506E+02 -0.15213459226E+02  0.80121416264E+01  0.21610194541E+02  0.51100000000E-03 0. -1.
        -11    1    4    4    0    0  0.76647652456E+01 -0.12007846599E+02 -0.81370427242E+01  0.16405745054E+02  0.51100000000E-03 0.  1.
        -12    1    4    4    0    0  0.66973523269E+01  0.66989469279E+01 -0.13327787168E+02  0.16351156807E+02  0.00000000000E+00 0.  1.
</event>
<event>
 8    1  0.1238315E-006  0.9118800E+02  0.7816164E-02  0.1184000E+00
        -11   -1    0    0    0    0  0.00000000000E+00  0.00000000000E+00  0.45593999997E+02  0.45594000000E+02  0.51100000000E-03 0. -1.
         11   -1    0    0    0    0 -0.00000000000E+00 -0.00000000000E+00 -0.45593999997E+02  0.45594000000E+02  0.51100000000E-03 0.  1.
         23    2    1    2    0    0 -0.35527136788E-14  0.00000000000E+00 -0.17763568394E-14  0.91188000000E+02  0.91188000000E+02 0.  0.
    9900012    2    3    3    0    0  0.28293299835E+02 -0.20350356119E+02 -0.11879913033E+02  0.54367080085E+02  0.39999990670E+02 0.  0.
         12    1    3    3    0    0 -0.28293299835E+02  0.20350356119E+02  0.11879913033E+02  0.36820919915E+02  0.00000000000E+00 0. -1.
         11    1    4    4    0    0  0.13786614332E-01 -0.72774436331E+01  0.54128407819E+01  0.90697420854E+01  0.51100000000E-03 0. -1.
        -11    1    4    4    0    0 -0.31316130075E+01 -0.97940393701E+01 -0.44500740516E+01  0.11204167374E+02  0.51100000000E-03 0.  1.
         12    1    4    4    0    0  0.31411126228E+02 -0.32788731158E+01 -0.12842679764E+02  0.34093170626E+02  0.00000000000E+00 0. -1.
</event>
<event>
 8    1  0.1238315E-006  0.9118800E+02  0.7816164E-02  0.1184000E+00
        -11   -1    0    0    0    0  0.00000000000E+00  0.00000000000E+00  0.45593999997E+02  0.45594000000E+02  0.51100000000E-03 0. -1.
         11   -1    0    0    0    0 -0.00000000000E+00 -0.00000000000E+00 -0.45593999997E+02  0.45594000000E+02  0.51100000000E-03 0.  1.
         23    2    1    2    0    0 -0.35527136788E-14  0.35527136788E-14  0.00000000000E+00  0.91188000000E+02  0.91188000000E+02 0.  0.
    9900012    2    3    3    0    0  0.27842473650E+02 -0.11128745327E+02  0.21371152815E+02  0.54367102616E+02  0.40000042035E+02 0.  0.
        -12    1    3    3    0    0 -0.27842473650E+02  0.11128745327E+02 -0.21371152815E+02  0.36820897384E+02  0.00000000000E+00 0.  1.
         11    1    4    4    0    0  0.26246080203E+02  0.61779939619E+00  0.24627802455E+02  0.35996764524E+02  0.51100000000E-03 0. -1.
        -11    1    4    4    0    0 -0.19835337885E+01  0.20430495847E+01  0.16636518105E+01  0.32979077464E+01  0.51100000000E-03 0.  1.
        -12    1    4    4    0    0  0.35799272351E+01 -0.13789594308E+02 -0.49203014508E+01  0.15072430347E+02  0.00000000000E+00 0.  1.
</event>
<event>
 8    1  0.1238315E-006  0.9118800E+02  0.7816164E-02  0.1184000E+00
        -11   -1    0    0    0    0  0.00000000000E+00  0.00000000000E+00  0.45593999997E+02  0.45594000000E+02  0.51100000000E-03 0.  1.
         11   -1    0    0    0    0 -0.00000000000E+00 -0.00000000000E+00 -0.45593999997E+02  0.45594000000E+02  0.51100000000E-03 0. -1.
         23    2    1    2    0    0  0.00000000000E+00  0.00000000000E+00  0.35527136788E-14  0.91188000000E+02  0.91188000000E+02 0.  0.
    9900012    2    3    3    0    0  0.66628030966E+01 -0.20413546033E+02  0.29911084131E+02  0.54367098862E+02  0.40000033476E+02 0.  0.
        -12    1    3    3    0    0 -0.66628030966E+01  0.20413546033E+02 -0.29911084131E+02  0.36820901138E+02  0.00000000000E+00 0.  1.
         11    1    4    4    0    0  0.86540285666E+01 -0.14910440533E+01 -0.55198694305E+01  0.10372289120E+02  0.51100000000E-03 0. -1.
        -11    1    4    4    0    0  0.20979122820E+01 -0.55081319595E+01  0.26991252516E+02  0.27627313773E+02  0.51100000000E-03 0.  1.
         12    1    4    4    0    0 -0.40891377521E+01 -0.13414370020E+02  0.84397010446E+01  0.16367495969E+02  0.00000000000E+00 0. -1.
</event>
<event>
 8    1  0.1238315E-006  0.9118800E+02  0.7816164E-02  0.1184000E+00
        -11   -1    0    0    0    0  0.00000000000E+00  0.00000000000E+00  0.45593999997E+02  0.45594000000E+02  0.51100000000E-03 0. -1.
         11   -1    0    0    0    0 -0.00000000000E+00 -0.00000000000E+00 -0.45593999997E+02  0.45594000000E+02  0.51100000000E-03 0.  1.
         23    2    1    2    0    0  0.00000000000E+00  0.00000000000E+00  0.00000000000E+00  0.91188000000E+02  0.91188000000E+02 0.  0.
    9900012    2    3    3    0    0  0.13447988474E+02 -0.10822197820E+02  0.32524014359E+02  0.54367083802E+02  0.39999999143E+02 0.  0.
        -12    1    3    3    0    0 -0.13447988474E+02  0.10822197820E+02 -0.32524014359E+02  0.36820916198E+02  0.00000000000E+00 0.  1.
         11    1    4    4    0    0  0.48024342580E+01  0.16950235775E+01 -0.81502696702E+00  0.51575913902E+01  0.51100000000E-03 0.  1.
        -11    1    4    4    0    0  0.32344699089E+01 -0.46131068350E+01  0.38098866012E+02  0.38513194387E+02  0.51100000000E-03 0. -1.
         12    1    4    4    0    0  0.54110843069E+01 -0.79041145626E+01 -0.47598246853E+01  0.10696298025E+02  0.00000000000E+00 0. -1.
</event>
<event>
 8    1  0.1238315E-006  0.9118800E+02  0.7816164E-02  0.1184000E+00
        -11   -1    0    0    0    0  0.00000000000E+00  0.00000000000E+00  0.45593999997E+02  0.45594000000E+02  0.51100000000E-03 0.  1.
         11   -1    0    0    0    0 -0.00000000000E+00 -0.00000000000E+00 -0.45593999997E+02  0.45594000000E+02  0.51100000000E-03 0. -1.
         23    2    1    2    0    0  0.00000000000E+00  0.00000000000E+00  0.00000000000E+00  0.91188000000E+02  0.91188000000E+02 0.  0.
    9900012    2    3    3    0    0  0.10851641018E+02 -0.20093737784E+02 -0.28883613666E+02  0.54367088152E+02  0.40000009060E+02 0.  0.
        -12    1    3    3    0    0 -0.10851641018E+02  0.20093737784E+02  0.28883613666E+02  0.36820911848E+02  0.00000000000E+00 0.  1.
         11    1    4    4    0    0  0.30010417766E+00  0.41723269824E+01 -0.15044865596E+02  0.15615580553E+02  0.51100000000E-03 0. -1.
        -11    1    4    4    0    0  0.10784029651E+00 -0.10258484266E+02 -0.18065444849E+02  0.20775187768E+02  0.51100000000E-03 0.  1.
        -12    1    4    4    0    0  0.10443696544E+02 -0.14007580501E+02  0.42266967783E+01  0.17976319830E+02  0.00000000000E+00 0.  1.
</event>
<event>
 8    1  0.1238315E-006  0.9118800E+02  0.7816164E-02  0.1184000E+00
        -11   -1    0    0    0    0  0.00000000000E+00  0.00000000000E+00  0.45593999997E+02  0.45594000000E+02  0.51100000000E-03 0.  1.
         11   -1    0    0    0    0 -0.00000000000E+00 -0.00000000000E+00 -0.45593999997E+02  0.45594000000E+02  0.51100000000E-03 0. -1.
         23    2    1    2    0    0  0.00000000000E+00  0.00000000000E+00  0.00000000000E+00  0.91188000000E+02  0.91188000000E+02 0.  0.
    9900012    2    3    3    0    0 -0.13856947467E+02  0.60717845945E+01 -0.33569300751E+02  0.54367088629E+02  0.40000010148E+02 0.  0.
        -12    1    3    3    0    0  0.13856947467E+02 -0.60717845945E+01  0.33569300751E+02  0.36820911371E+02  0.00000000000E+00 0.  1.
         11    1    4    4    0    0 -0.33619517879E+01 -0.54828736222E+01 -0.20563108660E+02  0.21545441769E+02  0.51100000000E-03 0. -1.
        -11    1    4    4    0    0  0.32722829236E+01 -0.64013016459E+01 -0.52525803461E+01  0.89036003306E+01  0.51100000000E-03 0.  1.
         12    1    4    4    0    0 -0.13767278603E+02  0.17955959863E+02 -0.77536117447E+01  0.23918046530E+02  0.00000000000E+00 0. -1.
</event>
<event>
 8    1  0.1238315E-006  0.9118800E+02  0.7816164E-02  0.1184000E+00
        -11   -1    0    0    0    0  0.00000000000E+00  0.00000000000E+00  0.45593999997E+02  0.45594000000E+02  0.51100000000E-03 0. -1.
         11   -1    0    0    0    0 -0.00000000000E+00 -0.00000000000E+00 -0.45593999997E+02  0.45594000000E+02  0.51100000000E-03 0.  1.
         23    2    1    2    0    0  0.00000000000E+00 -0.88817841970E-15  0.71054273576E-14  0.91188000000E+02  0.91188000000E+02 0.  0.
    9900012    2    3    3    0    0  0.28947832402E+01  0.56993493115E+01 -0.36261796616E+02  0.54367078686E+02  0.39999987481E+02 0.  0.
         12    1    3    3    0    0 -0.28947832402E+01 -0.56993493115E+01  0.36261796616E+02  0.36820921314E+02  0.00000000000E+00 0. -1.
         11    1    4    4    0    0 -0.20065657773E+01 -0.16450284021E+02 -0.92639130400E+01  0.18985737691E+02  0.51100000000E-03 0. -1.
        -11    1    4    4    0    0  0.33525534089E+01  0.14407171737E+02 -0.15424224016E+02  0.21370842252E+02  0.51100000000E-03 0.  1.
         12    1    4    4    0    0  0.15487956085E+01  0.77424615962E+01 -0.11573659560E+02  0.14010498742E+02  0.00000000000E+00 0. -1.
</event>
<event>
 8    1  0.1238315E-006  0.9118800E+02  0.7816164E-02  0.1184000E+00
        -11   -1    0    0    0    0  0.00000000000E+00  0.00000000000E+00  0.45593999997E+02  0.45594000000E+02  0.51100000000E-03 0.  1.
         11   -1    0    0    0    0 -0.00000000000E+00 -0.00000000000E+00 -0.45593999997E+02  0.45594000000E+02  0.51100000000E-03 0. -1.
         23    2    1    2    0    0  0.13322676296E-14  0.00000000000E+00  0.00000000000E+00  0.91188000000E+02  0.91188000000E+02 0.  0.
    9900012    2    3    3    0    0  0.11348552738E+01  0.16597254677E+02  0.32848475885E+02  0.54367093883E+02  0.40000022126E+02 0.  0.
         12    1    3    3    0    0 -0.11348552738E+01 -0.16597254677E+02 -0.32848475885E+02  0.36820906117E+02  0.00000000000E+00 0. -1.
         11    1    4    4    0    0 -0.89219955012E+01  0.10416567583E+01  0.17939987985E+02  0.20063155826E+02  0.51100000000E-03 0.  1.
        -11    1    4    4    0    0  0.23247575216E+01  0.15038136592E+02 -0.23390176546E+01  0.15395488091E+02  0.51100000000E-03 0. -1.
         12    1    4    4    0    0  0.77320932533E+01  0.51746132650E+00  0.17247505554E+02  0.18908449966E+02  0.00000000000E+00 0. -1.
</event>
<event>
 8    1  0.1238315E-006  0.9118800E+02  0.7816164E-02  0.1184000E+00
        -11   -1    0    0    0    0  0.00000000000E+00  0.00000000000E+00  0.45593999997E+02  0.45594000000E+02  0.51100000000E-03 0. -1.
         11   -1    0    0    0    0 -0.00000000000E+00 -0.00000000000E+00 -0.45593999997E+02  0.45594000000E+02  0.51100000000E-03 0.  1.
         23    2    1    2    0    0  0.00000000000E+00  0.00000000000E+00  0.00000000000E+00  0.91188000000E+02  0.91188000000E+02 0.  0.
    9900012    2    3    3    0    0 -0.33625940395E+02 -0.22396970389E+01 -0.14834457355E+02  0.54367065257E+02  0.39999956867E+02 0.  0.
         12    1    3    3    0    0  0.33625940395E+02  0.22396970389E+01  0.14834457355E+02  0.36820934743E+02  0.00000000000E+00 0. -1.
         11    1    4    4    0    0  0.22712913370E+01 -0.16570018026E+00 -0.76160753770E+01  0.79492657080E+01  0.51100000000E-03 0. -1.
        -11    1    4    4    0    0 -0.33690497192E+02 -0.26774835116E+01  0.48424755608E+01  0.34141881741E+02  0.51100000000E-03 0.  1.
        -12    1    4    4    0    0 -0.22067345407E+01  0.60348665296E+00 -0.12060857539E+02  0.12275917809E+02  0.00000000000E+00 0.  1.
</event>
<event>
 8    1  0.1238315E-006  0.9118800E+02  0.7816164E-02  0.1184000E+00
        -11   -1    0    0    0    0  0.00000000000E+00  0.00000000000E+00  0.45593999997E+02  0.45594000000E+02  0.51100000000E-03 0.  1.
         11   -1    0    0    0    0 -0.00000000000E+00 -0.00000000000E+00 -0.45593999997E+02  0.45594000000E+02  0.51100000000E-03 0. -1.
         23    2    1    2    0    0  0.17763568394E-14  0.35527136788E-14  0.00000000000E+00  0.91188000000E+02  0.91188000000E+02 0.  0.
    9900012    2    3    3    0    0  0.13302648535E+02 -0.26343209641E+02 -0.22019397892E+02  0.54367095126E+02  0.40000024958E+02 0.  0.
        -12    1    3    3    0    0 -0.13302648535E+02  0.26343209641E+02  0.22019397892E+02  0.36820904874E+02  0.00000000000E+00 0.  1.
         11    1    4    4    0    0  0.90292202076E+01  0.79959308377E+01 -0.48764369149E-01  0.12060850125E+02  0.51100000000E-03 0. -1.
        -11    1    4    4    0    0  0.64845316664E+01 -0.30140423946E+02 -0.16174476066E+02  0.34815341200E+02  0.51100000000E-03 0.  1.
         12    1    4    4    0    0 -0.22111033387E+01 -0.41987165326E+01 -0.57961574561E+01  0.74909038008E+01  0.00000000000E+00 0. -1.
</event>
<event>
 8    1  0.1238315E-006  0.9118800E+02  0.7816164E-02  0.1184000E+00
        -11   -1    0    0    0    0  0.00000000000E+00  0.00000000000E+00  0.45593999997E+02  0.45594000000E+02  0.51100000000E-03 0.  1.
         11   -1    0    0    0    0 -0.00000000000E+00 -0.00000000000E+00 -0.45593999997E+02  0.45594000000E+02  0.51100000000E-03 0. -1.
         23    2    1    2    0    0 -0.35527136788E-14 -0.35527136788E-14  0.00000000000E+00  0.91188000000E+02  0.91188000000E+02 0.  0.
    9900012    2    3    3    0    0  0.20507797088E+02 -0.21236430111E+02 -0.22005069582E+02  0.54367098428E+02  0.40000032486E+02 0.  0.
         12    1    3    3    0    0 -0.20507797088E+02  0.21236430111E+02  0.22005069582E+02  0.36820901572E+02  0.00000000000E+00 0. -1.
         11    1    4    4    0    0  0.73293070556E+01 -0.97068590578E+01 -0.10912046575E+02  0.16340581856E+02  0.51100000000E-03 0. -1.
        -11    1    4    4    0    0 -0.52649105782E+01  0.79388574752E+01 -0.35798252836E+01  0.10176438018E+02  0.51100000000E-03 0.  1.
        -12    1    4    4    0    0  0.18443400610E+02 -0.19468428528E+02 -0.75131977243E+01  0.27850078554E+02  0.00000000000E+00 0.  1.
</event>
<event>
 8    1  0.1238315E-006  0.9118800E+02  0.7816164E-02  0.1184000E+00
        -11   -1    0    0    0    0  0.00000000000E+00  0.00000000000E+00  0.45593999997E+02  0.45594000000E+02  0.51100000000E-03 0. -1.
         11   -1    0    0    0    0 -0.00000000000E+00 -0.00000000000E+00 -0.45593999997E+02  0.45594000000E+02  0.51100000000E-03 0.  1.
         23    2    1    2    0    0  0.00000000000E+00 -0.71054273576E-14  0.00000000000E+00  0.91188000000E+02  0.91188000000E+02 0.  0.
    9900012    2    3    3    0    0  0.63356156609E+01 -0.32955328344E+02 -0.15152231200E+02  0.54367030398E+02  0.39999877398E+02 0.  0.
        -12    1    3    3    0    0 -0.63356156609E+01  0.32955328344E+02  0.15152231200E+02  0.36820969602E+02  0.00000000000E+00 0.  1.
         11    1    4    4    0    0  0.13250312881E+01 -0.28558212807E+02 -0.17517234898E+01  0.28642551599E+02  0.51100000000E-03 0. -1.
        -11    1    4    4    0    0  0.39233960057E+01  0.56254941784E+01  0.21538521355E+01  0.71887620806E+01  0.51100000000E-03 0.  1.
        -12    1    4    4    0    0  0.10871883672E+01 -0.10022609716E+02 -0.15554359846E+02  0.18535716719E+02  0.00000000000E+00 0.  1.
</event>
<event>
 8    1  0.1238315E-006  0.9118800E+02  0.7816164E-02  0.1184000E+00
        -11   -1    0    0    0    0  0.00000000000E+00  0.00000000000E+00  0.45593999997E+02  0.45594000000E+02  0.51100000000E-03 0.  1.
         11   -1    0    0    0    0 -0.00000000000E+00 -0.00000000000E+00 -0.45593999997E+02  0.45594000000E+02  0.51100000000E-03 0. -1.
         23    2    1    2    0    0  0.00000000000E+00  0.35527136788E-14  0.35527136788E-14  0.91188000000E+02  0.91188000000E+02 0.  0.
    9900012    2    3    3    0    0 -0.24461332540E+02 -0.20569082583E+02 -0.18284837328E+02  0.54367092569E+02  0.40000019129E+02 0.  0.
        -12    1    3    3    0    0  0.24461332540E+02  0.20569082583E+02  0.18284837328E+02  0.36820907431E+02  0.00000000000E+00 0.  1.
         11    1    4    4    0    0  0.22062120089E+01 -0.78908814777E+01  0.59763603363E+01  0.10141511971E+02  0.51100000000E-03 0. -1.
        -11    1    4    4    0    0 -0.26497044788E+01 -0.19332096690E+01 -0.16457152047E+02  0.16780824986E+02  0.51100000000E-03 0.  1.
        -12    1    4    4    0    0 -0.24017840070E+02 -0.10744991436E+02 -0.78040456172E+01  0.27444755612E+02  0.00000000000E+00 0.  1.
</event>
<event>
 8    1  0.1238315E-006  0.9118800E+02  0.7816164E-02  0.1184000E+00
        -11   -1    0    0    0    0  0.00000000000E+00  0.00000000000E+00  0.45593999997E+02  0.45594000000E+02  0.51100000000E-03 0.  1.
         11   -1    0    0    0    0 -0.00000000000E+00 -0.00000000000E+00 -0.45593999997E+02  0.45594000000E+02  0.51100000000E-03 0. -1.
         23    2    1    2    0    0  0.00000000000E+00  0.00000000000E+00  0.00000000000E+00  0.91188000000E+02  0.91188000000E+02 0.  0.
    9900012    2    3    3    0    0 -0.57840286418E+01 -0.33943952416E+01 -0.36205022648E+02  0.54367074274E+02  0.39999977422E+02 0.  0.
        -12    1    3    3    0    0  0.57840286418E+01  0.33943952416E+01  0.36205022648E+02  0.36820925726E+02  0.00000000000E+00 0.  1.
         11    1    4    4    0    0 -0.30715135487E+01 -0.18314376779E+02 -0.58559721340E+01  0.19471594752E+02  0.51100000000E-03 0. -1.
        -11    1    4    4    0    0 -0.28562062509E+00  0.13891580520E+02 -0.28401996295E+02  0.31618522772E+02  0.51100000000E-03 0.  1.
         12    1    4    4    0    0 -0.24268944680E+01  0.10284010171E+01 -0.19470542192E+01  0.32769567503E+01  0.00000000000E+00 0. -1.
</event>
<event>
 8    1  0.1238315E-006  0.9118800E+02  0.7816164E-02  0.1184000E+00
        -11   -1    0    0    0    0  0.00000000000E+00  0.00000000000E+00  0.45593999997E+02  0.45594000000E+02  0.51100000000E-03 0. -1.
         11   -1    0    0    0    0 -0.00000000000E+00 -0.00000000000E+00 -0.45593999997E+02  0.45594000000E+02  0.51100000000E-03 0.  1.
         23    2    1    2    0    0  0.00000000000E+00 -0.88817841970E-15  0.00000000000E+00  0.91188000000E+02  0.91188000000E+02 0.  0.
    9900012    2    3    3    0    0 -0.15167616995E+02  0.64888248666E+01 -0.32918352955E+02  0.54367089980E+02  0.40000013228E+02 0.  0.
         12    1    3    3    0    0  0.15167616995E+02 -0.64888248666E+01  0.32918352955E+02  0.36820910020E+02  0.00000000000E+00 0. -1.
         11    1    4    4    0    0  0.17524502097E+01 -0.44619618580E+01  0.64876389548E+01  0.80665757808E+01  0.51100000000E-03 0. -1.
        -11    1    4    4    0    0  0.18987628062E+01 -0.86479440849E+00 -0.32407120578E+01  0.38542683438E+01  0.51100000000E-03 0.  1.
         12    1    4    4    0    0 -0.18818830011E+02  0.11815581133E+02 -0.36165279852E+02  0.42446245855E+02  0.00000000000E+00 0. -1.
</event>
<event>
 8    1  0.1238315E-006  0.9118800E+02  0.7816164E-02  0.1184000E+00
        -11   -1    0    0    0    0  0.00000000000E+00  0.00000000000E+00  0.45593999997E+02  0.45594000000E+02  0.51100000000E-03 0.  1.
         11   -1    0    0    0    0 -0.00000000000E+00 -0.00000000000E+00 -0.45593999997E+02  0.45594000000E+02  0.51100000000E-03 0. -1.
         23    2    1    2    0    0 -0.66613381478E-15  0.00000000000E+00 -0.35527136788E-14  0.91188000000E+02  0.91188000000E+02 0.  0.
    9900012    2    3    3    0    0 -0.20048443746E+00 -0.20430159647E+02 -0.30632544247E+02  0.54367022497E+02  0.39999859386E+02 0.  0.
        -12    1    3    3    0    0  0.20048443746E+00  0.20430159647E+02  0.30632544247E+02  0.36820977503E+02  0.00000000000E+00 0.  1.
         11    1    4    4    0    0 -0.36561035121E+01  0.54321196356E+01 -0.20866277209E+02  0.21869534551E+02  0.51100000000E-03 0. -1.
        -11    1    4    4    0    0 -0.29660688103E+01 -0.19182167021E+02 -0.12188822160E+02  0.22919870892E+02  0.51100000000E-03 0.  1.
         12    1    4    4    0    0  0.64216878849E+01 -0.66801122616E+01  0.24225551219E+01  0.95776170543E+01  0.00000000000E+00 0. -1.
</event>
<event>
 8    1  0.1238315E-006  0.9118800E+02  0.7816164E-02  0.1184000E+00
        -11   -1    0    0    0    0  0.00000000000E+00  0.00000000000E+00  0.45593999997E+02  0.45594000000E+02  0.51100000000E-03 0. -1.
         11   -1    0    0    0    0 -0.00000000000E+00 -0.00000000000E+00 -0.45593999997E+02  0.45594000000E+02  0.51100000000E-03 0.  1.
         23    2    1    2    0    0 -0.88817841970E-15 -0.17763568394E-14  0.71054273576E-14  0.91188000000E+02  0.91188000000E+02 0.  0.
    9900012    2    3    3    0    0 -0.65453328942E+01 -0.12055654884E+02  0.34170148546E+02  0.54367092229E+02  0.40000018355E+02 0.  0.
        -12    1    3    3    0    0  0.65453328942E+01  0.12055654884E+02 -0.34170148546E+02  0.36820907771E+02  0.00000000000E+00 0.  1.
         11    1    4    4    0    0  0.17128487417E+01  0.28186469644E+01 -0.51295538812E+00  0.33379252558E+01  0.51100000000E-03 0. -1.
        -11    1    4    4    0    0  0.28629181580E+01 -0.21478470944E+02  0.11621855067E+02  0.24588382011E+02  0.51100000000E-03 0.  1.
         12    1    4    4    0    0 -0.11121099794E+02  0.66041690962E+01  0.23061248868E+02  0.26440784962E+02  0.00000000000E+00 0. -1.
</event>
<event>
 8    1  0.1238315E-006  0.9118800E+02  0.7816164E-02  0.1184000E+00
        -11   -1    0    0    0    0  0.00000000000E+00  0.00000000000E+00  0.45593999997E+02  0.45594000000E+02  0.51100000000E-03 0.  1.
         11   -1    0    0    0    0 -0.00000000000E+00 -0.00000000000E+00 -0.45593999997E+02  0.45594000000E+02  0.51100000000E-03 0. -1.
         23    2    1    2    0    0  0.00000000000E+00  0.00000000000E+00 -0.35527136788E-14  0.91188000000E+02  0.91188000000E+02 0.  0.
    9900012    2    3    3    0    0 -0.23600212082E+02  0.41553160079E+01 -0.27956130993E+02  0.54367055939E+02  0.39999935624E+02 0.  0.
        -12    1    3    3    0    0  0.23600212082E+02 -0.41553160079E+01  0.27956130993E+02  0.36820944061E+02  0.00000000000E+00 0.  1.
         11    1    4    4    0    0 -0.58094714775E+01  0.80024718425E+01 -0.43598353251E+01  0.10807297477E+02  0.51100000000E-03 0. -1.
        -11    1    4    4    0    0  0.48943103053E+01  0.13696826550E+01 -0.19212522736E+02  0.19873382552E+02  0.51100000000E-03 0.  1.
        -12    1    4    4    0    0 -0.22685050910E+02 -0.52168384897E+01 -0.43837729327E+01  0.23686375909E+02  0.00000000000E+00 0.  1.
</event>
<event>
 8    1  0.1238315E-006  0.9118800E+02  0.7816164E-02  0.1184000E+00
        -11   -1    0    0    0    0  0.00000000000E+00  0.00000000000E+00  0.45593999997E+02  0.45594000000E+02  0.51100000000E-03 0.  1.
         11   -1    0    0    0    0 -0.00000000000E+00 -0.00000000000E+00 -0.45593999997E+02  0.45594000000E+02  0.51100000000E-03 0. -1.
         23    2    1    2    0    0  0.66613381478E-15 -0.35527136788E-14  0.35527136788E-14  0.91188000000E+02  0.91188000000E+02 0.  0.
    9900012    2    3    3    0    0 -0.17265363795E+01  0.29921579369E+02 -0.21389197008E+02  0.54367087620E+02  0.40000007848E+02 0.  0.
        -12    1    3    3    0    0  0.17265363795E+01 -0.29921579369E+02  0.21389197008E+02  0.36820912380E+02  0.00000000000E+00 0.  1.
         11    1    4    4    0    0  0.78148508651E+01  0.11191280690E+01  0.88704959824E+00  0.79442557190E+01  0.51100000000E-03 0. -1.
        -11    1    4    4    0    0 -0.36341350480E+01  0.53836784975E-01  0.51167128405E+01  0.62761920382E+01  0.51100000000E-03 0.  1.
         12    1    4    4    0    0 -0.59072521966E+01  0.28748614515E+02 -0.27392959447E+02  0.40146639863E+02  0.00000000000E+00 0. -1.
</event>
<event>
 8    1  0.1238315E-006  0.9118800E+02  0.7816164E-02  0.1184000E+00
        -11   -1    0    0    0    0  0.00000000000E+00  0.00000000000E+00  0.45593999997E+02  0.45594000000E+02  0.51100000000E-03 0.  1.
         11   -1    0    0    0    0 -0.00000000000E+00 -0.00000000000E+00 -0.45593999997E+02  0.45594000000E+02  0.51100000000E-03 0. -1.
         23    2    1    2    0    0  0.35527136788E-14 -0.44408920985E-15  0.00000000000E+00  0.91188000000E+02  0.91188000000E+02 0.  0.
    9900012    2    3    3    0    0  0.31558494415E+02  0.10109605843E+01 -0.18942416212E+02  0.54367139839E+02  0.40000126891E+02 0.  0.
        -12    1    3    3    0    0 -0.31558494415E+02 -0.10109605843E+01  0.18942416212E+02  0.36820860161E+02  0.00000000000E+00 0.  1.
         11    1    4    4    0    0  0.51831103647E+01 -0.71824899992E+01  0.33944930966E+01  0.94855352662E+01  0.51100000000E-03 0. -1.
        -11    1    4    4    0    0  0.21587836463E+02  0.40538119035E+01 -0.31411503477E+00  0.21967401817E+02  0.51100000000E-03 0.  1.
         12    1    4    4    0    0  0.47875475874E+01  0.41396386800E+01 -0.22022794274E+02  0.22914202756E+02  0.00000000000E+00 0. -1.
</event>
<event>
 8    1  0.1238315E-006  0.9118800E+02  0.7816164E-02  0.1184000E+00
        -11   -1    0    0    0    0  0.00000000000E+00  0.00000000000E+00  0.45593999997E+02  0.45594000000E+02  0.51100000000E-03 0.  1.
         11   -1    0    0    0    0 -0.00000000000E+00 -0.00000000000E+00 -0.45593999997E+02  0.45594000000E+02  0.51100000000E-03 0. -1.
         23    2    1    2    0    0 -0.35527136788E-14  0.00000000000E+00  0.00000000000E+00  0.91188000000E+02  0.91188000000E+02 0.  0.
    9900012    2    3    3    0    0 -0.13211467321E+02 -0.33678727857E+02 -0.68555427760E+01  0.54366836988E+02  0.39999436477E+02 0.  0.
        -12    1    3    3    0    0  0.13211467321E+02  0.33678727857E+02  0.68555427760E+01  0.36821163012E+02  0.00000000000E+00 0.  1.
         11    1    4    4    0    0  0.11438018995E+02 -0.21290147630E+02  0.42608371995E+01  0.24540851626E+02  0.51100000000E-03 0. -1.
        -11    1    4    4    0    0 -0.17502340779E+02 -0.76815871936E+01 -0.79464204996E+01  0.20699862646E+02  0.51100000000E-03 0.  1.
         12    1    4    4    0    0 -0.71471455366E+01 -0.47069930337E+01 -0.31699594760E+01  0.91261227155E+01  0.00000000000E+00 0. -1.
</event>
<event>
 8    1  0.1238315E-006  0.9118800E+02  0.7816164E-02  0.1184000E+00
        -11   -1    0    0    0    0  0.00000000000E+00  0.00000000000E+00  0.45593999997E+02  0.45594000000E+02  0.51100000000E-03 0.  1.
         11   -1    0    0    0    0 -0.00000000000E+00 -0.00000000000E+00 -0.45593999997E+02  0.45594000000E+02  0.51100000000E-03 0. -1.
         23    2    1    2    0    0  0.00000000000E+00 -0.17763568394E-14  0.00000000000E+00  0.91188000000E+02  0.91188000000E+02 0.  0.
    9900012    2    3    3    0    0  0.14592259632E+02  0.85679833407E+01  0.32702225825E+02  0.54367082662E+02  0.39999996545E+02 0.  0.
         12    1    3    3    0    0 -0.14592259632E+02 -0.85679833407E+01 -0.32702225825E+02  0.36820917338E+02  0.00000000000E+00 0. -1.
         11    1    4    4    0    0 -0.66597148280E+01  0.96296738201E+01  0.14072973053E+02  0.18306583250E+02  0.51100000000E-03 0. -1.
        -11    1    4    4    0    0  0.32060226349E+01 -0.23970966075E+01 -0.49321736539E+01  0.63522429499E+01  0.51100000000E-03 0.  1.
        -12    1    4    4    0    0  0.18045951825E+02  0.13354061280E+01  0.23561426426E+02  0.29708256462E+02  0.00000000000E+00 0.  1.
</event>
<event>
 8    1  0.1238315E-006  0.9118800E+02  0.7816164E-02  0.1184000E+00
        -11   -1    0    0    0    0  0.00000000000E+00  0.00000000000E+00  0.45593999997E+02  0.45594000000E+02  0.51100000000E-03 0. -1.
         11   -1    0    0    0    0 -0.00000000000E+00 -0.00000000000E+00 -0.45593999997E+02  0.45594000000E+02  0.51100000000E-03 0.  1.
         23    2    1    2    0    0 -0.35527136788E-14  0.77715611724E-15  0.00000000000E+00  0.91188000000E+02  0.91188000000E+02 0.  0.
    9900012    2    3    3    0    0 -0.20759960209E+02  0.29219158078E+00 -0.30409175212E+02  0.54367092069E+02  0.40000017990E+02 0.  0.
         12    1    3    3    0    0  0.20759960209E+02 -0.29219158078E+00  0.30409175212E+02  0.36820907931E+02  0.00000000000E+00 0. -1.
         11    1    4    4    0    0  0.77939863725E+01 -0.92905802385E+00 -0.11565519599E+01  0.79339136045E+01  0.51100000000E-03 0. -1.
        -11    1    4    4    0    0 -0.20773557657E+02 -0.54296448093E+01 -0.29140934977E+02  0.36196903625E+02  0.51100000000E-03 0.  1.
         12    1    4    4    0    0 -0.77803889243E+01  0.66508944140E+01 -0.11168827541E+00  0.10236274840E+02  0.00000000000E+00 0. -1.
</event>
<event>
 8    1  0.1238315E-006  0.9118800E+02  0.7816164E-02  0.1184000E+00
        -11   -1    0    0    0    0  0.00000000000E+00  0.00000000000E+00  0.45593999997E+02  0.45594000000E+02  0.51100000000E-03 0. -1.
         11   -1    0    0    0    0 -0.00000000000E+00 -0.00000000000E+00 -0.45593999997E+02  0.45594000000E+02  0.51100000000E-03 0.  1.
         23    2    1    2    0    0  0.35527136788E-14  0.00000000000E+00  0.35527136788E-14  0.91188000000E+02  0.91188000000E+02 0.  0.
    9900012    2    3    3    0    0  0.31986327204E+02  0.83322165202E+01  0.16224335357E+02  0.54367081789E+02  0.39999994554E+02 0.  0.
        -12    1    3    3    0    0 -0.31986327204E+02 -0.83322165202E+01 -0.16224335357E+02  0.36820918211E+02  0.00000000000E+00 0.  1.
         11    1    4    4    0    0  0.14403587395E+02  0.22853698997E+01  0.72264722193E+01  0.16275999092E+02  0.51100000000E-03 0. -1.
        -11    1    4    4    0    0  0.25002173220E+02 -0.91232461473E+00  0.80854966670E+00  0.25031874775E+02  0.51100000000E-03 0.  1.
         12    1    4    4    0    0 -0.74194334114E+01  0.69591712352E+01  0.81893134705E+01  0.13059207922E+02  0.00000000000E+00 0. -1.
</event>
<event>
 8    1  0.1238315E-006  0.9118800E+02  0.7816164E-02  0.1184000E+00
        -11   -1    0    0    0    0  0.00000000000E+00  0.00000000000E+00  0.45593999997E+02  0.45594000000E+02  0.51100000000E-03 0.  1.
         11   -1    0    0    0    0 -0.00000000000E+00 -0.00000000000E+00 -0.45593999997E+02  0.45594000000E+02  0.51100000000E-03 0. -1.
         23    2    1    2    0    0  0.13600232052E-14 -0.35527136788E-14  0.35527136788E-14  0.91188000000E+02  0.91188000000E+02 0.  0.
    9900012    2    3    3    0    0  0.18086125230E+00  0.22816182458E+02 -0.28899296872E+02  0.54367078604E+02  0.39999987294E+02 0.  0.
        -12    1    3    3    0    0 -0.18086125230E+00 -0.22816182458E+02  0.28899296872E+02  0.36820921396E+02  0.00000000000E+00 0.  1.
         11    1    4    4    0    0  0.81452918963E+01  0.21295863577E+02  0.80029085111E+00  0.22814470217E+02  0.51100000000E-03 0.  1.
        -11    1    4    4    0    0  0.10670670695E+01 -0.32386315050E+00 -0.63901188405E+01  0.64866893350E+01  0.51100000000E-03 0. -1.
        -12    1    4    4    0    0 -0.90314977134E+01  0.18441820307E+01 -0.23309468883E+02  0.25065919052E+02  0.00000000000E+00 0.  1.
</event>
<event>
 8    1  0.1238315E-006  0.9118800E+02  0.7816164E-02  0.1184000E+00
        -11   -1    0    0    0    0  0.00000000000E+00  0.00000000000E+00  0.45593999997E+02  0.45594000000E+02  0.51100000000E-03 0.  1.
         11   -1    0    0    0    0 -0.00000000000E+00 -0.00000000000E+00 -0.45593999997E+02  0.45594000000E+02  0.51100000000E-03 0. -1.
         23    2    1    2    0    0  0.00000000000E+00  0.88817841970E-15  0.00000000000E+00  0.91188000000E+02  0.91188000000E+02 0.  0.
    9900012    2    3    3    0    0 -0.28054769027E+02  0.40670519081E+01  0.23498253958E+02  0.54367096759E+02  0.40000028682E+02 0.  0.
         12    1    3    3    0    0  0.28054769027E+02 -0.40670519081E+01 -0.23498253958E+02  0.36820903241E+02  0.00000000000E+00 0. -1.
         11    1    4    4    0    0 -0.60609705417E+01  0.17035234198E+02  0.93868823343E+01  0.20372730016E+02  0.51100000000E-03 0. -1.
        -11    1    4    4    0    0 -0.11265929119E+02 -0.50788685075E+01  0.16346050067E+02  0.20491691421E+02  0.51100000000E-03 0.  1.
         12    1    4    4    0    0 -0.10727869366E+02 -0.78893137828E+01 -0.22346784433E+01  0.13502675322E+02  0.00000000000E+00 0. -1.
</event>
<event>
 8    1  0.1238315E-006  0.9118800E+02  0.7816164E-02  0.1184000E+00
        -11   -1    0    0    0    0  0.00000000000E+00  0.00000000000E+00  0.45593999997E+02  0.45594000000E+02  0.51100000000E-03 0.  1.
         11   -1    0    0    0    0 -0.00000000000E+00 -0.00000000000E+00 -0.45593999997E+02  0.45594000000E+02  0.51100000000E-03 0. -1.
         23    2    1    2    0    0  0.00000000000E+00  0.00000000000E+00  0.00000000000E+00  0.91188000000E+02  0.91188000000E+02 0.  0.
    9900012    2    3    3    0    0  0.12508813451E+02  0.17168108377E+02  0.30075995505E+02  0.54367083868E+02  0.39999999293E+02 0.  0.
         12    1    3    3    0    0 -0.12508813451E+02 -0.17168108377E+02 -0.30075995505E+02  0.36820916132E+02  0.00000000000E+00 0. -1.
         11    1    4    4    0    0  0.52478014238E+01 -0.12680749658E+01  0.33345779208E+01  0.63456161303E+01  0.51100000000E-03 0. -1.
        -11    1    4    4    0    0 -0.34153084994E+01  0.25877941066E+02  0.13236836334E+02  0.29266807178E+02  0.51100000000E-03 0.  1.
        -12    1    4    4    0    0  0.10676320526E+02 -0.74417577228E+01  0.13504581250E+02  0.18754660560E+02  0.00000000000E+00 0.  1.
</event>
<event>
 8    1  0.1238315E-006  0.9118800E+02  0.7816164E-02  0.1184000E+00
        -11   -1    0    0    0    0  0.00000000000E+00  0.00000000000E+00  0.45593999997E+02  0.45594000000E+02  0.51100000000E-03 0.  1.
         11   -1    0    0    0    0 -0.00000000000E+00 -0.00000000000E+00 -0.45593999997E+02  0.45594000000E+02  0.51100000000E-03 0. -1.
         23    2    1    2    0    0 -0.35527136788E-14  0.10658141036E-13 -0.17763568394E-14  0.91188000000E+02  0.91188000000E+02 0.  0.
    9900012    2    3    3    0    0  0.26287781501E+02 -0.25386442585E+02  0.45011215959E+01  0.54367095354E+02  0.40000025478E+02 0.  0.
        -12    1    3    3    0    0 -0.26287781501E+02  0.25386442585E+02 -0.45011215959E+01  0.36820904646E+02  0.00000000000E+00 0.  1.
         11    1    4    4    0    0  0.44804438700E+01  0.51074264418E+01  0.20714823230E+01  0.71029023227E+01  0.51100000000E-03 0.  1.
        -11    1    4    4    0    0  0.80702521576E+01 -0.83601284498E+01  0.14476706445E+02  0.18563290316E+02  0.51100000000E-03 0. -1.
         12    1    4    4    0    0  0.13737085473E+02 -0.22133740577E+02 -0.12047067172E+02  0.28700902715E+02  0.00000000000E+00 0. -1.
</event>
<event>
 8    1  0.1238315E-006  0.9118800E+02  0.7816164E-02  0.1184000E+00
        -11   -1    0    0    0    0  0.00000000000E+00  0.00000000000E+00  0.45593999997E+02  0.45594000000E+02  0.51100000000E-03 0.  1.
         11   -1    0    0    0    0 -0.00000000000E+00 -0.00000000000E+00 -0.45593999997E+02  0.45594000000E+02  0.51100000000E-03 0. -1.
         23    2    1    2    0    0  0.00000000000E+00  0.88817841970E-15 -0.71054273576E-14  0.91188000000E+02  0.91188000000E+02 0.  0.
    9900012    2    3    3    0    0 -0.36341230019E+01  0.30396365899E+01 -0.36514857152E+02  0.54367067999E+02  0.39999963118E+02 0.  0.
        -12    1    3    3    0    0  0.36341230019E+01 -0.30396365899E+01  0.36514857152E+02  0.36820932001E+02  0.00000000000E+00 0.  1.
         11    1    4    4    0    0  0.37878742814E+01 -0.36333863426E+01 -0.19253589693E+02  0.19956207160E+02  0.51100000000E-03 0. -1.
        -11    1    4    4    0    0  0.78135205540E+01 -0.59658869235E+01 -0.41729579869E+01  0.10679723257E+02  0.51100000000E-03 0.  1.
        -12    1    4    4    0    0 -0.15235517837E+02  0.12638909856E+02 -0.13088309472E+02  0.23731137582E+02  0.00000000000E+00 0.  1.
</event>
<event>
 8    1  0.1238315E-006  0.9118800E+02  0.7816164E-02  0.1184000E+00
        -11   -1    0    0    0    0  0.00000000000E+00  0.00000000000E+00  0.45593999997E+02  0.45594000000E+02  0.51100000000E-03 0.  1.
         11   -1    0    0    0    0 -0.00000000000E+00 -0.00000000000E+00 -0.45593999997E+02  0.45594000000E+02  0.51100000000E-03 0. -1.
         23    2    1    2    0    0  0.00000000000E+00  0.00000000000E+00  0.35527136788E-14  0.91188000000E+02  0.91188000000E+02 0.  0.
    9900012    2    3    3    0    0 -0.18897892506E+02  0.25178431622E+02 -0.19097059039E+02  0.54367062694E+02  0.39999951025E+02 0.  0.
        -12    1    3    3    0    0  0.18897892506E+02 -0.25178431622E+02  0.19097059039E+02  0.36820937306E+02  0.00000000000E+00 0.  1.
         11    1    4    4    0    0 -0.17783610061E+02 -0.88725900573E+00  0.46037354830E+01  0.18391258684E+02  0.51100000000E-03 0.  1.
        -11    1    4    4    0    0 -0.22708453712E+01  0.11956493910E+02 -0.68422221519E+01  0.13961750948E+02  0.51100000000E-03 0. -1.
        -12    1    4    4    0    0  0.11565629260E+01  0.14109196718E+02 -0.16858572370E+02  0.22014053062E+02  0.00000000000E+00 0.  1.
</event>
<event>
 8    1  0.1238315E-006  0.9118800E+02  0.7816164E-02  0.1184000E+00
        -11   -1    0    0    0    0  0.00000000000E+00  0.00000000000E+00  0.45593999997E+02  0.45594000000E+02  0.51100000000E-03 0.  1.
         11   -1    0    0    0    0 -0.00000000000E+00 -0.00000000000E+00 -0.45593999997E+02  0.45594000000E+02  0.51100000000E-03 0. -1.
         23    2    1    2    0    0 -0.88817841970E-15 -0.35527136788E-14  0.35527136788E-14  0.91188000000E+02  0.91188000000E+02 0.  0.
    9900012    2    3    3    0    0  0.26193616946E+01  0.23852345175E+02 -0.27928134709E+02  0.54367134525E+02  0.40000114775E+02 0.  0.
        -12    1    3    3    0    0 -0.26193616946E+01 -0.23852345175E+02  0.27928134709E+02  0.36820865475E+02  0.00000000000E+00 0.  1.
         11    1    4    4    0    0  0.11623268859E+02  0.23198548853E+02 -0.30406964955E+02  0.39973198095E+02  0.51100000000E-03 0. -1.
        -11    1    4    4    0    0  0.25710011120E+01  0.33865713643E+00  0.62256083073E+00  0.26668928781E+01  0.51100000000E-03 0.  1.
        -12    1    4    4    0    0 -0.11574908277E+02  0.31513918495E+00  0.18562694154E+01  0.11727043552E+02  0.00000000000E+00 0.  1.
</event>
<event>
 8    1  0.1238315E-006  0.9118800E+02  0.7816164E-02  0.1184000E+00
        -11   -1    0    0    0    0  0.00000000000E+00  0.00000000000E+00  0.45593999997E+02  0.45594000000E+02  0.51100000000E-03 0.  1.
         11   -1    0    0    0    0 -0.00000000000E+00 -0.00000000000E+00 -0.45593999997E+02  0.45594000000E+02  0.51100000000E-03 0. -1.
         23    2    1    2    0    0 -0.17763568394E-14 -0.17763568394E-14  0.00000000000E+00  0.91188000000E+02  0.91188000000E+02 0.  0.
    9900012    2    3    3    0    0  0.13144146519E+02 -0.88125877703E+01  0.33246800958E+02  0.54367081152E+02  0.39999993101E+02 0.  0.
         12    1    3    3    0    0 -0.13144146519E+02  0.88125877703E+01 -0.33246800958E+02  0.36820918848E+02  0.00000000000E+00 0. -1.
         11    1    4    4    0    0  0.11398070253E+02  0.41785084910E+00  0.14647497208E+02  0.18564476280E+02  0.51100000000E-03 0.  1.
        -11    1    4    4    0    0  0.51876293495E+01 -0.15629440684E+02  0.22241980461E+02  0.27674837117E+02  0.51100000000E-03 0. -1.
         12    1    4    4    0    0 -0.34415530838E+01  0.63990020650E+01 -0.36426767109E+01  0.81277677549E+01  0.00000000000E+00 0. -1.
</event>
<event>
 8    1  0.1238315E-006  0.9118800E+02  0.7816164E-02  0.1184000E+00
        -11   -1    0    0    0    0  0.00000000000E+00  0.00000000000E+00  0.45593999997E+02  0.45594000000E+02  0.51100000000E-03 0. -1.
         11   -1    0    0    0    0 -0.00000000000E+00 -0.00000000000E+00 -0.45593999997E+02  0.45594000000E+02  0.51100000000E-03 0.  1.
         23    2    1    2    0    0 -0.35527136788E-14  0.00000000000E+00  0.00000000000E+00  0.91188000000E+02  0.91188000000E+02 0.  0.
    9900012    2    3    3    0    0  0.16261621392E+02  0.24865001772E+02 -0.21750192395E+02  0.54367088650E+02  0.40000010195E+02 0.  0.
         12    1    3    3    0    0 -0.16261621392E+02 -0.24865001772E+02  0.21750192395E+02  0.36820911350E+02  0.00000000000E+00 0. -1.
         11    1    4    4    0    0  0.16565369032E+02  0.17380544329E+02  0.44463672152E+01  0.24418537098E+02  0.51100000000E-03 0. -1.
        -11    1    4    4    0    0  0.14353759147E+01  0.89786919182E+01 -0.97075697751E+01  0.13300906878E+02  0.51100000000E-03 0.  1.
        -12    1    4    4    0    0 -0.17391235540E+01 -0.14942344747E+01 -0.16488989835E+02  0.16647644674E+02  0.00000000000E+00 0.  1.
</event>
<event>
 8    1  0.1238315E-006  0.9118800E+02  0.7816164E-02  0.1184000E+00
        -11   -1    0    0    0    0  0.00000000000E+00  0.00000000000E+00  0.45593999997E+02  0.45594000000E+02  0.51100000000E-03 0. -1.
         11   -1    0    0    0    0 -0.00000000000E+00 -0.00000000000E+00 -0.45593999997E+02  0.45594000000E+02  0.51100000000E-03 0.  1.
         23    2    1    2    0    0  0.00000000000E+00  0.00000000000E+00 -0.35527136788E-14  0.91188000000E+02  0.91188000000E+02 0.  0.
    9900012    2    3    3    0    0  0.32128465916E+02 -0.12430167666E+02  0.13001282435E+02  0.54367072048E+02  0.39999972348E+02 0.  0.
        -12    1    3    3    0    0 -0.32128465916E+02  0.12430167666E+02 -0.13001282435E+02  0.36820927952E+02  0.00000000000E+00 0.  1.
         11    1    4    4    0    0  0.10760394509E+02  0.37442867845E+01  0.18786721460E+02  0.21971496922E+02  0.51100000000E-03 0. -1.
        -11    1    4    4    0    0 -0.13434404224E+01 -0.24012488478E+01 -0.51354388819E+01  0.58261102777E+01  0.51100000000E-03 0.  1.
        -12    1    4    4    0    0  0.22711511829E+02 -0.13773205603E+02 -0.65000014342E+00  0.26569464848E+02  0.00000000000E+00 0.  1.
</event>
<event>
 8    1  0.1238315E-006  0.9118800E+02  0.7816164E-02  0.1184000E+00
        -11   -1    0    0    0    0  0.00000000000E+00  0.00000000000E+00  0.45593999997E+02  0.45594000000E+02  0.51100000000E-03 0.  1.
         11   -1    0    0    0    0 -0.00000000000E+00 -0.00000000000E+00 -0.45593999997E+02  0.45594000000E+02  0.51100000000E-03 0. -1.
         23    2    1    2    0    0 -0.35527136788E-14  0.00000000000E+00  0.00000000000E+00  0.91188000000E+02  0.91188000000E+02 0.  0.
    9900012    2    3    3    0    0 -0.26407476957E+02 -0.24957047705E+02 -0.59640122011E+01  0.54367102252E+02  0.40000041204E+02 0.  0.
        -12    1    3    3    0    0  0.26407476957E+02  0.24957047705E+02  0.59640122011E+01  0.36820897748E+02  0.00000000000E+00 0.  1.
         11    1    4    4    0    0 -0.12555273184E+02  0.87262172042E+01  0.15949275205E+01  0.15372883447E+02  0.51100000000E-03 0.  1.
        -11    1    4    4    0    0 -0.10457000295E+02 -0.20816459153E+02  0.74743200621E+00  0.23307348234E+02  0.51100000000E-03 0. -1.
        -12    1    4    4    0    0 -0.33952034782E+01 -0.12866805756E+02 -0.83063717278E+01  0.15686870571E+02  0.00000000000E+00 0.  1.
</event>
<event>
 8    1  0.1238315E-006  0.9118800E+02  0.7816164E-02  0.1184000E+00
        -11   -1    0    0    0    0  0.00000000000E+00  0.00000000000E+00  0.45593999997E+02  0.45594000000E+02  0.51100000000E-03 0.  1.
         11   -1    0    0    0    0 -0.00000000000E+00 -0.00000000000E+00 -0.45593999997E+02  0.45594000000E+02  0.51100000000E-03 0. -1.
         23    2    1    2    0    0  0.00000000000E+00  0.00000000000E+00  0.00000000000E+00  0.91188000000E+02  0.91188000000E+02 0.  0.
    9900012    2    3    3    0    0  0.30864345289E+02 -0.18278050937E+02  0.83113851053E+01  0.54367162441E+02  0.40000178417E+02 0.  0.
         12    1    3    3    0    0 -0.30864345289E+02  0.18278050937E+02 -0.83113851053E+01  0.36820837559E+02  0.00000000000E+00 0. -1.
         11    1    4    4    0    0 -0.19504925793E+01 -0.33323688736E+01 -0.29405945597E+01  0.48534730078E+01  0.51100000000E-03 0. -1.
        -11    1    4    4    0    0  0.23314527597E+02 -0.14450298258E+02  0.21998601403E+02  0.35161296631E+02  0.51100000000E-03 0.  1.
        -12    1    4    4    0    0  0.95003102708E+01 -0.49538380586E+00 -0.10746621738E+02  0.14352392802E+02  0.00000000000E+00 0.  1.
</event>
<event>
 8    1  0.1238315E-006  0.9118800E+02  0.7816164E-02  0.1184000E+00
        -11   -1    0    0    0    0  0.00000000000E+00  0.00000000000E+00  0.45593999997E+02  0.45594000000E+02  0.51100000000E-03 0. -1.
         11   -1    0    0    0    0 -0.00000000000E+00 -0.00000000000E+00 -0.45593999997E+02  0.45594000000E+02  0.51100000000E-03 0.  1.
         23    2    1    2    0    0  0.17763568394E-14  0.00000000000E+00  0.35527136788E-14  0.91188000000E+02  0.91188000000E+02 0.  0.
    9900012    2    3    3    0    0 -0.15333937637E+02 -0.26522932137E+02 -0.20425043650E+02  0.54367109453E+02  0.40000057619E+02 0.  0.
         12    1    3    3    0    0  0.15333937637E+02  0.26522932137E+02  0.20425043650E+02  0.36820890547E+02  0.00000000000E+00 0. -1.
         11    1    4    4    0    0  0.88473040657E+01 -0.10164286441E+02 -0.43885905880E+01  0.14172058273E+02  0.51100000000E-03 0. -1.
        -11    1    4    4    0    0 -0.37245660808E+01  0.49120831291E+01 -0.70082431429E+01  0.93336180214E+01  0.51100000000E-03 0.  1.
        -12    1    4    4    0    0 -0.20456675622E+02 -0.21270728825E+02 -0.90282099193E+01  0.30861433158E+02  0.00000000000E+00 0.  1.
</event>
<event>
 8    1  0.1238315E-006  0.9118800E+02  0.7816164E-02  0.1184000E+00
        -11   -1    0    0    0    0  0.00000000000E+00  0.00000000000E+00  0.45593999997E+02  0.45594000000E+02  0.51100000000E-03 0. -1.
         11   -1    0    0    0    0 -0.00000000000E+00 -0.00000000000E+00 -0.45593999997E+02  0.45594000000E+02  0.51100000000E-03 0.  1.
         23    2    1    2    0    0  0.35527136788E-14  0.35527136788E-14  0.00000000000E+00  0.91188000000E+02  0.91188000000E+02 0.  0.
    9900012    2    3    3    0    0  0.14613689824E+02  0.25513866928E+02  0.22164450416E+02  0.54367079341E+02  0.39999988974E+02 0.  0.
        -12    1    3    3    0    0 -0.14613689824E+02 -0.25513866928E+02 -0.22164450416E+02  0.36820920659E+02  0.00000000000E+00 0.  1.
         11    1    4    4    0    0  0.25303825892E+01  0.27154435819E+02  0.12002894394E+02  0.29796571863E+02  0.51100000000E-03 0. -1.
        -11    1    4    4    0    0 -0.59221167464E+00 -0.19645849237E+01 -0.46442189950E+01  0.50773102057E+01  0.51100000000E-03 0.  1.
         12    1    4    4    0    0  0.12675518910E+02  0.32401603258E+00  0.14805775017E+02  0.19493197272E+02  0.00000000000E+00 0. -1.
</event>
<event>
 8    1  0.1238315E-006  0.9118800E+02  0.7816164E-02  0.1184000E+00
        -11   -1    0    0    0    0  0.00000000000E+00  0.00000000000E+00  0.45593999997E+02  0.45594000000E+02  0.51100000000E-03 0.  1.
         11   -1    0    0    0    0 -0.00000000000E+00 -0.00000000000E+00 -0.45593999997E+02  0.45594000000E+02  0.51100000000E-03 0. -1.
         23    2    1    2    0    0  0.00000000000E+00  0.00000000000E+00 -0.35527136788E-14  0.91188000000E+02  0.91188000000E+02 0.  0.
    9900012    2    3    3    0    0 -0.11060368217E+02  0.23402560146E+02  0.26187179642E+02  0.54367082791E+02  0.39999996840E+02 0.  0.
         12    1    3    3    0    0  0.11060368217E+02 -0.23402560146E+02 -0.26187179642E+02  0.36820917209E+02  0.00000000000E+00 0. -1.
         11    1    4    4    0    0  0.90266411110E+01  0.12495186546E+02 -0.24048608506E+01  0.15601067032E+02  0.51100000000E-03 0. -1.
        -11    1    4    4    0    0 -0.83522307810E+01  0.11470928958E+02  0.18226385221E+02  0.23098551657E+02  0.51100000000E-03 0.  1.
         12    1    4    4    0    0 -0.11734778547E+02 -0.56355535740E+00  0.10365655271E+02  0.15667464102E+02  0.00000000000E+00 0. -1.
</event>
<event>
 8    1  0.1238315E-006  0.9118800E+02  0.7816164E-02  0.1184000E+00
        -11   -1    0    0    0    0  0.00000000000E+00  0.00000000000E+00  0.45593999997E+02  0.45594000000E+02  0.51100000000E-03 0.  1.
         11   -1    0    0    0    0 -0.00000000000E+00 -0.00000000000E+00 -0.45593999997E+02  0.45594000000E+02  0.51100000000E-03 0. -1.
         23    2    1    2    0    0  0.35527136788E-14  0.00000000000E+00 -0.22204460493E-15  0.91188000000E+02  0.91188000000E+02 0.  0.
    9900012    2    3    3    0    0  0.26848240392E+02  0.25142490240E+02 -0.16755550177E+01  0.54367077793E+02  0.39999985444E+02 0.  0.
        -12    1    3    3    0    0 -0.26848240392E+02 -0.25142490240E+02  0.16755550177E+01  0.36820922207E+02  0.00000000000E+00 0.  1.
         11    1    4    4    0    0  0.30080915753E+02  0.19964448335E+02 -0.73339479503E+01  0.36840568435E+02  0.51100000000E-03 0. -1.
        -11    1    4    4    0    0 -0.61861637149E+01  0.91605556644E+01  0.59619855017E+01  0.12559047455E+02  0.51100000000E-03 0.  1.
        -12    1    4    4    0    0  0.29534883541E+01 -0.39825137597E+01 -0.30359256906E+00  0.49674619024E+01  0.00000000000E+00 0.  1.
</event>
<event>
 8    1  0.1238315E-006  0.9118800E+02  0.7816164E-02  0.1184000E+00
        -11   -1    0    0    0    0  0.00000000000E+00  0.00000000000E+00  0.45593999997E+02  0.45594000000E+02  0.51100000000E-03 0.  1.
         11   -1    0    0    0    0 -0.00000000000E+00 -0.00000000000E+00 -0.45593999997E+02  0.45594000000E+02  0.51100000000E-03 0. -1.
         23    2    1    2    0    0  0.00000000000E+00  0.00000000000E+00 -0.17763568394E-14  0.91188000000E+02  0.91188000000E+02 0.  0.
    9900012    2    3    3    0    0  0.52294413343E+01 -0.34362405966E+02  0.12151415344E+02  0.54367097033E+02  0.40000029305E+02 0.  0.
        -12    1    3    3    0    0 -0.52294413343E+01  0.34362405966E+02 -0.12151415344E+02  0.36820902967E+02  0.00000000000E+00 0.  1.
         11    1    4    4    0    0 -0.86635887987E+01 -0.19746351901E+02  0.18959733971E+02  0.28713197258E+02  0.51100000000E-03 0. -1.
        -11    1    4    4    0    0  0.13941505575E+02 -0.45468386497E+01 -0.41100729492E+01  0.15229314473E+02  0.51100000000E-03 0.  1.
         12    1    4    4    0    0 -0.48475442460E-01 -0.10069215416E+02 -0.26982456782E+01  0.10424585301E+02  0.00000000000E+00 0. -1.
</event>
<event>
 8    1  0.1238315E-006  0.9118800E+02  0.7816164E-02  0.1184000E+00
        -11   -1    0    0    0    0  0.00000000000E+00  0.00000000000E+00  0.45593999997E+02  0.45594000000E+02  0.51100000000E-03 0.  1.
         11   -1    0    0    0    0 -0.00000000000E+00 -0.00000000000E+00 -0.45593999997E+02  0.45594000000E+02  0.51100000000E-03 0. -1.
         23    2    1    2    0    0  0.35527136788E-14  0.00000000000E+00 -0.35527136788E-14  0.91188000000E+02  0.91188000000E+02 0.  0.
    9900012    2    3    3    0    0  0.15373866516E+02 -0.22838704083E+02 -0.24450264176E+02  0.54367114702E+02  0.40000069586E+02 0.  0.
        -12    1    3    3    0    0 -0.15373866516E+02  0.22838704083E+02  0.24450264176E+02  0.36820885298E+02  0.00000000000E+00 0.  1.
         11    1    4    4    0    0  0.18363495654E+02 -0.64244829229E+01 -0.20375869185E+02  0.28172113850E+02  0.51100000000E-03 0. -1.
        -11    1    4    4    0    0 -0.35373619610E+00 -0.59855358157E+01 -0.11606257306E+02  0.13063574442E+02  0.51100000000E-03 0.  1.
        -12    1    4    4    0    0 -0.26358929424E+01 -0.10428685345E+02  0.75318623151E+01  0.13131426410E+02  0.00000000000E+00 0.  1.
</event>
<event>
 8    1  0.1238315E-006  0.9118800E+02  0.7816164E-02  0.1184000E+00
        -11   -1    0    0    0    0  0.00000000000E+00  0.00000000000E+00  0.45593999997E+02  0.45594000000E+02  0.51100000000E-03 0. -1.
         11   -1    0    0    0    0 -0.00000000000E+00 -0.00000000000E+00 -0.45593999997E+02  0.45594000000E+02  0.51100000000E-03 0.  1.
         23    2    1    2    0    0 -0.17763568394E-14 -0.17763568394E-14  0.35527136788E-14  0.91188000000E+02  0.91188000000E+02 0.  0.
    9900012    2    3    3    0    0 -0.14810005979E+02 -0.13903182167E+02  0.30710661867E+02  0.54367088770E+02  0.40000010470E+02 0.  0.
        -12    1    3    3    0    0  0.14810005979E+02  0.13903182167E+02 -0.30710661867E+02  0.36820911230E+02  0.00000000000E+00 0.  1.
         11    1    4    4    0    0 -0.12206298071E+02 -0.14410872119E+02 -0.20539918640E+01  0.18996995307E+02  0.51100000000E-03 0. -1.
        -11    1    4    4    0    0  0.21473936546E+01  0.90186280552E+00  0.70477165851E-01  0.23301552137E+01  0.51100000000E-03 0.  1.
        -12    1    4    4    0    0 -0.47511015627E+01 -0.39417285305E+00  0.32694176565E+02  0.33039938250E+02  0.00000000000E+00 0.  1.
</event>
<event>
 8    1  0.1238315E-006  0.9118800E+02  0.7816164E-02  0.1184000E+00
        -11   -1    0    0    0    0  0.00000000000E+00  0.00000000000E+00  0.45593999997E+02  0.45594000000E+02  0.51100000000E-03 0. -1.
         11   -1    0    0    0    0 -0.00000000000E+00 -0.00000000000E+00 -0.45593999997E+02  0.45594000000E+02  0.51100000000E-03 0.  1.
         23    2    1    2    0    0 -0.44408920985E-15 -0.13322676296E-14  0.00000000000E+00  0.91188000000E+02  0.91188000000E+02 0.  0.
    9900012    2    3    3    0    0  0.31862713054E+01 -0.38295588637E+01 -0.36482308217E+02  0.54367127403E+02  0.40000098541E+02 0.  0.
         12    1    3    3    0    0 -0.31862713054E+01  0.38295588637E+01  0.36482308217E+02  0.36820872597E+02  0.00000000000E+00 0. -1.
         11    1    4    4    0    0 -0.39177280464E+01 -0.84770444970E+01 -0.89353548397E+01  0.12924760842E+02  0.51100000000E-03 0.  1.
        -11    1    4    4    0    0 -0.40336767413E+01  0.70619092899E+01 -0.28847546972E+02  0.29972021578E+02  0.51100000000E-03 0. -1.
         12    1    4    4    0    0  0.11137676093E+02 -0.24144236566E+01  0.13005935948E+01  0.11470344984E+02  0.00000000000E+00 0. -1.
</event>
<event>
 8    1  0.1238315E-006  0.9118800E+02  0.7816164E-02  0.1184000E+00
        -11   -1    0    0    0    0  0.00000000000E+00  0.00000000000E+00  0.45593999997E+02  0.45594000000E+02  0.51100000000E-03 0. -1.
         11   -1    0    0    0    0 -0.00000000000E+00 -0.00000000000E+00 -0.45593999997E+02  0.45594000000E+02  0.51100000000E-03 0.  1.
         23    2    1    2    0    0  0.00000000000E+00 -0.88817841970E-15 -0.35527136788E-14  0.91188000000E+02  0.91188000000E+02 0.  0.
    9900012    2    3    3    0    0 -0.27777600384E+02  0.62653574916E+01 -0.23343754323E+02  0.54367073159E+02  0.39999974880E+02 0.  0.
         12    1    3    3    0    0  0.27777600384E+02 -0.62653574916E+01  0.23343754323E+02  0.36820926841E+02  0.00000000000E+00 0. -1.
         11    1    4    4    0    0 -0.13731633137E+02  0.90577258412E+01  0.84841300603E+01  0.18508933226E+02  0.51100000000E-03 0. -1.
        -11    1    4    4    0    0 -0.76338794356E+01 -0.32955012172E+01 -0.25555770345E+02  0.26874408677E+02  0.51100000000E-03 0.  1.
         12    1    4    4    0    0 -0.64120878118E+01  0.50313286755E+00 -0.62721140374E+01  0.89837312564E+01  0.00000000000E+00 0. -1.
</event>
<event>
 8    1  0.1238315E-006  0.9118800E+02  0.7816164E-02  0.1184000E+00
        -11   -1    0    0    0    0  0.00000000000E+00  0.00000000000E+00  0.45593999997E+02  0.45594000000E+02  0.51100000000E-03 0.  1.
         11   -1    0    0    0    0 -0.00000000000E+00 -0.00000000000E+00 -0.45593999997E+02  0.45594000000E+02  0.51100000000E-03 0. -1.
         23    2    1    2    0    0  0.00000000000E+00  0.35527136788E-14  0.00000000000E+00  0.91188000000E+02  0.91188000000E+02 0.  0.
    9900012    2    3    3    0    0 -0.36135921885E+01  0.29706554954E+02 -0.21453251467E+02  0.54367089443E+02  0.40000012004E+02 0.  0.
        -12    1    3    3    0    0  0.36135921885E+01 -0.29706554954E+02  0.21453251467E+02  0.36820910557E+02  0.00000000000E+00 0.  1.
         11    1    4    4    0    0  0.95158561911E+01  0.16503580590E+02 -0.10838237720E+02  0.21917734565E+02  0.51100000000E-03 0. -1.
        -11    1    4    4    0    0 -0.78225584445E+01 -0.51061345349E+01 -0.95465898289E+01  0.13356736433E+02  0.51100000000E-03 0.  1.
        -12    1    4    4    0    0 -0.53068899351E+01  0.18309108898E+02 -0.10684239189E+01  0.19092618445E+02  0.00000000000E+00 0.  1.
</event>
<event>
 8    1  0.1238315E-006  0.9118800E+02  0.7816164E-02  0.1184000E+00
        -11   -1    0    0    0    0  0.00000000000E+00  0.00000000000E+00  0.45593999997E+02  0.45594000000E+02  0.51100000000E-03 0. -1.
         11   -1    0    0    0    0 -0.00000000000E+00 -0.00000000000E+00 -0.45593999997E+02  0.45594000000E+02  0.51100000000E-03 0.  1.
         23    2    1    2    0    0  0.00000000000E+00  0.00000000000E+00 -0.35527136788E-14  0.91188000000E+02  0.91188000000E+02 0.  0.
    9900012    2    3    3    0    0  0.96006884735E+01  0.16876841060E+02  0.31285465102E+02  0.54367064244E+02  0.39999954557E+02 0.  0.
        -12    1    3    3    0    0 -0.96006884735E+01 -0.16876841060E+02 -0.31285465102E+02  0.36820935756E+02  0.00000000000E+00 0.  1.
         11    1    4    4    0    0  0.13722398673E+02  0.20181582957E+02  0.24285579161E+02  0.34429491304E+02  0.51100000000E-03 0. -1.
        -11    1    4    4    0    0  0.36859220183E+01  0.53500668074E+01  0.47950713844E+01  0.80747721832E+01  0.51100000000E-03 0.  1.
        -12    1    4    4    0    0 -0.78076322179E+01 -0.86548087051E+01  0.22048145564E+01  0.11862800757E+02  0.00000000000E+00 0.  1.
</event>
<event>
 8    1  0.1238315E-006  0.9118800E+02  0.7816164E-02  0.1184000E+00
        -11   -1    0    0    0    0  0.00000000000E+00  0.00000000000E+00  0.45593999997E+02  0.45594000000E+02  0.51100000000E-03 0. -1.
         11   -1    0    0    0    0 -0.00000000000E+00 -0.00000000000E+00 -0.45593999997E+02  0.45594000000E+02  0.51100000000E-03 0.  1.
         23    2    1    2    0    0  0.71054273576E-14  0.00000000000E+00 -0.14988010832E-14  0.91188000000E+02  0.91188000000E+02 0.  0.
    9900012    2    3    3    0    0  0.36595932287E+02 -0.40607893746E+01 -0.16702919449E+00  0.54367079736E+02  0.39999989875E+02 0.  0.
        -12    1    3    3    0    0 -0.36595932287E+02  0.40607893746E+01  0.16702919449E+00  0.36820920264E+02  0.00000000000E+00 0.  1.
         11    1    4    4    0    0  0.29932165825E+02 -0.12226707338E+02 -0.55954650221E+01  0.32813658016E+02  0.51100000000E-03 0. -1.
        -11    1    4    4    0    0 -0.26300276785E+01 -0.31153268407E+01 -0.26407213753E+01  0.48575422342E+01  0.51100000000E-03 0.  1.
         12    1    4    4    0    0  0.92937941407E+01  0.11281244804E+02  0.80691572029E+01  0.16695879486E+02  0.00000000000E+00 0. -1.
</event>
<event>
 8    1  0.1238315E-006  0.9118800E+02  0.7816164E-02  0.1184000E+00
        -11   -1    0    0    0    0  0.00000000000E+00  0.00000000000E+00  0.45593999997E+02  0.45594000000E+02  0.51100000000E-03 0. -1.
         11   -1    0    0    0    0 -0.00000000000E+00 -0.00000000000E+00 -0.45593999997E+02  0.45594000000E+02  0.51100000000E-03 0.  1.
         23    2    1    2    0    0 -0.17763568394E-14  0.00000000000E+00  0.00000000000E+00  0.91188000000E+02  0.91188000000E+02 0.  0.
    9900012    2    3    3    0    0  0.85193271976E+01  0.13349492409E+02  0.33241437020E+02  0.54367068200E+02  0.39999963575E+02 0.  0.
        -12    1    3    3    0    0 -0.85193271976E+01 -0.13349492409E+02 -0.33241437020E+02  0.36820931800E+02  0.00000000000E+00 0.  1.
         11    1    4    4    0    0  0.26740831320E+01  0.82371686803E+01  0.21837653217E+02  0.23492227795E+02  0.51100000000E-03 0. -1.
        -11    1    4    4    0    0  0.15248091349E+02  0.93511140615E+01  0.44398273450E+01  0.18429858683E+02  0.51100000000E-03 0.  1.
        -12    1    4    4    0    0 -0.94028472830E+01 -0.42387903325E+01  0.69639564576E+01  0.12444981722E+02  0.00000000000E+00 0.  1.
</event>
<event>
 8    1  0.1238315E-006  0.9118800E+02  0.7816164E-02  0.1184000E+00
        -11   -1    0    0    0    0  0.00000000000E+00  0.00000000000E+00  0.45593999997E+02  0.45594000000E+02  0.51100000000E-03 0.  1.
         11   -1    0    0    0    0 -0.00000000000E+00 -0.00000000000E+00 -0.45593999997E+02  0.45594000000E+02  0.51100000000E-03 0. -1.
         23    2    1    2    0    0  0.17763568394E-14  0.35527136788E-14  0.00000000000E+00  0.91188000000E+02  0.91188000000E+02 0.  0.
    9900012    2    3    3    0    0 -0.10219265244E+02  0.99087920009E+01  0.33958247249E+02  0.54367080712E+02  0.39999992098E+02 0.  0.
         12    1    3    3    0    0  0.10219265244E+02 -0.99087920009E+01 -0.33958247249E+02  0.36820919288E+02  0.00000000000E+00 0. -1.
         11    1    4    4    0    0  0.95245040651E+01 -0.68830425014E+01  0.19815151081E+01  0.11917166364E+02  0.51100000000E-03 0. -1.
        -11    1    4    4    0    0 -0.93754153547E+01  0.12079483742E+02  0.24315892661E+02  0.28724118380E+02  0.51100000000E-03 0.  1.
         12    1    4    4    0    0 -0.10368353954E+02  0.47123507600E+01  0.76608394793E+01  0.13725795967E+02  0.00000000000E+00 0. -1.
</event>
<event>
 8    1  0.1238315E-006  0.9118800E+02  0.7816164E-02  0.1184000E+00
        -11   -1    0    0    0    0  0.00000000000E+00  0.00000000000E+00  0.45593999997E+02  0.45594000000E+02  0.51100000000E-03 0.  1.
         11   -1    0    0    0    0 -0.00000000000E+00 -0.00000000000E+00 -0.45593999997E+02  0.45594000000E+02  0.51100000000E-03 0. -1.
         23    2    1    2    0    0  0.00000000000E+00  0.00000000000E+00  0.71054273576E-14  0.91188000000E+02  0.91188000000E+02 0.  0.
    9900012    2    3    3    0    0 -0.11166635988E+02  0.16597660225E+02 -0.30912848964E+02  0.54367077751E+02  0.39999985349E+02 0.  0.
        -12    1    3    3    0    0  0.11166635988E+02 -0.16597660225E+02  0.30912848964E+02  0.36820922249E+02  0.00000000000E+00 0.  1.
         11    1    4    4    0    0 -0.19267069643E+02  0.13248012058E+02 -0.34022831226E+02  0.41282960662E+02  0.51100000000E-03 0. -1.
        -11    1    4    4    0    0 -0.65865805668E+00 -0.17986977313E+01  0.21488774337E+01  0.28786834578E+01  0.51100000000E-03 0.  1.
        -12    1    4    4    0    0  0.87590917124E+01  0.51483458982E+01  0.96110482874E+00  0.10205433631E+02  0.00000000000E+00 0.  1.
</event>
<event>
 8    1  0.1238315E-006  0.9118800E+02  0.7816164E-02  0.1184000E+00
        -11   -1    0    0    0    0  0.00000000000E+00  0.00000000000E+00  0.45593999997E+02  0.45594000000E+02  0.51100000000E-03 0.  1.
         11   -1    0    0    0    0 -0.00000000000E+00 -0.00000000000E+00 -0.45593999997E+02  0.45594000000E+02  0.51100000000E-03 0. -1.
         23    2    1    2    0    0  0.00000000000E+00  0.00000000000E+00 -0.35527136788E-14  0.91188000000E+02  0.91188000000E+02 0.  0.
    9900012    2    3    3    0    0  0.16496431994E+02 -0.27518037531E+02 -0.18066688505E+02  0.54367083504E+02  0.39999998464E+02 0.  0.
        -12    1    3    3    0    0 -0.16496431994E+02  0.27518037531E+02  0.18066688505E+02  0.36820916496E+02  0.00000000000E+00 0.  1.
         11    1    4    4    0    0  0.12821738484E+02 -0.49687315606E+01 -0.10209575574E+02  0.17126608092E+02  0.51100000000E-03 0. -1.
        -11    1    4    4    0    0  0.37883854901E+01 -0.17500577622E+02  0.87163267410E+01  0.19914729068E+02  0.51100000000E-03 0.  1.
         12    1    4    4    0    0 -0.11369198087E+00 -0.50487283486E+01 -0.16573439672E+02  0.17325746344E+02  0.00000000000E+00 0. -1.
</event>
<event>
 8    1  0.1238315E-006  0.9118800E+02  0.7816164E-02  0.1184000E+00
        -11   -1    0    0    0    0  0.00000000000E+00  0.00000000000E+00  0.45593999997E+02  0.45594000000E+02  0.51100000000E-03 0.  1.
         11   -1    0    0    0    0 -0.00000000000E+00 -0.00000000000E+00 -0.45593999997E+02  0.45594000000E+02  0.51100000000E-03 0. -1.
         23    2    1    2    0    0 -0.22204460493E-15  0.00000000000E+00  0.00000000000E+00  0.91188000000E+02  0.91188000000E+02 0.  0.
    9900012    2    3    3    0    0 -0.18081667422E+01  0.25158760484E+02 -0.26824357593E+02  0.54367097563E+02  0.40000030513E+02 0.  0.
        -12    1    3    3    0    0  0.18081667422E+01 -0.25158760484E+02  0.26824357593E+02  0.36820902437E+02  0.00000000000E+00 0.  1.
         11    1    4    4    0    0  0.58398766225E+01  0.20122063829E+02 -0.24552235490E+02  0.32277141750E+02  0.51100000000E-03 0. -1.
        -11    1    4    4    0    0  0.47550060992E+00  0.11098710903E+02 -0.40011211252E+01  0.11807474542E+02  0.51100000000E-03 0.  1.
        -12    1    4    4    0    0 -0.81235439746E+01 -0.60620142485E+01  0.17289990229E+01  0.10282481270E+02  0.00000000000E+00 0.  1.
</event>
<event>
 8    1  0.1238315E-006  0.9118800E+02  0.7816164E-02  0.1184000E+00
        -11   -1    0    0    0    0  0.00000000000E+00  0.00000000000E+00  0.45593999997E+02  0.45594000000E+02  0.51100000000E-03 0. -1.
         11   -1    0    0    0    0 -0.00000000000E+00 -0.00000000000E+00 -0.45593999997E+02  0.45594000000E+02  0.51100000000E-03 0.  1.
         23    2    1    2    0    0  0.17763568394E-14  0.66613381478E-15  0.00000000000E+00  0.91188000000E+02  0.91188000000E+02 0.  0.
    9900012    2    3    3    0    0  0.72622222426E+01  0.16952582602E+01  0.36057825993E+02  0.54367074051E+02  0.39999976913E+02 0.  0.
        -12    1    3    3    0    0 -0.72622222426E+01 -0.16952582602E+01 -0.36057825993E+02  0.36820925949E+02  0.00000000000E+00 0.  1.
         11    1    4    4    0    0  0.13549099264E+02  0.27817249489E+01  0.45328164408E+01  0.14555497577E+02  0.51100000000E-03 0. -1.
        -11    1    4    4    0    0 -0.72156408134E+01 -0.11220640501E+02  0.22755800163E+02  0.26377920444E+02  0.51100000000E-03 0.  1.
         12    1    4    4    0    0  0.92876379182E+00  0.10134173812E+02  0.87692093884E+01  0.13433656030E+02  0.00000000000E+00 0. -1.
</event>
<event>
 8    1  0.1238315E-006  0.9118800E+02  0.7816164E-02  0.1184000E+00
        -11   -1    0    0    0    0  0.00000000000E+00  0.00000000000E+00  0.45593999997E+02  0.45594000000E+02  0.51100000000E-03 0. -1.
         11   -1    0    0    0    0 -0.00000000000E+00 -0.00000000000E+00 -0.45593999997E+02  0.45594000000E+02  0.51100000000E-03 0.  1.
         23    2    1    2    0    0  0.35527136788E-14  0.35527136788E-14  0.00000000000E+00  0.91188000000E+02  0.91188000000E+02 0.  0.
    9900012    2    3    3    0    0 -0.29380194816E+02  0.12157287362E+02  0.18568359224E+02  0.54367089532E+02  0.40000012207E+02 0.  0.
         12    1    3    3    0    0  0.29380194816E+02 -0.12157287362E+02 -0.18568359224E+02  0.36820910468E+02  0.00000000000E+00 0. -1.
         11    1    4    4    0    0  0.25714493290E+01 -0.42034617902E+01  0.35701961148E+01  0.60850425827E+01  0.51100000000E-03 0. -1.
        -11    1    4    4    0    0 -0.96940712255E+01 -0.81678448074E+01  0.55580761477E+01  0.13841275824E+02  0.51100000000E-03 0.  1.
        -12    1    4    4    0    0 -0.22257572919E+02  0.24528593959E+02  0.94400869610E+01  0.34440771125E+02  0.00000000000E+00 0.  1.
</event>
<event>
 8    1  0.1238315E-006  0.9118800E+02  0.7816164E-02  0.1184000E+00
        -11   -1    0    0    0    0  0.00000000000E+00  0.00000000000E+00  0.45593999997E+02  0.45594000000E+02  0.51100000000E-03 0. -1.
         11   -1    0    0    0    0 -0.00000000000E+00 -0.00000000000E+00 -0.45593999997E+02  0.45594000000E+02  0.51100000000E-03 0.  1.
         23    2    1    2    0    0  0.00000000000E+00  0.77715611724E-15  0.00000000000E+00  0.91188000000E+02  0.91188000000E+02 0.  0.
    9900012    2    3    3    0    0 -0.12474430852E+02  0.39328405340E-01 -0.34643412265E+02  0.54367095813E+02  0.40000026525E+02 0.  0.
         12    1    3    3    0    0  0.12474430852E+02 -0.39328405340E-01  0.34643412265E+02  0.36820904187E+02  0.00000000000E+00 0. -1.
         11    1    4    4    0    0 -0.62065510306E+01 -0.11218088407E+02 -0.31750495790E+02  0.34241214441E+02  0.51100000000E-03 0. -1.
        -11    1    4    4    0    0  0.46161569989E+01  0.33910331658E+01 -0.34474566933E+01  0.66852800452E+01  0.51100000000E-03 0.  1.
         12    1    4    4    0    0 -0.10884036820E+02  0.78663836466E+01  0.55454021892E+00  0.13440601327E+02  0.00000000000E+00 0. -1.
</event>
<event>
 8    1  0.1238315E-006  0.9118800E+02  0.7816164E-02  0.1184000E+00
        -11   -1    0    0    0    0  0.00000000000E+00  0.00000000000E+00  0.45593999997E+02  0.45594000000E+02  0.51100000000E-03 0.  1.
         11   -1    0    0    0    0 -0.00000000000E+00 -0.00000000000E+00 -0.45593999997E+02  0.45594000000E+02  0.51100000000E-03 0. -1.
         23    2    1    2    0    0  0.00000000000E+00  0.00000000000E+00  0.35527136788E-14  0.91188000000E+02  0.91188000000E+02 0.  0.
    9900012    2    3    3    0    0  0.93441743490E+01  0.18337691809E+02 -0.30531874514E+02  0.54367083438E+02  0.39999998313E+02 0.  0.
        -12    1    3    3    0    0 -0.93441743490E+01 -0.18337691809E+02  0.30531874514E+02  0.36820916562E+02  0.00000000000E+00 0.  1.
         11    1    4    4    0    0  0.31296245836E+01  0.13298047744E+02 -0.40695440108E+00  0.13667415117E+02  0.51100000000E-03 0. -1.
        -11    1    4    4    0    0  0.14301463685E+02  0.50810289028E+01 -0.80285794457E+01  0.17169939033E+02  0.51100000000E-03 0.  1.
         12    1    4    4    0    0 -0.80869139192E+01 -0.41384837840E-01 -0.22096340667E+02  0.23529729287E+02  0.00000000000E+00 0. -1.
</event>
<event>
 8    1  0.1238315E-006  0.9118800E+02  0.7816164E-02  0.1184000E+00
        -11   -1    0    0    0    0  0.00000000000E+00  0.00000000000E+00  0.45593999997E+02  0.45594000000E+02  0.51100000000E-03 0.  1.
         11   -1    0    0    0    0 -0.00000000000E+00 -0.00000000000E+00 -0.45593999997E+02  0.45594000000E+02  0.51100000000E-03 0. -1.
         23    2    1    2    0    0  0.00000000000E+00  0.00000000000E+00 -0.71054273576E-14  0.91188000000E+02  0.91188000000E+02 0.  0.
    9900012    2    3    3    0    0 -0.79236471664E+01  0.34182514021E+01 -0.35795325584E+02  0.54367164041E+02  0.40000182064E+02 0.  0.
        -12    1    3    3    0    0  0.79236471664E+01 -0.34182514021E+01  0.35795325584E+02  0.36820835959E+02  0.00000000000E+00 0.  1.
         11    1    4    4    0    0  0.39766956511E+01 -0.46271164151E+01 -0.36160230124E+02  0.36671331548E+02  0.51100000000E-03 0. -1.
        -11    1    4    4    0    0 -0.93107183439E+00 -0.20194224456E+01  0.16269741250E+01  0.27553596570E+01  0.51100000000E-03 0.  1.
         12    1    4    4    0    0 -0.10969270983E+02  0.10064790263E+02 -0.12620695850E+01  0.14940472836E+02  0.00000000000E+00 0. -1.
</event>
<event>
 8    1  0.1238315E-006  0.9118800E+02  0.7816164E-02  0.1184000E+00
        -11   -1    0    0    0    0  0.00000000000E+00  0.00000000000E+00  0.45593999997E+02  0.45594000000E+02  0.51100000000E-03 0.  1.
         11   -1    0    0    0    0 -0.00000000000E+00 -0.00000000000E+00 -0.45593999997E+02  0.45594000000E+02  0.51100000000E-03 0. -1.
         23    2    1    2    0    0  0.00000000000E+00  0.00000000000E+00  0.00000000000E+00  0.91188000000E+02  0.91188000000E+02 0.  0.
    9900012    2    3    3    0    0  0.86857510563E+01  0.32025241945E+02  0.15959989410E+02  0.54367086717E+02  0.40000005789E+02 0.  0.
         12    1    3    3    0    0 -0.86857510563E+01 -0.32025241945E+02 -0.15959989410E+02  0.36820913283E+02  0.00000000000E+00 0. -1.
         11    1    4    4    0    0  0.57354247741E+01  0.31608780058E+01 -0.93971100719E+01  0.11453904359E+02  0.51100000000E-03 0. -1.
        -11    1    4    4    0    0 -0.27446419500E+01  0.12882979243E+02  0.97351917939E+00  0.13208026100E+02  0.51100000000E-03 0.  1.
        -12    1    4    4    0    0  0.56949682322E+01  0.15981384696E+02  0.24383580302E+02  0.29705156258E+02  0.00000000000E+00 0.  1.
</event>
<event>
 8    1  0.1238315E-006  0.9118800E+02  0.7816164E-02  0.1184000E+00
        -11   -1    0    0    0    0  0.00000000000E+00  0.00000000000E+00  0.45593999997E+02  0.45594000000E+02  0.51100000000E-03 0. -1.
         11   -1    0    0    0    0 -0.00000000000E+00 -0.00000000000E+00 -0.45593999997E+02  0.45594000000E+02  0.51100000000E-03 0.  1.
         23    2    1    2    0    0 -0.17763568394E-14  0.35527136788E-14 -0.35527136788E-14  0.91188000000E+02  0.91188000000E+02 0.  0.
    9900012    2    3    3    0    0  0.10715193251E+02 -0.29841144745E+02  0.18720845122E+02  0.54367091155E+02  0.40000015906E+02 0.  0.
        -12    1    3    3    0    0 -0.10715193251E+02  0.29841144745E+02 -0.18720845122E+02  0.36820908845E+02  0.00000000000E+00 0.  1.
         11    1    4    4    0    0  0.20216347559E+01 -0.22788665068E+02  0.16264921784E+02  0.28070588586E+02  0.51100000000E-03 0. -1.
        -11    1    4    4    0    0  0.15534725865E+02 -0.28579701093E+01  0.67706591650E+01  0.17185387008E+02  0.51100000000E-03 0.  1.
         12    1    4    4    0    0 -0.68411673695E+01 -0.41945095678E+01 -0.43147358277E+01  0.91111155604E+01  0.00000000000E+00 0. -1.
</event>
<event>
 8    1  0.1238315E-006  0.9118800E+02  0.7816164E-02  0.1184000E+00
        -11   -1    0    0    0    0  0.00000000000E+00  0.00000000000E+00  0.45593999997E+02  0.45594000000E+02  0.51100000000E-03 0.  1.
         11   -1    0    0    0    0 -0.00000000000E+00 -0.00000000000E+00 -0.45593999997E+02  0.45594000000E+02  0.51100000000E-03 0. -1.
         23    2    1    2    0    0  0.00000000000E+00  0.17763568394E-14  0.00000000000E+00  0.91188000000E+02  0.91188000000E+02 0.  0.
    9900012    2    3    3    0    0 -0.26986166600E+02 -0.50886267771E+01  0.24528210743E+02  0.54367076159E+02  0.39999981720E+02 0.  0.
         12    1    3    3    0    0  0.26986166600E+02  0.50886267771E+01 -0.24528210743E+02  0.36820923841E+02  0.00000000000E+00 0. -1.
         11    1    4    4    0    0 -0.21862640647E+02 -0.10544898007E+02  0.21002300734E+02  0.32097765754E+02  0.51100000000E-03 0.  1.
        -11    1    4    4    0    0 -0.12816890560E+02  0.58043291884E+01  0.77412345200E+00  0.14091209612E+02  0.51100000000E-03 0. -1.
         12    1    4    4    0    0  0.76933646072E+01 -0.34805795876E+00  0.27517865575E+01  0.81781007929E+01  0.00000000000E+00 0. -1.
</event>
<event>
 8    1  0.1238315E-006  0.9118800E+02  0.7816164E-02  0.1184000E+00
        -11   -1    0    0    0    0  0.00000000000E+00  0.00000000000E+00  0.45593999997E+02  0.45594000000E+02  0.51100000000E-03 0. -1.
         11   -1    0    0    0    0 -0.00000000000E+00 -0.00000000000E+00 -0.45593999997E+02  0.45594000000E+02  0.51100000000E-03 0.  1.
         23    2    1    2    0    0  0.00000000000E+00  0.00000000000E+00  0.71054273576E-14  0.91188000000E+02  0.91188000000E+02 0.  0.
    9900012    2    3    3    0    0  0.10297379445E+02 -0.11409428691E+02 -0.33459965251E+02  0.54367077129E+02  0.39999983931E+02 0.  0.
         12    1    3    3    0    0 -0.10297379445E+02  0.11409428691E+02  0.33459965251E+02  0.36820922871E+02  0.00000000000E+00 0. -1.
         11    1    4    4    0    0  0.36170791852E+01  0.12793834664E+02 -0.14033494018E+02  0.19331436104E+02  0.51100000000E-03 0. -1.
        -11    1    4    4    0    0 -0.45488240072E+01 -0.10422034301E+02 -0.79879854014E+01  0.13896708598E+02  0.51100000000E-03 0.  1.
         12    1    4    4    0    0  0.11229124267E+02 -0.13781229054E+02 -0.11438485832E+02  0.21138932427E+02  0.00000000000E+00 0. -1.
</event>
<event>
 8    1  0.1238315E-006  0.9118800E+02  0.7816164E-02  0.1184000E+00
        -11   -1    0    0    0    0  0.00000000000E+00  0.00000000000E+00  0.45593999997E+02  0.45594000000E+02  0.51100000000E-03 0. -1.
         11   -1    0    0    0    0 -0.00000000000E+00 -0.00000000000E+00 -0.45593999997E+02  0.45594000000E+02  0.51100000000E-03 0.  1.
         23    2    1    2    0    0  0.00000000000E+00 -0.88817841970E-15  0.00000000000E+00  0.91188000000E+02  0.91188000000E+02 0.  0.
    9900012    2    3    3    0    0  0.35410101699E+02 -0.30658252856E+01  0.96180322843E+01  0.54367066659E+02  0.39999960063E+02 0.  0.
        -12    1    3    3    0    0 -0.35410101699E+02  0.30658252856E+01 -0.96180322843E+01  0.36820933341E+02  0.00000000000E+00 0.  1.
         11    1    4    4    0    0  0.68328661882E+01  0.44187496891E+01 -0.50805104504E+01  0.95929659573E+01  0.51100000000E-03 0.  1.
        -11    1    4    4    0    0  0.25590256331E+02 -0.12900805981E+02 -0.18252411372E+00  0.28658774038E+02  0.51100000000E-03 0. -1.
         12    1    4    4    0    0  0.29869791800E+01  0.54162310064E+01  0.14881066848E+02  0.16115326664E+02  0.00000000000E+00 0. -1.
</event>
<event>
 8    1  0.1238315E-006  0.9118800E+02  0.7816164E-02  0.1184000E+00
        -11   -1    0    0    0    0  0.00000000000E+00  0.00000000000E+00  0.45593999997E+02  0.45594000000E+02  0.51100000000E-03 0.  1.
         11   -1    0    0    0    0 -0.00000000000E+00 -0.00000000000E+00 -0.45593999997E+02  0.45594000000E+02  0.51100000000E-03 0. -1.
         23    2    1    2    0    0  0.17763568394E-14  0.00000000000E+00  0.00000000000E+00  0.91188000000E+02  0.91188000000E+02 0.  0.
    9900012    2    3    3    0    0  0.57293363773E+01  0.45736897886E+01  0.36083734667E+02  0.54367084190E+02  0.40000000028E+02 0.  0.
         12    1    3    3    0    0 -0.57293363773E+01 -0.45736897886E+01 -0.36083734667E+02  0.36820915810E+02  0.00000000000E+00 0. -1.
         11    1    4    4    0    0 -0.35245241074E+01  0.16864180526E+02  0.78431415337E+01  0.18929810469E+02  0.51100000000E-03 0. -1.
        -11    1    4    4    0    0  0.39882990135E+01 -0.95592326692E+01  0.50940316248E+01  0.11542730037E+02  0.51100000000E-03 0.  1.
         12    1    4    4    0    0  0.52655614712E+01 -0.27312580683E+01  0.23146561508E+02  0.23894543684E+02  0.00000000000E+00 0. -1.
</event>
<event>
 8    1  0.1238315E-006  0.9118800E+02  0.7816164E-02  0.1184000E+00
        -11   -1    0    0    0    0  0.00000000000E+00  0.00000000000E+00  0.45593999997E+02  0.45594000000E+02  0.51100000000E-03 0.  1.
         11   -1    0    0    0    0 -0.00000000000E+00 -0.00000000000E+00 -0.45593999997E+02  0.45594000000E+02  0.51100000000E-03 0. -1.
         23    2    1    2    0    0  0.00000000000E+00  0.71054273576E-14  0.00000000000E+00  0.91188000000E+02  0.91188000000E+02 0.  0.
    9900012    2    3    3    0    0 -0.14385630133E+02 -0.33327811702E+02 -0.61716913565E+01  0.54367093420E+02  0.40000021068E+02 0.  0.
        -12    1    3    3    0    0  0.14385630133E+02  0.33327811702E+02  0.61716913565E+01  0.36820906580E+02  0.00000000000E+00 0.  1.
         11    1    4    4    0    0  0.88695734509E+01 -0.17329079982E+02 -0.87526218738E+01  0.21344196779E+02  0.51100000000E-03 0. -1.
        -11    1    4    4    0    0 -0.72649071309E+01 -0.15229621114E+02  0.21320946060E+01  0.17007823570E+02  0.51100000000E-03 0.  1.
        -12    1    4    4    0    0 -0.15990296453E+02 -0.76911060631E+00  0.44883591126E+00  0.16015073071E+02  0.00000000000E+00 0.  1.
</event>
<event>
 8    1  0.1238315E-006  0.9118800E+02  0.7816164E-02  0.1184000E+00
        -11   -1    0    0    0    0  0.00000000000E+00  0.00000000000E+00  0.45593999997E+02  0.45594000000E+02  0.51100000000E-03 0. -1.
         11   -1    0    0    0    0 -0.00000000000E+00 -0.00000000000E+00 -0.45593999997E+02  0.45594000000E+02  0.51100000000E-03 0.  1.
         23    2    1    2    0    0  0.00000000000E+00  0.00000000000E+00 -0.17763568394E-14  0.91188000000E+02  0.91188000000E+02 0.  0.
    9900012    2    3    3    0    0 -0.17459929490E+02  0.29636095521E+02  0.13138995418E+02  0.54367075295E+02  0.39999979750E+02 0.  0.
        -12    1    3    3    0    0  0.17459929490E+02 -0.29636095521E+02 -0.13138995418E+02  0.36820924705E+02  0.00000000000E+00 0.  1.
         11    1    4    4    0    0  0.41599091123E+01 -0.16473972306E+01  0.65338077194E+01  0.79189270127E+01  0.51100000000E-03 0. -1.
        -11    1    4    4    0    0 -0.97867757189E+01  0.15866872520E+02 -0.97586263561E+01  0.21042086663E+02  0.51100000000E-03 0.  1.
        -12    1    4    4    0    0 -0.11833062883E+02  0.15416620232E+02  0.16363814055E+02  0.25406061619E+02  0.00000000000E+00 0.  1.
</event>
<event>
 8    1  0.1238315E-006  0.9118800E+02  0.7816164E-02  0.1184000E+00
        -11   -1    0    0    0    0  0.00000000000E+00  0.00000000000E+00  0.45593999997E+02  0.45594000000E+02  0.51100000000E-03 0. -1.
         11   -1    0    0    0    0 -0.00000000000E+00 -0.00000000000E+00 -0.45593999997E+02  0.45594000000E+02  0.51100000000E-03 0.  1.
         23    2    1    2    0    0 -0.88817841970E-15  0.00000000000E+00  0.35527136788E-14  0.91188000000E+02  0.91188000000E+02 0.  0.
    9900012    2    3    3    0    0  0.76290857178E+01 -0.30252993169E+02  0.19553342222E+02  0.54367085609E+02  0.40000003262E+02 0.  0.
        -12    1    3    3    0    0 -0.76290857178E+01  0.30252993169E+02 -0.19553342222E+02  0.36820914391E+02  0.00000000000E+00 0.  1.
         11    1    4    4    0    0 -0.62741403397E+01 -0.13180704245E+02  0.81286205373E+01  0.16708389315E+02  0.51100000000E-03 0.  1.
        -11    1    4    4    0    0  0.11293903479E+02 -0.21375785956E+02  0.17444307406E+02  0.29812419260E+02  0.51100000000E-03 0. -1.
         12    1    4    4    0    0  0.26093225789E+01  0.43034970320E+01 -0.60195857215E+01  0.78462770333E+01  0.00000000000E+00 0. -1.
</event>
<event>
 8    1  0.1238315E-006  0.9118800E+02  0.7816164E-02  0.1184000E+00
        -11   -1    0    0    0    0  0.00000000000E+00  0.00000000000E+00  0.45593999997E+02  0.45594000000E+02  0.51100000000E-03 0.  1.
         11   -1    0    0    0    0 -0.00000000000E+00 -0.00000000000E+00 -0.45593999997E+02  0.45594000000E+02  0.51100000000E-03 0. -1.
         23    2    1    2    0    0  0.00000000000E+00  0.00000000000E+00 -0.22204460493E-15  0.91188000000E+02  0.91188000000E+02 0.  0.
    9900012    2    3    3    0    0 -0.32074294635E+02  0.17977121362E+02 -0.19602133599E+01  0.54367086035E+02  0.40000004234E+02 0.  0.
         12    1    3    3    0    0  0.32074294635E+02 -0.17977121362E+02  0.19602133599E+01  0.36820913965E+02  0.00000000000E+00 0. -1.
         11    1    4    4    0    0 -0.12689857058E+02  0.85536083517E+00  0.22527381266E+01  0.12916615023E+02  0.51100000000E-03 0. -1.
        -11    1    4    4    0    0 -0.44256419798E+01  0.59267447602E+01  0.13698378519E+02  0.15567857422E+02  0.51100000000E-03 0.  1.
         12    1    4    4    0    0 -0.14958795597E+02  0.11195015766E+02 -0.17911330006E+02  0.25882613591E+02  0.00000000000E+00 0. -1.
</event>
<event>
 8    1  0.1238315E-006  0.9118800E+02  0.7816164E-02  0.1184000E+00
        -11   -1    0    0    0    0  0.00000000000E+00  0.00000000000E+00  0.45593999997E+02  0.45594000000E+02  0.51100000000E-03 0.  1.
         11   -1    0    0    0    0 -0.00000000000E+00 -0.00000000000E+00 -0.45593999997E+02  0.45594000000E+02  0.51100000000E-03 0. -1.
         23    2    1    2    0    0  0.00000000000E+00  0.35527136788E-14  0.00000000000E+00  0.91188000000E+02  0.91188000000E+02 0.  0.
    9900012    2    3    3    0    0  0.22396245438E+02  0.28385703994E+02 -0.69599592394E+01  0.54367067997E+02  0.39999963112E+02 0.  0.
         12    1    3    3    0    0 -0.22396245438E+02 -0.28385703994E+02  0.69599592394E+01  0.36820932003E+02  0.00000000000E+00 0. -1.
         11    1    4    4    0    0  0.18005488053E+02  0.84211814558E+01 -0.40190175474E+01  0.20279704126E+02  0.51100000000E-03 0. -1.
        -11    1    4    4    0    0  0.83064069497E+01  0.24616854877E+02  0.22696544407E+01  0.26079441558E+02  0.51100000000E-03 0.  1.
         12    1    4    4    0    0 -0.39156495648E+01 -0.46523323383E+01 -0.52105961326E+01  0.80079223122E+01  0.00000000000E+00 0. -1.
</event>
<event>
 8    1  0.1238315E-006  0.9118800E+02  0.7816164E-02  0.1184000E+00
        -11   -1    0    0    0    0  0.00000000000E+00  0.00000000000E+00  0.45593999997E+02  0.45594000000E+02  0.51100000000E-03 0.  1.
         11   -1    0    0    0    0 -0.00000000000E+00 -0.00000000000E+00 -0.45593999997E+02  0.45594000000E+02  0.51100000000E-03 0. -1.
         23    2    1    2    0    0  0.00000000000E+00  0.71054273576E-14  0.00000000000E+00  0.91188000000E+02  0.91188000000E+02 0.  0.
    9900012    2    3    3    0    0  0.19136617263E+02  0.30131001673E+02  0.90384158146E+01  0.54367077381E+02  0.39999984505E+02 0.  0.
        -12    1    3    3    0    0 -0.19136617263E+02 -0.30131001673E+02 -0.90384158146E+01  0.36820922619E+02  0.00000000000E+00 0.  1.
         11    1    4    4    0    0  0.71891382932E+01  0.20957675473E+02  0.52774683949E+01  0.22776293455E+02  0.51100000000E-03 0. -1.
        -11    1    4    4    0    0  0.11394766713E+02 -0.74559476011E+01 -0.24403110539E+01  0.13834268371E+02  0.51100000000E-03 0.  1.
        -12    1    4    4    0    0  0.55271225715E+00  0.16629273801E+02  0.62012584735E+01  0.17756515555E+02  0.00000000000E+00 0.  1.
</event>
<event>
 8    1  0.1238315E-006  0.9118800E+02  0.7816164E-02  0.1184000E+00
        -11   -1    0    0    0    0  0.00000000000E+00  0.00000000000E+00  0.45593999997E+02  0.45594000000E+02  0.51100000000E-03 0. -1.
         11   -1    0    0    0    0 -0.00000000000E+00 -0.00000000000E+00 -0.45593999997E+02  0.45594000000E+02  0.51100000000E-03 0.  1.
         23    2    1    2    0    0 -0.88817841970E-15  0.00000000000E+00  0.00000000000E+00  0.91188000000E+02  0.91188000000E+02 0.  0.
    9900012    2    3    3    0    0 -0.59180140967E+01 -0.22178522466E+02 -0.28790095204E+02  0.54367091110E+02  0.40000015803E+02 0.  0.
         12    1    3    3    0    0  0.59180140967E+01  0.22178522466E+02  0.28790095204E+02  0.36820908890E+02  0.00000000000E+00 0. -1.
         11    1    4    4    0    0 -0.12115661314E+02 -0.58353810029E+01 -0.83400353188E+00  0.13473547516E+02  0.51100000000E-03 0.  1.
        -11    1    4    4    0    0 -0.27202928474E+00 -0.10336814825E+02  0.12190912422E+01  0.10412008662E+02  0.51100000000E-03 0. -1.
        -12    1    4    4    0    0  0.64696765015E+01 -0.60063266383E+01 -0.29175182914E+02  0.30481534932E+02  0.00000000000E+00 0.  1.
</event>
<event>
 8    1  0.1238315E-006  0.9118800E+02  0.7816164E-02  0.1184000E+00
        -11   -1    0    0    0    0  0.00000000000E+00  0.00000000000E+00  0.45593999997E+02  0.45594000000E+02  0.51100000000E-03 0.  1.
         11   -1    0    0    0    0 -0.00000000000E+00 -0.00000000000E+00 -0.45593999997E+02  0.45594000000E+02  0.51100000000E-03 0. -1.
         23    2    1    2    0    0  0.00000000000E+00  0.00000000000E+00  0.71054273576E-14  0.91188000000E+02  0.91188000000E+02 0.  0.
    9900012    2    3    3    0    0 -0.14483818731E+02 -0.37174298533E+01 -0.33647892618E+02  0.54367068896E+02  0.39999965163E+02 0.  0.
        -12    1    3    3    0    0  0.14483818731E+02  0.37174298533E+01  0.33647892618E+02  0.36820931104E+02  0.00000000000E+00 0.  1.
         11    1    4    4    0    0 -0.21481905648E+02  0.43242743628E+01 -0.25579802112E+02  0.33682308345E+02  0.51100000000E-03 0. -1.
        -11    1    4    4    0    0  0.86393874167E+01 -0.58702906492E+01 -0.11995895236E+02  0.15905999812E+02  0.51100000000E-03 0.  1.
        -12    1    4    4    0    0 -0.16413004994E+01 -0.21714135670E+01  0.39278047305E+01  0.47787607399E+01  0.00000000000E+00 0.  1.
</event>
<event>
 8    1  0.1238315E-006  0.9118800E+02  0.7816164E-02  0.1184000E+00
        -11   -1    0    0    0    0  0.00000000000E+00  0.00000000000E+00  0.45593999997E+02  0.45594000000E+02  0.51100000000E-03 0.  1.
         11   -1    0    0    0    0 -0.00000000000E+00 -0.00000000000E+00 -0.45593999997E+02  0.45594000000E+02  0.51100000000E-03 0. -1.
         23    2    1    2    0    0  0.00000000000E+00 -0.44408920985E-15  0.71054273576E-14  0.91188000000E+02  0.91188000000E+02 0.  0.
    9900012    2    3    3    0    0 -0.13857719974E+02  0.39779018275E+01  0.33880962536E+02  0.54367085723E+02  0.40000003523E+02 0.  0.
         12    1    3    3    0    0  0.13857719974E+02 -0.39779018275E+01 -0.33880962536E+02  0.36820914277E+02  0.00000000000E+00 0. -1.
         11    1    4    4    0    0 -0.16754187261E+01 -0.56476123936E+01  0.20883782222E+01  0.62501102003E+01  0.51100000000E-03 0. -1.
        -11    1    4    4    0    0 -0.18739358563E+01 -0.11578848234E+02  0.15587259876E+02  0.19507537844E+02  0.51100000000E-03 0.  1.
         12    1    4    4    0    0 -0.10308365392E+02  0.21204362455E+02  0.16205324437E+02  0.28609437679E+02  0.00000000000E+00 0. -1.
</event>
<event>
 8    1  0.1238315E-006  0.9118800E+02  0.7816164E-02  0.1184000E+00
        -11   -1    0    0    0    0  0.00000000000E+00  0.00000000000E+00  0.45593999997E+02  0.45594000000E+02  0.51100000000E-03 0.  1.
         11   -1    0    0    0    0 -0.00000000000E+00 -0.00000000000E+00 -0.45593999997E+02  0.45594000000E+02  0.51100000000E-03 0. -1.
         23    2    1    2    0    0 -0.44408920985E-15  0.00000000000E+00  0.00000000000E+00  0.91188000000E+02  0.91188000000E+02 0.  0.
    9900012    2    3    3    0    0  0.25081312914E+01  0.30984119257E+02 -0.19735102077E+02  0.54367073576E+02  0.39999975831E+02 0.  0.
         12    1    3    3    0    0 -0.25081312914E+01 -0.30984119257E+02  0.19735102077E+02  0.36820926424E+02  0.00000000000E+00 0. -1.
         11    1    4    4    0    0  0.74949179839E+01  0.63685275320E+01  0.78964959277E+00  0.98668883267E+01  0.51100000000E-03 0. -1.
        -11    1    4    4    0    0 -0.16129882709E+02  0.11602196636E+02 -0.31823526477E+01  0.20122411675E+02  0.51100000000E-03 0.  1.
         12    1    4    4    0    0  0.11143096017E+02  0.13013395089E+02 -0.17342399022E+02  0.24377773574E+02  0.00000000000E+00 0. -1.
</event>
<event>
 8    1  0.1238315E-006  0.9118800E+02  0.7816164E-02  0.1184000E+00
        -11   -1    0    0    0    0  0.00000000000E+00  0.00000000000E+00  0.45593999997E+02  0.45594000000E+02  0.51100000000E-03 0.  1.
         11   -1    0    0    0    0 -0.00000000000E+00 -0.00000000000E+00 -0.45593999997E+02  0.45594000000E+02  0.51100000000E-03 0. -1.
         23    2    1    2    0    0  0.00000000000E+00 -0.35527136788E-14  0.00000000000E+00  0.91188000000E+02  0.91188000000E+02 0.  0.
    9900012    2    3    3    0    0  0.11519277518E+02  0.31334951718E+02 -0.15530794944E+02  0.54367101786E+02  0.40000040141E+02 0.  0.
        -12    1    3    3    0    0 -0.11519277518E+02 -0.31334951718E+02  0.15530794944E+02  0.36820898214E+02  0.00000000000E+00 0.  1.
         11    1    4    4    0    0  0.17775292722E+02 -0.17690530308E+00 -0.99352162888E+01  0.20364205111E+02  0.51100000000E-03 0. -1.
        -11    1    4    4    0    0 -0.72363561811E+01  0.20899595985E+02 -0.71250280626E+01  0.23236264507E+02  0.51100000000E-03 0.  1.
         12    1    4    4    0    0  0.98034097797E+00  0.10612261037E+02  0.15294494077E+01  0.10766632168E+02  0.00000000000E+00 0. -1.
</event>
<event>
 8    1  0.1238315E-006  0.9118800E+02  0.7816164E-02  0.1184000E+00
        -11   -1    0    0    0    0  0.00000000000E+00  0.00000000000E+00  0.45593999997E+02  0.45594000000E+02  0.51100000000E-03 0. -1.
         11   -1    0    0    0    0 -0.00000000000E+00 -0.00000000000E+00 -0.45593999997E+02  0.45594000000E+02  0.51100000000E-03 0.  1.
         23    2    1    2    0    0  0.00000000000E+00  0.00000000000E+00  0.00000000000E+00  0.91188000000E+02  0.91188000000E+02 0.  0.
    9900012    2    3    3    0    0  0.20724068622E+02  0.21241812512E+02 -0.21796234454E+02  0.54367116585E+02  0.40000073879E+02 0.  0.
         12    1    3    3    0    0 -0.20724068622E+02 -0.21241812512E+02  0.21796234454E+02  0.36820883415E+02  0.00000000000E+00 0. -1.
         11    1    4    4    0    0 -0.11468994959E+02  0.94260629680E+01 -0.88721215304E+01  0.17294595952E+02  0.51100000000E-03 0. -1.
        -11    1    4    4    0    0  0.21236075762E+02  0.52295406349E+01 -0.94496295981E+01  0.23824661778E+02  0.51100000000E-03 0.  1.
         12    1    4    4    0    0  0.10956987819E+02  0.65862089095E+01 -0.34744833258E+01  0.13247858855E+02  0.00000000000E+00 0. -1.
</event>
<event>
 8    1  0.1238315E-006  0.9118800E+02  0.7816164E-02  0.1184000E+00
        -11   -1    0    0    0    0  0.00000000000E+00  0.00000000000E+00  0.45593999997E+02  0.45594000000E+02  0.51100000000E-03 0. -1.
         11   -1    0    0    0    0 -0.00000000000E+00 -0.00000000000E+00 -0.45593999997E+02  0.45594000000E+02  0.51100000000E-03 0.  1.
         23    2    1    2    0    0 -0.35527136788E-14 -0.17763568394E-14  0.00000000000E+00  0.91188000000E+02  0.91188000000E+02 0.  0.
    9900012    2    3    3    0    0 -0.20124902673E+02  0.13188804014E+02  0.27871556867E+02  0.54367082831E+02  0.39999996931E+02 0.  0.
        -12    1    3    3    0    0  0.20124902673E+02 -0.13188804014E+02 -0.27871556867E+02  0.36820917169E+02  0.00000000000E+00 0.  1.
         11    1    4    4    0    0 -0.20028460831E+02  0.33678168359E+01 -0.17546918470E+01  0.20385298066E+02  0.51100000000E-03 0. -1.
        -11    1    4    4    0    0  0.37892400016E+01  0.11572310597E+02  0.19427148989E+02  0.22927948675E+02  0.51100000000E-03 0.  1.
        -12    1    4    4    0    0 -0.38856818435E+01 -0.17513234189E+01  0.10199099725E+02  0.11053836090E+02  0.00000000000E+00 0.  1.
</event>
<event>
 8    1  0.1238315E-006  0.9118800E+02  0.7816164E-02  0.1184000E+00
        -11   -1    0    0    0    0  0.00000000000E+00  0.00000000000E+00  0.45593999997E+02  0.45594000000E+02  0.51100000000E-03 0. -1.
         11   -1    0    0    0    0 -0.00000000000E+00 -0.00000000000E+00 -0.45593999997E+02  0.45594000000E+02  0.51100000000E-03 0.  1.
         23    2    1    2    0    0 -0.88817841970E-15  0.22204460493E-15  0.71054273576E-14  0.91188000000E+02  0.91188000000E+02 0.  0.
    9900012    2    3    3    0    0 -0.43424430354E+01  0.11593977182E+01 -0.36545571518E+02  0.54367084583E+02  0.40000000923E+02 0.  0.
         12    1    3    3    0    0  0.43424430354E+01 -0.11593977182E+01  0.36545571518E+02  0.36820915417E+02  0.00000000000E+00 0. -1.
         11    1    4    4    0    0  0.52933843514E+01  0.59251747040E+00 -0.69759633361E+01  0.87769618645E+01  0.51100000000E-03 0. -1.
        -11    1    4    4    0    0  0.83764283564E+01  0.93000898803E+01 -0.19528341826E+02  0.23195093415E+02  0.51100000000E-03 0.  1.
        -12    1    4    4    0    0 -0.18012255743E+02 -0.87332096326E+01 -0.10041266356E+02  0.22395029303E+02  0.00000000000E+00 0.  1.
</event>
<event>
 8    1  0.1238315E-006  0.9118800E+02  0.7816164E-02  0.1184000E+00
        -11   -1    0    0    0    0  0.00000000000E+00  0.00000000000E+00  0.45593999997E+02  0.45594000000E+02  0.51100000000E-03 0.  1.
         11   -1    0    0    0    0 -0.00000000000E+00 -0.00000000000E+00 -0.45593999997E+02  0.45594000000E+02  0.51100000000E-03 0. -1.
         23    2    1    2    0    0  0.71054273576E-14  0.00000000000E+00 -0.17763568394E-14  0.91188000000E+02  0.91188000000E+02 0.  0.
    9900012    2    3    3    0    0 -0.30276647157E+02 -0.17598956300E+02 -0.11374495850E+02  0.54367112154E+02  0.40000063778E+02 0.  0.
         12    1    3    3    0    0  0.30276647157E+02  0.17598956300E+02  0.11374495850E+02  0.36820887846E+02  0.00000000000E+00 0. -1.
         11    1    4    4    0    0 -0.90788217645E+01 -0.84942888748E+01  0.10167542442E+02  0.16061035698E+02  0.51100000000E-03 0. -1.
        -11    1    4    4    0    0 -0.31828673847E+01 -0.76838506130E+01  0.20717227260E+01  0.85711283007E+01  0.51100000000E-03 0.  1.
         12    1    4    4    0    0 -0.18014958008E+02 -0.14208168123E+01 -0.23613761018E+02  0.29734948156E+02  0.00000000000E+00 0. -1.
</event>
<event>
 8    1  0.1238315E-006  0.9118800E+02  0.7816164E-02  0.1184000E+00
        -11   -1    0    0    0    0  0.00000000000E+00  0.00000000000E+00  0.45593999997E+02  0.45594000000E+02  0.51100000000E-03 0.  1.
         11   -1    0    0    0    0 -0.00000000000E+00 -0.00000000000E+00 -0.45593999997E+02  0.45594000000E+02  0.51100000000E-03 0. -1.
         23    2    1    2    0    0 -0.35527136788E-14  0.00000000000E+00  0.17763568394E-14  0.91188000000E+02  0.91188000000E+02 0.  0.
    9900012    2    3    3    0    0  0.24220836313E+02 -0.25495364577E+02 -0.10914048903E+02  0.54367095747E+02  0.40000026373E+02 0.  0.
        -12    1    3    3    0    0 -0.24220836313E+02  0.25495364577E+02  0.10914048903E+02  0.36820904253E+02  0.00000000000E+00 0.  1.
         11    1    4    4    0    0  0.16177696416E+02 -0.36310764809E+01 -0.78333830984E+01  0.18337515338E+02  0.51100000000E-03 0. -1.
        -11    1    4    4    0    0 -0.14674363939E+01 -0.17487018469E+02  0.92635392987E+01  0.19843445898E+02  0.51100000000E-03 0.  1.
        -12    1    4    4    0    0  0.95105762903E+01 -0.43772696266E+01 -0.12344205103E+02  0.16186134510E+02  0.00000000000E+00 0.  1.
</event>
<event>
 8    1  0.1238315E-006  0.9118800E+02  0.7816164E-02  0.1184000E+00
        -11   -1    0    0    0    0  0.00000000000E+00  0.00000000000E+00  0.45593999997E+02  0.45594000000E+02  0.51100000000E-03 0. -1.
         11   -1    0    0    0    0 -0.00000000000E+00 -0.00000000000E+00 -0.45593999997E+02  0.45594000000E+02  0.51100000000E-03 0.  1.
         23    2    1    2    0    0  0.88817841970E-15  0.00000000000E+00  0.00000000000E+00  0.91188000000E+02  0.91188000000E+02 0.  0.
    9900012    2    3    3    0    0 -0.72222955942E+01 -0.35308607190E+02 -0.75445432677E+01  0.54367089793E+02  0.40000012801E+02 0.  0.
        -12    1    3    3    0    0  0.72222955942E+01  0.35308607190E+02  0.75445432677E+01  0.36820910207E+02  0.00000000000E+00 0.  1.
         11    1    4    4    0    0  0.27567323866E+01 -0.27926883374E+02 -0.23847293547E+01  0.28163759031E+02  0.51100000000E-03 0. -1.
        -11    1    4    4    0    0  0.32836075948E+01 -0.73617938696E+01 -0.93021300401E+01  0.12308846874E+02  0.51100000000E-03 0.  1.
        -12    1    4    4    0    0 -0.13262635576E+02 -0.19929947062E-01  0.41423161272E+01  0.13894483888E+02  0.00000000000E+00 0.  1.
</event>
<event>
 8    1  0.1238315E-006  0.9118800E+02  0.7816164E-02  0.1184000E+00
        -11   -1    0    0    0    0  0.00000000000E+00  0.00000000000E+00  0.45593999997E+02  0.45594000000E+02  0.51100000000E-03 0. -1.
         11   -1    0    0    0    0 -0.00000000000E+00 -0.00000000000E+00 -0.45593999997E+02  0.45594000000E+02  0.51100000000E-03 0.  1.
         23    2    1    2    0    0 -0.11102230246E-14 -0.88817841970E-15  0.00000000000E+00  0.91188000000E+02  0.91188000000E+02 0.  0.
    9900012    2    3    3    0    0  0.14096275257E+01 -0.35285180856E+01 -0.36624241795E+02  0.54367182835E+02  0.40000224909E+02 0.  0.
         12    1    3    3    0    0 -0.14096275257E+01  0.35285180856E+01  0.36624241795E+02  0.36820817165E+02  0.00000000000E+00 0. -1.
         11    1    4    4    0    0 -0.81946478530E+00  0.32825270814E+01 -0.10966957423E+01  0.35565781851E+01  0.51100000000E-03 0. -1.
        -11    1    4    4    0    0  0.89333594687E+01 -0.19768979783E+02 -0.20039052098E+02  0.29532712071E+02  0.51100000000E-03 0.  1.
        -12    1    4    4    0    0 -0.67042671577E+01  0.12957934616E+02 -0.15488493954E+02  0.21277892579E+02  0.00000000000E+00 0.  1.
</event>
<event>
 8    1  0.1238315E-006  0.9118800E+02  0.7816164E-02  0.1184000E+00
        -11   -1    0    0    0    0  0.00000000000E+00  0.00000000000E+00  0.45593999997E+02  0.45594000000E+02  0.51100000000E-03 0. -1.
         11   -1    0    0    0    0 -0.00000000000E+00 -0.00000000000E+00 -0.45593999997E+02  0.45594000000E+02  0.51100000000E-03 0.  1.
         23    2    1    2    0    0  0.71054273576E-14  0.17763568394E-14  0.35527136788E-14  0.91188000000E+02  0.91188000000E+02 0.  0.
    9900012    2    3    3    0    0  0.25873982557E+02  0.10120396480E+02  0.24163936417E+02  0.54367065446E+02  0.39999957297E+02 0.  0.
        -12    1    3    3    0    0 -0.25873982557E+02 -0.10120396480E+02 -0.24163936417E+02  0.36820934554E+02  0.00000000000E+00 0.  1.
         11    1    4    4    0    0  0.25259339363E+02  0.10597196161E+02  0.19480349865E+02  0.33612777670E+02  0.51100000000E-03 0. -1.
        -11    1    4    4    0    0  0.79711059751E+01  0.60410683920E+01  0.33647454897E+00  0.10007309986E+02  0.51100000000E-03 0.  1.
        -12    1    4    4    0    0 -0.73564627811E+01 -0.65178680723E+01  0.43471120021E+01  0.10746977790E+02  0.00000000000E+00 0.  1.
</event>
<event>
 8    1  0.1238315E-006  0.9118800E+02  0.7816164E-02  0.1184000E+00
        -11   -1    0    0    0    0  0.00000000000E+00  0.00000000000E+00  0.45593999997E+02  0.45594000000E+02  0.51100000000E-03 0.  1.
         11   -1    0    0    0    0 -0.00000000000E+00 -0.00000000000E+00 -0.45593999997E+02  0.45594000000E+02  0.51100000000E-03 0. -1.
         23    2    1    2    0    0 -0.71054273576E-14  0.00000000000E+00  0.00000000000E+00  0.91188000000E+02  0.91188000000E+02 0.  0.
    9900012    2    3    3    0    0  0.23141412014E+02 -0.27640933931E+02  0.74989217264E+01  0.54367081955E+02  0.39999994934E+02 0.  0.
        -12    1    3    3    0    0 -0.23141412014E+02  0.27640933931E+02 -0.74989217264E+01  0.36820918045E+02  0.00000000000E+00 0.  1.
         11    1    4    4    0    0 -0.33907480459E+00 -0.11437315695E+02  0.46135939709E+01  0.12337439427E+02  0.51100000000E-03 0. -1.
        -11    1    4    4    0    0  0.16105739293E+02 -0.53080324189E+01  0.16099170472E+02  0.23382757247E+02  0.51100000000E-03 0.  1.
         12    1    4    4    0    0  0.73747475252E+01 -0.10895585817E+02 -0.13213842716E+02  0.18646885281E+02  0.00000000000E+00 0. -1.
</event>
<event>
 8    1  0.1238315E-006  0.9118800E+02  0.7816164E-02  0.1184000E+00
        -11   -1    0    0    0    0  0.00000000000E+00  0.00000000000E+00  0.45593999997E+02  0.45594000000E+02  0.51100000000E-03 0.  1.
         11   -1    0    0    0    0 -0.00000000000E+00 -0.00000000000E+00 -0.45593999997E+02  0.45594000000E+02  0.51100000000E-03 0. -1.
         23    2    1    2    0    0  0.00000000000E+00 -0.35527136788E-14 -0.88817841970E-15  0.91188000000E+02  0.91188000000E+02 0.  0.
    9900012    2    3    3    0    0  0.21255159755E+02  0.29290347737E+02 -0.67877350373E+01  0.54367087006E+02  0.40000006447E+02 0.  0.
         12    1    3    3    0    0 -0.21255159755E+02 -0.29290347737E+02  0.67877350373E+01  0.36820912994E+02  0.00000000000E+00 0. -1.
         11    1    4    4    0    0  0.68229891867E+01  0.10892779087E+00  0.13104406747E+02  0.14774658141E+02  0.51100000000E-03 0. -1.
        -11    1    4    4    0    0  0.62044197946E+01  0.10515149410E+02 -0.13529775744E+02  0.18224105576E+02  0.51100000000E-03 0.  1.
         12    1    4    4    0    0  0.82277507739E+01  0.18666270537E+02 -0.63623660403E+01  0.21368323289E+02  0.00000000000E+00 0. -1.
</event>
<event>
 8    1  0.1238315E-006  0.9118800E+02  0.7816164E-02  0.1184000E+00
        -11   -1    0    0    0    0  0.00000000000E+00  0.00000000000E+00  0.45593999997E+02  0.45594000000E+02  0.51100000000E-03 0. -1.
         11   -1    0    0    0    0 -0.00000000000E+00 -0.00000000000E+00 -0.45593999997E+02  0.45594000000E+02  0.51100000000E-03 0.  1.
         23    2    1    2    0    0  0.88817841970E-15  0.35527136788E-14 -0.71054273576E-14  0.91188000000E+02  0.91188000000E+02 0.  0.
    9900012    2    3    3    0    0  0.43191536922E+01  0.28425753137E+01 -0.36456061175E+02  0.54367085842E+02  0.40000003793E+02 0.  0.
         12    1    3    3    0    0 -0.43191536922E+01 -0.28425753137E+01  0.36456061175E+02  0.36820914158E+02  0.00000000000E+00 0. -1.
         11    1    4    4    0    0  0.10567022835E+02 -0.10056387258E+02 -0.18420754717E+02  0.23497172189E+02  0.51100000000E-03 0.  1.
        -11    1    4    4    0    0 -0.25191044345E+01 -0.51444820290E+01 -0.10762608077E+01  0.58283719928E+01  0.51100000000E-03 0. -1.
        -12    1    4    4    0    0 -0.37287647082E+01  0.18043444601E+02 -0.16959045650E+02  0.25041541660E+02  0.00000000000E+00 0.  1.
</event>
<event>
 8    1  0.1238315E-006  0.9118800E+02  0.7816164E-02  0.1184000E+00
        -11   -1    0    0    0    0  0.00000000000E+00  0.00000000000E+00  0.45593999997E+02  0.45594000000E+02  0.51100000000E-03 0.  1.
         11   -1    0    0    0    0 -0.00000000000E+00 -0.00000000000E+00 -0.45593999997E+02  0.45594000000E+02  0.51100000000E-03 0. -1.
         23    2    1    2    0    0  0.00000000000E+00  0.00000000000E+00  0.35527136788E-14  0.91188000000E+02  0.91188000000E+02 0.  0.
    9900012    2    3    3    0    0  0.23808139904E+02 -0.19757092982E+02 -0.19965245684E+02  0.54367064596E+02  0.39999955360E+02 0.  0.
        -12    1    3    3    0    0 -0.23808139904E+02  0.19757092982E+02  0.19965245684E+02  0.36820935404E+02  0.00000000000E+00 0.  1.
         11    1    4    4    0    0 -0.19798939039E+01  0.92723855714E+00 -0.18912016689E+02  0.19037965404E+02  0.51100000000E-03 0. -1.
        -11    1    4    4    0    0  0.36056089730E+01  0.84494873747E+00  0.20985328043E+01  0.42565472659E+01  0.51100000000E-03 0.  1.
        -12    1    4    4    0    0  0.22182424835E+02 -0.21529280277E+02 -0.31517617994E+01  0.31072551926E+02  0.00000000000E+00 0.  1.
</event>
<event>
 8    1  0.1238315E-006  0.9118800E+02  0.7816164E-02  0.1184000E+00
        -11   -1    0    0    0    0  0.00000000000E+00  0.00000000000E+00  0.45593999997E+02  0.45594000000E+02  0.51100000000E-03 0.  1.
         11   -1    0    0    0    0 -0.00000000000E+00 -0.00000000000E+00 -0.45593999997E+02  0.45594000000E+02  0.51100000000E-03 0. -1.
         23    2    1    2    0    0 -0.35527136788E-14  0.17763568394E-14  0.00000000000E+00  0.91188000000E+02  0.91188000000E+02 0.  0.
    9900012    2    3    3    0    0 -0.18252778525E+02  0.88051612569E+01  0.30742208003E+02  0.54367107269E+02  0.40000052640E+02 0.  0.
        -12    1    3    3    0    0  0.18252778525E+02 -0.88051612569E+01 -0.30742208003E+02  0.36820892731E+02  0.00000000000E+00 0.  1.
         11    1    4    4    0    0 -0.17643137219E+02  0.17407348026E+02  0.16790295081E+02  0.29936767784E+02  0.51100000000E-03 0. -1.
        -11    1    4    4    0    0 -0.51447463124E+01  0.37178392794E+01  0.74273882827E+01  0.97702016606E+01  0.51100000000E-03 0.  1.
         12    1    4    4    0    0  0.45351050059E+01 -0.12320026048E+02  0.65245246395E+01  0.14660137824E+02  0.00000000000E+00 0. -1.
</event>
<event>
 8    1  0.1238315E-006  0.9118800E+02  0.7816164E-02  0.1184000E+00
        -11   -1    0    0    0    0  0.00000000000E+00  0.00000000000E+00  0.45593999997E+02  0.45594000000E+02  0.51100000000E-03 0. -1.
         11   -1    0    0    0    0 -0.00000000000E+00 -0.00000000000E+00 -0.45593999997E+02  0.45594000000E+02  0.51100000000E-03 0.  1.
         23    2    1    2    0    0  0.00000000000E+00  0.00000000000E+00  0.88817841970E-15  0.91188000000E+02  0.91188000000E+02 0.  0.
    9900012    2    3    3    0    0  0.33154958569E+02  0.13965147857E+02 -0.78426043703E+01  0.54367040266E+02  0.39999899895E+02 0.  0.
         12    1    3    3    0    0 -0.33154958569E+02 -0.13965147857E+02  0.78426043703E+01  0.36820959734E+02  0.00000000000E+00 0. -1.
         11    1    4    4    0    0  0.16362459251E+02 -0.38362211132E+01 -0.45989647602E+01  0.17424039207E+02  0.51100000000E-03 0. -1.
        -11    1    4    4    0    0  0.76118993571E+01  0.20687560324E+02 -0.10950680491E+02  0.24613686588E+02  0.51100000000E-03 0.  1.
         12    1    4    4    0    0  0.91805999618E+01 -0.28861913542E+01  0.77070408809E+01  0.12329314471E+02  0.00000000000E+00 0. -1.
</event>
<event>
 8    1  0.1238315E-006  0.9118800E+02  0.7816164E-02  0.1184000E+00
        -11   -1    0    0    0    0  0.00000000000E+00  0.00000000000E+00  0.45593999997E+02  0.45594000000E+02  0.51100000000E-03 0. -1.
         11   -1    0    0    0    0 -0.00000000000E+00 -0.00000000000E+00 -0.45593999997E+02  0.45594000000E+02  0.51100000000E-03 0.  1.
         23    2    1    2    0    0 -0.88817841970E-15 -0.71054273576E-14  0.00000000000E+00  0.91188000000E+02  0.91188000000E+02 0.  0.
    9900012    2    3    3    0    0  0.57220176369E+01  0.30668629716E+02  0.19556943577E+02  0.54367076919E+02  0.39999983452E+02 0.  0.
        -12    1    3    3    0    0 -0.57220176369E+01 -0.30668629716E+02 -0.19556943577E+02  0.36820923081E+02  0.00000000000E+00 0.  1.
         11    1    4    4    0    0 -0.95073187334E+01  0.17135119695E+02  0.12348296794E+02  0.23162078284E+02  0.51100000000E-03 0. -1.
        -11    1    4    4    0    0  0.55562324175E+01  0.66898831555E+01  0.14776257169E+02  0.17145379305E+02  0.51100000000E-03 0.  1.
        -12    1    4    4    0    0  0.96731039527E+01  0.68436268648E+01 -0.75676103861E+01  0.14059619330E+02  0.00000000000E+00 0.  1.
</event>
<event>
 8    1  0.1238315E-006  0.9118800E+02  0.7816164E-02  0.1184000E+00
        -11   -1    0    0    0    0  0.00000000000E+00  0.00000000000E+00  0.45593999997E+02  0.45594000000E+02  0.51100000000E-03 0.  1.
         11   -1    0    0    0    0 -0.00000000000E+00 -0.00000000000E+00 -0.45593999997E+02  0.45594000000E+02  0.51100000000E-03 0. -1.
         23    2    1    2    0    0  0.53290705182E-14  0.00000000000E+00 -0.71054273576E-14  0.91188000000E+02  0.91188000000E+02 0.  0.
    9900012    2    3    3    0    0 -0.13733000113E+02 -0.11190399448E+02  0.32279383974E+02  0.54367096132E+02  0.40000027252E+02 0.  0.
         12    1    3    3    0    0  0.13733000113E+02  0.11190399448E+02 -0.32279383974E+02  0.36820903868E+02  0.00000000000E+00 0. -1.
         11    1    4    4    0    0  0.44872970835E+01 -0.97418547664E+01  0.99739820975E+01  0.14646497484E+02  0.51100000000E-03 0. -1.
        -11    1    4    4    0    0  0.20029283548E+01  0.96035351871E+01  0.71097001756E+01  0.12115586941E+02  0.51100000000E-03 0.  1.
         12    1    4    4    0    0 -0.20223225552E+02 -0.11052079869E+02  0.15195701701E+02  0.27605011707E+02  0.00000000000E+00 0. -1.
</event>
<event>
 8    1  0.1238315E-006  0.9118800E+02  0.7816164E-02  0.1184000E+00
        -11   -1    0    0    0    0  0.00000000000E+00  0.00000000000E+00  0.45593999997E+02  0.45594000000E+02  0.51100000000E-03 0.  1.
         11   -1    0    0    0    0 -0.00000000000E+00 -0.00000000000E+00 -0.45593999997E+02  0.45594000000E+02  0.51100000000E-03 0. -1.
         23    2    1    2    0    0  0.00000000000E+00  0.00000000000E+00  0.00000000000E+00  0.91188000000E+02  0.91188000000E+02 0.  0.
    9900012    2    3    3    0    0 -0.42734932226E+01  0.45525296433E+01  0.36287625080E+02  0.54367081972E+02  0.39999994972E+02 0.  0.
         12    1    3    3    0    0  0.42734932226E+01 -0.45525296433E+01 -0.36287625080E+02  0.36820918028E+02  0.00000000000E+00 0. -1.
         11    1    4    4    0    0  0.78393647352E+01  0.15410851311E+01  0.24284345286E+02  0.25564819754E+02  0.51100000000E-03 0. -1.
        -11    1    4    4    0    0 -0.47227940392E-02 -0.66419422512E+01  0.11534150907E+02  0.13309848105E+02  0.51100000000E-03 0.  1.
         12    1    4    4    0    0 -0.12108135164E+02  0.96533867634E+01  0.46912888695E+00  0.15492414113E+02  0.00000000000E+00 0. -1.
</event>
<event>
 8    1  0.1238315E-006  0.9118800E+02  0.7816164E-02  0.1184000E+00
        -11   -1    0    0    0    0  0.00000000000E+00  0.00000000000E+00  0.45593999997E+02  0.45594000000E+02  0.51100000000E-03 0.  1.
         11   -1    0    0    0    0 -0.00000000000E+00 -0.00000000000E+00 -0.45593999997E+02  0.45594000000E+02  0.51100000000E-03 0. -1.
         23    2    1    2    0    0  0.00000000000E+00  0.00000000000E+00  0.22204460493E-14  0.91188000000E+02  0.91188000000E+02 0.  0.
    9900012    2    3    3    0    0 -0.30378859521E+02 -0.20585332567E+02 -0.30247257540E+01  0.54367082187E+02  0.39999995462E+02 0.  0.
         12    1    3    3    0    0  0.30378859521E+02  0.20585332567E+02  0.30247257540E+01  0.36820917813E+02  0.00000000000E+00 0. -1.
         11    1    4    4    0    0 -0.23906434268E-01 -0.14343186784E+02 -0.48082111546E+01  0.15127672438E+02  0.51100000000E-03 0. -1.
        -11    1    4    4    0    0 -0.92264477813E+01 -0.12586357779E+02  0.61088641883E+01  0.16758936802E+02  0.51100000000E-03 0.  1.
        -12    1    4    4    0    0 -0.21128505305E+02  0.63442119952E+01 -0.43253787878E+01  0.22480472947E+02  0.00000000000E+00 0.  1.
</event>
<event>
 8    1  0.1238315E-006  0.9118800E+02  0.7816164E-02  0.1184000E+00
        -11   -1    0    0    0    0  0.00000000000E+00  0.00000000000E+00  0.45593999997E+02  0.45594000000E+02  0.51100000000E-03 0.  1.
         11   -1    0    0    0    0 -0.00000000000E+00 -0.00000000000E+00 -0.45593999997E+02  0.45594000000E+02  0.51100000000E-03 0. -1.
         23    2    1    2    0    0  0.88817841970E-15  0.00000000000E+00  0.00000000000E+00  0.91188000000E+02  0.91188000000E+02 0.  0.
    9900012    2    3    3    0    0  0.64662859332E+01 -0.30079050114E+02 -0.20229126291E+02  0.54367086649E+02  0.40000005633E+02 0.  0.
        -12    1    3    3    0    0 -0.64662859332E+01  0.30079050114E+02  0.20229126291E+02  0.36820913351E+02  0.00000000000E+00 0.  1.
         11    1    4    4    0    0 -0.57748530868E+01 -0.11015344945E+02  0.21816423012E+00  0.12439226195E+02  0.51100000000E-03 0. -1.
        -11    1    4    4    0    0  0.15003995746E+01 -0.22389418342E+02 -0.52887481925E+01  0.23054459662E+02  0.51100000000E-03 0.  1.
         12    1    4    4    0    0  0.10740739445E+02  0.33257131733E+01 -0.15158542328E+02  0.18873400792E+02  0.00000000000E+00 0. -1.
</event>
<event>
 8    1  0.1238315E-006  0.9118800E+02  0.7816164E-02  0.1184000E+00
        -11   -1    0    0    0    0  0.00000000000E+00  0.00000000000E+00  0.45593999997E+02  0.45594000000E+02  0.51100000000E-03 0.  1.
         11   -1    0    0    0    0 -0.00000000000E+00 -0.00000000000E+00 -0.45593999997E+02  0.45594000000E+02  0.51100000000E-03 0. -1.
         23    2    1    2    0    0  0.35527136788E-14  0.00000000000E+00  0.00000000000E+00  0.91188000000E+02  0.91188000000E+02 0.  0.
    9900012    2    3    3    0    0  0.25145533519E+02  0.24617715547E+02  0.10837440316E+02  0.54367083563E+02  0.39999998598E+02 0.  0.
         12    1    3    3    0    0 -0.25145533519E+02 -0.24617715547E+02 -0.10837440316E+02  0.36820916437E+02  0.00000000000E+00 0. -1.
         11    1    4    4    0    0  0.61405987720E+01  0.51392874847E+01 -0.10195144885E+02  0.12963803786E+02  0.51100000000E-03 0. -1.
        -11    1    4    4    0    0  0.44491233054E+01 -0.94784283788E+00  0.14904959814E+02  0.15583675162E+02  0.51100000000E-03 0.  1.
         12    1    4    4    0    0  0.14555811441E+02  0.20426270900E+02  0.61276253862E+01  0.25819604615E+02  0.00000000000E+00 0. -1.
</event>
<event>
 8    1  0.1238315E-006  0.9118800E+02  0.7816164E-02  0.1184000E+00
        -11   -1    0    0    0    0  0.00000000000E+00  0.00000000000E+00  0.45593999997E+02  0.45594000000E+02  0.51100000000E-03 0. -1.
         11   -1    0    0    0    0 -0.00000000000E+00 -0.00000000000E+00 -0.45593999997E+02  0.45594000000E+02  0.51100000000E-03 0.  1.
         23    2    1    2    0    0  0.00000000000E+00  0.00000000000E+00  0.35527136788E-14  0.91188000000E+02  0.91188000000E+02 0.  0.
    9900012    2    3    3    0    0 -0.12991719885E+02  0.22166057958E+02  0.26375415417E+02  0.54367062350E+02  0.39999950240E+02 0.  0.
        -12    1    3    3    0    0  0.12991719885E+02 -0.22166057958E+02 -0.26375415417E+02  0.36820937650E+02  0.00000000000E+00 0.  1.
         11    1    4    4    0    0  0.16144588375E+01 -0.66495696927E+01  0.36459065903E+01  0.77534437228E+01  0.51100000000E-03 0. -1.
        -11    1    4    4    0    0 -0.21577185576E+02  0.23684348805E+02  0.17754306690E+02  0.36629751869E+02  0.51100000000E-03 0.  1.
         12    1    4    4    0    0  0.69710068533E+01  0.51312788462E+01  0.49752021367E+01  0.99838667582E+01  0.00000000000E+00 0. -1.
</event>
<event>
 8    1  0.1238315E-006  0.9118800E+02  0.7816164E-02  0.1184000E+00
        -11   -1    0    0    0    0  0.00000000000E+00  0.00000000000E+00  0.45593999997E+02  0.45594000000E+02  0.51100000000E-03 0.  1.
         11   -1    0    0    0    0 -0.00000000000E+00 -0.00000000000E+00 -0.45593999997E+02  0.45594000000E+02  0.51100000000E-03 0. -1.
         23    2    1    2    0    0 -0.13322676296E-14  0.00000000000E+00  0.00000000000E+00  0.91188000000E+02  0.91188000000E+02 0.  0.
    9900012    2    3    3    0    0 -0.29272772155E+01  0.15792793663E+02 -0.33133058519E+02  0.54367070484E+02  0.39999968783E+02 0.  0.
        -12    1    3    3    0    0  0.29272772155E+01 -0.15792793663E+02  0.33133058519E+02  0.36820929516E+02  0.00000000000E+00 0.  1.
         11    1    4    4    0    0 -0.46998940402E+01  0.98942893536E+01 -0.35512122527E+02  0.37163110909E+02  0.51100000000E-03 0.  1.
        -11    1    4    4    0    0  0.46790508373E+01  0.15605479371E+01 -0.57291388414E+01  0.75598848356E+01  0.51100000000E-03 0. -1.
        -12    1    4    4    0    0 -0.29064340126E+01  0.43379563721E+01  0.81082028486E+01  0.96440747400E+01  0.00000000000E+00 0.  1.
</event>
<event>
 8    1  0.1238315E-006  0.9118800E+02  0.7816164E-02  0.1184000E+00
        -11   -1    0    0    0    0  0.00000000000E+00  0.00000000000E+00  0.45593999997E+02  0.45594000000E+02  0.51100000000E-03 0.  1.
         11   -1    0    0    0    0 -0.00000000000E+00 -0.00000000000E+00 -0.45593999997E+02  0.45594000000E+02  0.51100000000E-03 0. -1.
         23    2    1    2    0    0  0.00000000000E+00  0.35527136788E-14  0.00000000000E+00  0.91188000000E+02  0.91188000000E+02 0.  0.
    9900012    2    3    3    0    0  0.20237632026E+02 -0.19647606005E+02  0.23668314351E+02  0.54367091864E+02  0.40000017522E+02 0.  0.
         12    1    3    3    0    0 -0.20237632026E+02  0.19647606005E+02 -0.23668314351E+02  0.36820908136E+02  0.00000000000E+00 0. -1.
         11    1    4    4    0    0  0.14873668918E+02 -0.45095768692E+01  0.11309500913E+02  0.19221527561E+02  0.51100000000E-03 0. -1.
        -11    1    4    4    0    0 -0.99007353371E+01 -0.10013017078E+02 -0.11487682107E+01  0.14128154157E+02  0.51100000000E-03 0.  1.
        -12    1    4    4    0    0  0.15264698445E+02 -0.51250120571E+01  0.13507581649E+02  0.21017410145E+02  0.00000000000E+00 0.  1.
</event>
<event>
 8    1  0.1238315E-006  0.9118800E+02  0.7816164E-02  0.1184000E+00
        -11   -1    0    0    0    0  0.00000000000E+00  0.00000000000E+00  0.45593999997E+02  0.45594000000E+02  0.51100000000E-03 0. -1.
         11   -1    0    0    0    0 -0.00000000000E+00 -0.00000000000E+00 -0.45593999997E+02  0.45594000000E+02  0.51100000000E-03 0.  1.
         23    2    1    2    0    0  0.11102230246E-15 -0.88817841970E-15  0.00000000000E+00  0.91188000000E+02  0.91188000000E+02 0.  0.
    9900012    2    3    3    0    0  0.22448372610E+00 -0.48569286632E+01  0.36498493220E+02  0.54367079909E+02  0.39999990269E+02 0.  0.
        -12    1    3    3    0    0 -0.22448372610E+00  0.48569286632E+01 -0.36498493220E+02  0.36820920091E+02  0.00000000000E+00 0.  1.
         11    1    4    4    0    0  0.10732565518E+02 -0.64492674171E+01  0.21278226873E+02  0.24688943922E+02  0.51100000000E-03 0. -1.
        -11    1    4    4    0    0 -0.32371119992E+01 -0.23112195762E+00  0.20342068405E+02  0.20599321802E+02  0.51100000000E-03 0.  1.
        -12    1    4    4    0    0 -0.72709697931E+01  0.18234607116E+01 -0.51218020580E+01  0.90788141858E+01  0.00000000000E+00 0.  1.
</event>
<event>
 8    1  0.1238315E-006  0.9118800E+02  0.7816164E-02  0.1184000E+00
        -11   -1    0    0    0    0  0.00000000000E+00  0.00000000000E+00  0.45593999997E+02  0.45594000000E+02  0.51100000000E-03 0. -1.
         11   -1    0    0    0    0 -0.00000000000E+00 -0.00000000000E+00 -0.45593999997E+02  0.45594000000E+02  0.51100000000E-03 0.  1.
         23    2    1    2    0    0  0.53290705182E-14 -0.88817841970E-15  0.71054273576E-14  0.91188000000E+02  0.91188000000E+02 0.  0.
    9900012    2    3    3    0    0 -0.14973500649E+02  0.50018228706E+01 -0.33264926220E+02  0.54367091944E+02  0.40000017704E+02 0.  0.
        -12    1    3    3    0    0  0.14973500649E+02 -0.50018228706E+01  0.33264926220E+02  0.36820908056E+02  0.00000000000E+00 0.  1.
         11    1    4    4    0    0 -0.11351502552E+02 -0.11345601180E+01 -0.57938551102E+01  0.12795022241E+02  0.51100000000E-03 0. -1.
        -11    1    4    4    0    0  0.21412239260E+01 -0.14155113076E+01  0.61343531706E+01  0.66497218924E+01  0.51100000000E-03 0.  1.
        -12    1    4    4    0    0 -0.57632220230E+01  0.75518942962E+01 -0.33605424280E+02  0.34922347810E+02  0.00000000000E+00 0.  1.
</event>
<event>
 8    1  0.1238315E-006  0.9118800E+02  0.7816164E-02  0.1184000E+00
        -11   -1    0    0    0    0  0.00000000000E+00  0.00000000000E+00  0.45593999997E+02  0.45594000000E+02  0.51100000000E-03 0. -1.
         11   -1    0    0    0    0 -0.00000000000E+00 -0.00000000000E+00 -0.45593999997E+02  0.45594000000E+02  0.51100000000E-03 0.  1.
         23    2    1    2    0    0  0.88817841970E-15  0.00000000000E+00  0.00000000000E+00  0.91188000000E+02  0.91188000000E+02 0.  0.
    9900012    2    3    3    0    0  0.47833164204E+01  0.13665711562E+02 -0.33854831024E+02  0.54367063399E+02  0.39999952631E+02 0.  0.
         12    1    3    3    0    0 -0.47833164204E+01 -0.13665711562E+02  0.33854831024E+02  0.36820936601E+02  0.00000000000E+00 0. -1.
         11    1    4    4    0    0 -0.18382495544E+01  0.10546244448E+02 -0.13314319707E+02  0.17084306919E+02  0.51100000000E-03 0.  1.
        -11    1    4    4    0    0 -0.11277494352E+02 -0.17757520962E+01 -0.31307743719E+01  0.11837944196E+02  0.51100000000E-03 0. -1.
        -12    1    4    4    0    0  0.17899060326E+02  0.48952192105E+01 -0.17409736946E+02  0.25444812285E+02  0.00000000000E+00 0.  1.
</event>
<event>
 8    1  0.1238315E-006  0.9118800E+02  0.7816164E-02  0.1184000E+00
        -11   -1    0    0    0    0  0.00000000000E+00  0.00000000000E+00  0.45593999997E+02  0.45594000000E+02  0.51100000000E-03 0.  1.
         11   -1    0    0    0    0 -0.00000000000E+00 -0.00000000000E+00 -0.45593999997E+02  0.45594000000E+02  0.51100000000E-03 0. -1.
         23    2    1    2    0    0  0.00000000000E+00  0.00000000000E+00 -0.35527136788E-14  0.91188000000E+02  0.91188000000E+02 0.  0.
    9900012    2    3    3    0    0 -0.23430662263E+02 -0.10840202131E+02  0.26254013911E+02  0.54367093402E+02  0.40000021028E+02 0.  0.
         12    1    3    3    0    0  0.23430662263E+02  0.10840202131E+02 -0.26254013911E+02  0.36820906598E+02  0.00000000000E+00 0. -1.
         11    1    4    4    0    0 -0.27622258676E+01 -0.97237280825E+00  0.87487671014E+01  0.92258510002E+01  0.51100000000E-03 0. -1.
        -11    1    4    4    0    0 -0.28229203807E+02 -0.12008777985E+02  0.20317223506E+02  0.36795220716E+02  0.51100000000E-03 0.  1.
         12    1    4    4    0    0  0.75607674125E+01  0.21409486618E+01 -0.28119766962E+01  0.83460216857E+01  0.00000000000E+00 0. -1.
</event>
<event>
 8    1  0.1238315E-006  0.9118800E+02  0.7816164E-02  0.1184000E+00
        -11   -1    0    0    0    0  0.00000000000E+00  0.00000000000E+00  0.45593999997E+02  0.45594000000E+02  0.51100000000E-03 0.  1.
         11   -1    0    0    0    0 -0.00000000000E+00 -0.00000000000E+00 -0.45593999997E+02  0.45594000000E+02  0.51100000000E-03 0. -1.
         23    2    1    2    0    0  0.88817841970E-15  0.00000000000E+00  0.00000000000E+00  0.91188000000E+02  0.91188000000E+02 0.  0.
    9900012    2    3    3    0    0  0.68034162310E+01  0.19621454881E+02  0.30405456212E+02  0.54367085678E+02  0.40000003421E+02 0.  0.
        -12    1    3    3    0    0 -0.68034162310E+01 -0.19621454881E+02 -0.30405456212E+02  0.36820914322E+02  0.00000000000E+00 0.  1.
         11    1    4    4    0    0 -0.11382131348E+02  0.17741020281E+02  0.16519031966E+02  0.26780125690E+02  0.51100000000E-03 0. -1.
        -11    1    4    4    0    0  0.26862985114E+01 -0.58778951335E+01  0.30553064281E+01  0.71484787559E+01  0.51100000000E-03 0.  1.
         12    1    4    4    0    0  0.15499249067E+02  0.77583297337E+01  0.10831117818E+02  0.20438481233E+02  0.00000000000E+00 0. -1.
</event>
<event>
 8    1  0.1238315E-006  0.9118800E+02  0.7816164E-02  0.1184000E+00
        -11   -1    0    0    0    0  0.00000000000E+00  0.00000000000E+00  0.45593999997E+02  0.45594000000E+02  0.51100000000E-03 0.  1.
         11   -1    0    0    0    0 -0.00000000000E+00 -0.00000000000E+00 -0.45593999997E+02  0.45594000000E+02  0.51100000000E-03 0. -1.
         23    2    1    2    0    0  0.00000000000E+00 -0.88817841970E-15  0.17763568394E-14  0.91188000000E+02  0.91188000000E+02 0.  0.
    9900012    2    3    3    0    0 -0.35027556355E+02 -0.59233122102E+01  0.96832257612E+01  0.54367079413E+02  0.39999989138E+02 0.  0.
         12    1    3    3    0    0  0.35027556355E+02  0.59233122102E+01 -0.96832257612E+01  0.36820920587E+02  0.00000000000E+00 0. -1.
         11    1    4    4    0    0 -0.20408341476E+02 -0.19446966760E+01  0.20754644087E+02  0.29172546999E+02  0.51100000000E-03 0. -1.
        -11    1    4    4    0    0 -0.15337716089E+02 -0.21274268703E+01 -0.16569874023E+01  0.15572960137E+02  0.51100000000E-03 0.  1.
         12    1    4    4    0    0  0.71850121032E+00 -0.18511886639E+01 -0.94144309238E+01  0.96215722768E+01  0.00000000000E+00 0. -1.
</event>
<event>
 8    1  0.1238315E-006  0.9118800E+02  0.7816164E-02  0.1184000E+00
        -11   -1    0    0    0    0  0.00000000000E+00  0.00000000000E+00  0.45593999997E+02  0.45594000000E+02  0.51100000000E-03 0.  1.
         11   -1    0    0    0    0 -0.00000000000E+00 -0.00000000000E+00 -0.45593999997E+02  0.45594000000E+02  0.51100000000E-03 0. -1.
         23    2    1    2    0    0  0.00000000000E+00  0.13322676296E-14  0.35527136788E-14  0.91188000000E+02  0.91188000000E+02 0.  0.
    9900012    2    3    3    0    0  0.27223818526E+02  0.31622391890E+01 -0.24589497189E+02  0.54367089856E+02  0.40000012944E+02 0.  0.
        -12    1    3    3    0    0 -0.27223818526E+02 -0.31622391890E+01  0.24589497189E+02  0.36820910144E+02  0.00000000000E+00 0.  1.
         11    1    4    4    0    0  0.81984610531E+01 -0.14051220465E+02 -0.14532357803E+02  0.21813779677E+02  0.51100000000E-03 0. -1.
        -11    1    4    4    0    0  0.12089474170E+02  0.18252420305E+02 -0.12397843285E+02  0.25159744654E+02  0.51100000000E-03 0.  1.
        -12    1    4    4    0    0  0.69358833032E+01 -0.10389606507E+01  0.23407038989E+01  0.73935655250E+01  0.00000000000E+00 0.  1.
</event>
<event>
 8    1  0.1238315E-006  0.9118800E+02  0.7816164E-02  0.1184000E+00
        -11   -1    0    0    0    0  0.00000000000E+00  0.00000000000E+00  0.45593999997E+02  0.45594000000E+02  0.51100000000E-03 0.  1.
         11   -1    0    0    0    0 -0.00000000000E+00 -0.00000000000E+00 -0.45593999997E+02  0.45594000000E+02  0.51100000000E-03 0. -1.
         23    2    1    2    0    0 -0.17763568394E-14 -0.71054273576E-14 -0.44408920985E-15  0.91188000000E+02  0.91188000000E+02 0.  0.
    9900012    2    3    3    0    0  0.15543031765E+02  0.33359108716E+02 -0.11678326200E+01  0.54367084697E+02  0.40000001183E+02 0.  0.
         12    1    3    3    0    0 -0.15543031765E+02 -0.33359108716E+02  0.11678326200E+01  0.36820915303E+02  0.00000000000E+00 0. -1.
         11    1    4    4    0    0  0.74027368383E+01  0.32016182092E+02 -0.11773828840E+02  0.34906438866E+02  0.51100000000E-03 0. -1.
        -11    1    4    4    0    0  0.17327425488E+01  0.45816044290E+01 -0.17238676312E+01  0.51928042285E+01  0.51100000000E-03 0.  1.
        -12    1    4    4    0    0  0.64075523776E+01 -0.32386778055E+01  0.12329863851E+02  0.14267841603E+02  0.00000000000E+00 0.  1.
</event>
<event>
 8    1  0.1238315E-006  0.9118800E+02  0.7816164E-02  0.1184000E+00
        -11   -1    0    0    0    0  0.00000000000E+00  0.00000000000E+00  0.45593999997E+02  0.45594000000E+02  0.51100000000E-03 0.  1.
         11   -1    0    0    0    0 -0.00000000000E+00 -0.00000000000E+00 -0.45593999997E+02  0.45594000000E+02  0.51100000000E-03 0. -1.
         23    2    1    2    0    0 -0.35527136788E-14 -0.35527136788E-14  0.00000000000E+00  0.91188000000E+02  0.91188000000E+02 0.  0.
    9900012    2    3    3    0    0  0.22324506805E+02  0.22077389682E+02  0.19235056238E+02  0.54367053139E+02  0.39999929241E+02 0.  0.
         12    1    3    3    0    0 -0.22324506805E+02 -0.22077389682E+02 -0.19235056238E+02  0.36820946861E+02  0.00000000000E+00 0. -1.
         11    1    4    4    0    0  0.10139302419E+02 -0.56542627677E+01  0.11030952087E+02  0.16014307515E+02  0.51100000000E-03 0. -1.
        -11    1    4    4    0    0 -0.11298997383E+01  0.91587429559E+00  0.82863799835E+01  0.84130608363E+01  0.51100000000E-03 0.  1.
         12    1    4    4    0    0  0.13315104124E+02  0.26815778154E+02 -0.82275832195E-01  0.29939684787E+02  0.00000000000E+00 0. -1.
</event>
<event>
 8    1  0.1238315E-006  0.9118800E+02  0.7816164E-02  0.1184000E+00
        -11   -1    0    0    0    0  0.00000000000E+00  0.00000000000E+00  0.45593999997E+02  0.45594000000E+02  0.51100000000E-03 0. -1.
         11   -1    0    0    0    0 -0.00000000000E+00 -0.00000000000E+00 -0.45593999997E+02  0.45594000000E+02  0.51100000000E-03 0.  1.
         23    2    1    2    0    0  0.00000000000E+00  0.00000000000E+00  0.22204460493E-15  0.91188000000E+02  0.91188000000E+02 0.  0.
    9900012    2    3    3    0    0  0.34807127200E+02  0.11897814505E+02 -0.16387387955E+01  0.54367088024E+02  0.40000008769E+02 0.  0.
         12    1    3    3    0    0 -0.34807127200E+02 -0.11897814505E+02  0.16387387955E+01  0.36820911976E+02  0.00000000000E+00 0. -1.
         11    1    4    4    0    0  0.20569988319E+02 -0.22757828860E+01 -0.11502145477E+02  0.23677055519E+02  0.51100000000E-03 0. -1.
        -11    1    4    4    0    0  0.46263093521E+01  0.15963858813E+02 -0.25190103305E+00  0.16622604513E+02  0.51100000000E-03 0.  1.
        -12    1    4    4    0    0  0.96108295280E+01 -0.17902614216E+01  0.10115307714E+02  0.14067427993E+02  0.00000000000E+00 0.  1.
</event>
<event>
 8    1  0.1238315E-006  0.9118800E+02  0.7816164E-02  0.1184000E+00
        -11   -1    0    0    0    0  0.00000000000E+00  0.00000000000E+00  0.45593999997E+02  0.45594000000E+02  0.51100000000E-03 0.  1.
         11   -1    0    0    0    0 -0.00000000000E+00 -0.00000000000E+00 -0.45593999997E+02  0.45594000000E+02  0.51100000000E-03 0. -1.
         23    2    1    2    0    0  0.00000000000E+00  0.00000000000E+00  0.00000000000E+00  0.91188000000E+02  0.91188000000E+02 0.  0.
    9900012    2    3    3    0    0  0.29347683859E+01  0.16074677710E+02  0.32996542399E+02  0.54367082857E+02  0.39999996989E+02 0.  0.
         12    1    3    3    0    0 -0.29347683859E+01 -0.16074677710E+02 -0.32996542399E+02  0.36820917143E+02  0.00000000000E+00 0. -1.
         11    1    4    4    0    0 -0.42779044672E+00 -0.30406042351E+01 -0.69728102400E+00  0.31487267059E+01  0.51100000000E-03 0. -1.
        -11    1    4    4    0    0 -0.41074080514E+00  0.71587852780E+01  0.37449785479E+02  0.38130084544E+02  0.51100000000E-03 0.  1.
         12    1    4    4    0    0  0.37732996377E+01  0.11956496667E+02 -0.37559620558E+01  0.13088271607E+02  0.00000000000E+00 0. -1.
</event>
<event>
 8    1  0.1238315E-006  0.9118800E+02  0.7816164E-02  0.1184000E+00
        -11   -1    0    0    0    0  0.00000000000E+00  0.00000000000E+00  0.45593999997E+02  0.45594000000E+02  0.51100000000E-03 0. -1.
         11   -1    0    0    0    0 -0.00000000000E+00 -0.00000000000E+00 -0.45593999997E+02  0.45594000000E+02  0.51100000000E-03 0.  1.
         23    2    1    2    0    0  0.17763568394E-14 -0.35527136788E-14  0.00000000000E+00  0.91188000000E+02  0.91188000000E+02 0.  0.
    9900012    2    3    3    0    0  0.14982608860E+02  0.21898628934E+02  0.25529421685E+02  0.54367083539E+02  0.39999998544E+02 0.  0.
        -12    1    3    3    0    0 -0.14982608860E+02 -0.21898628934E+02 -0.25529421685E+02  0.36820916461E+02  0.00000000000E+00 0.  1.
         11    1    4    4    0    0 -0.61072178155E+01  0.18586588189E+01  0.12857070366E+02  0.14354684975E+02  0.51100000000E-03 0. -1.
        -11    1    4    4    0    0 -0.18408881750E+01 -0.37636519899E+01 -0.89490557525E+00  0.42842504389E+01  0.51100000000E-03 0.  1.
        -12    1    4    4    0    0  0.22930714850E+02  0.23803622105E+02  0.13567256894E+02  0.35728148126E+02  0.00000000000E+00 0.  1.
</event>
<event>
 8    1  0.1238315E-006  0.9118800E+02  0.7816164E-02  0.1184000E+00
        -11   -1    0    0    0    0  0.00000000000E+00  0.00000000000E+00  0.45593999997E+02  0.45594000000E+02  0.51100000000E-03 0.  1.
         11   -1    0    0    0    0 -0.00000000000E+00 -0.00000000000E+00 -0.45593999997E+02  0.45594000000E+02  0.51100000000E-03 0. -1.
         23    2    1    2    0    0  0.00000000000E+00  0.00000000000E+00  0.00000000000E+00  0.91188000000E+02  0.91188000000E+02 0.  0.
    9900012    2    3    3    0    0  0.21220851985E+02  0.51729571564E+01  0.29642801811E+02  0.54367085509E+02  0.40000003036E+02 0.  0.
         12    1    3    3    0    0 -0.21220851985E+02 -0.51729571564E+01 -0.29642801811E+02  0.36820914491E+02  0.00000000000E+00 0. -1.
         11    1    4    4    0    0  0.94453530441E+01 -0.70416673219E+01  0.55720235119E+01  0.13032544613E+02  0.51100000000E-03 0. -1.
        -11    1    4    4    0    0  0.17356831376E+02  0.18116356101E+02  0.20753979374E+02  0.32560553034E+02  0.51100000000E-03 0.  1.
        -12    1    4    4    0    0 -0.55813324353E+01 -0.59017316226E+01  0.33167989255E+01  0.87739878624E+01  0.00000000000E+00 0.  1.
</event>
<event>
 8    1  0.1238315E-006  0.9118800E+02  0.7816164E-02  0.1184000E+00
        -11   -1    0    0    0    0  0.00000000000E+00  0.00000000000E+00  0.45593999997E+02  0.45594000000E+02  0.51100000000E-03 0.  1.
         11   -1    0    0    0    0 -0.00000000000E+00 -0.00000000000E+00 -0.45593999997E+02  0.45594000000E+02  0.51100000000E-03 0. -1.
         23    2    1    2    0    0  0.00000000000E+00  0.35527136788E-14  0.00000000000E+00  0.91188000000E+02  0.91188000000E+02 0.  0.
    9900012    2    3    3    0    0 -0.21453653585E+02  0.28424195938E+02 -0.93586908522E+01  0.54367092062E+02  0.40000017975E+02 0.  0.
        -12    1    3    3    0    0  0.21453653585E+02 -0.28424195938E+02  0.93586908522E+01  0.36820907938E+02  0.00000000000E+00 0.  1.
         11    1    4    4    0    0 -0.32441732652E+01  0.16315138209E+02  0.49183217613E+01  0.17346419923E+02  0.51100000000E-03 0. -1.
        -11    1    4    4    0    0 -0.82067374184E+01  0.17875453320E+02 -0.15989543663E+02  0.25348528109E+02  0.51100000000E-03 0.  1.
        -12    1    4    4    0    0 -0.10002742902E+02 -0.57663955910E+01  0.17125310500E+01  0.11672144030E+02  0.00000000000E+00 0.  1.
</event>
<event>
 8    1  0.1238315E-006  0.9118800E+02  0.7816164E-02  0.1184000E+00
        -11   -1    0    0    0    0  0.00000000000E+00  0.00000000000E+00  0.45593999997E+02  0.45594000000E+02  0.51100000000E-03 0.  1.
         11   -1    0    0    0    0 -0.00000000000E+00 -0.00000000000E+00 -0.45593999997E+02  0.45594000000E+02  0.51100000000E-03 0. -1.
         23    2    1    2    0    0  0.00000000000E+00  0.00000000000E+00  0.00000000000E+00  0.91188000000E+02  0.91188000000E+02 0.  0.
    9900012    2    3    3    0    0 -0.14165579760E+02 -0.33957425991E+02 -0.14169271001E+01  0.54367107666E+02  0.40000053546E+02 0.  0.
         12    1    3    3    0    0  0.14165579760E+02  0.33957425991E+02  0.14169271001E+01  0.36820892334E+02  0.00000000000E+00 0. -1.
         11    1    4    4    0    0  0.56724298173E+01 -0.10219231722E+02 -0.91738708454E+01  0.14858299485E+02  0.51100000000E-03 0. -1.
        -11    1    4    4    0    0 -0.23037392781E+02 -0.21865384187E+02  0.97154731857E+00  0.31776727274E+02  0.51100000000E-03 0.  1.
        -12    1    4    4    0    0  0.31993832039E+01 -0.18728100822E+01  0.67853964267E+01  0.77320809073E+01  0.00000000000E+00 0.  1.
</event>
<event>
 8    1  0.1238315E-006  0.9118800E+02  0.7816164E-02  0.1184000E+00
        -11   -1    0    0    0    0  0.00000000000E+00  0.00000000000E+00  0.45593999997E+02  0.45594000000E+02  0.51100000000E-03 0. -1.
         11   -1    0    0    0    0 -0.00000000000E+00 -0.00000000000E+00 -0.45593999997E+02  0.45594000000E+02  0.51100000000E-03 0.  1.
         23    2    1    2    0    0  0.00000000000E+00 -0.17763568394E-14  0.00000000000E+00  0.91188000000E+02  0.91188000000E+02 0.  0.
    9900012    2    3    3    0    0 -0.32030899529E+02  0.14964658585E+02  0.10288806609E+02  0.54367094625E+02  0.40000023817E+02 0.  0.
        -12    1    3    3    0    0  0.32030899529E+02 -0.14964658585E+02 -0.10288806609E+02  0.36820905375E+02  0.00000000000E+00 0.  1.
         11    1    4    4    0    0 -0.35616193002E+02  0.16988589866E+01  0.17911159154E+01  0.35701644532E+02  0.51100000000E-03 0. -1.
        -11    1    4    4    0    0  0.49643141046E+01  0.11508610509E+02  0.32291394265E+01  0.12942946808E+02  0.51100000000E-03 0.  1.
         12    1    4    4    0    0 -0.13790206315E+01  0.17571890895E+01  0.52685512670E+01  0.57225032854E+01  0.00000000000E+00 0. -1.
</event>
<event>
 8    1  0.1238315E-006  0.9118800E+02  0.7816164E-02  0.1184000E+00
        -11   -1    0    0    0    0  0.00000000000E+00  0.00000000000E+00  0.45593999997E+02  0.45594000000E+02  0.51100000000E-03 0.  1.
         11   -1    0    0    0    0 -0.00000000000E+00 -0.00000000000E+00 -0.45593999997E+02  0.45594000000E+02  0.51100000000E-03 0. -1.
         23    2    1    2    0    0 -0.17763568394E-14  0.00000000000E+00  0.00000000000E+00  0.91188000000E+02  0.91188000000E+02 0.  0.
    9900012    2    3    3    0    0  0.56024093400E+01 -0.14282297637E+02 -0.33472454377E+02  0.54367133386E+02  0.40000112180E+02 0.  0.
        -12    1    3    3    0    0 -0.56024093400E+01  0.14282297637E+02  0.33472454377E+02  0.36820866614E+02  0.00000000000E+00 0.  1.
         11    1    4    4    0    0 -0.58413151152E+01 -0.48746200030E+01 -0.30190412840E+02  0.31134288336E+02  0.51100000000E-03 0. -1.
        -11    1    4    4    0    0  0.14436569549E+02 -0.20938423043E+01 -0.44345260894E+01  0.15246761552E+02  0.51100000000E-03 0.  1.
         12    1    4    4    0    0 -0.29928450935E+01 -0.73138353301E+01  0.11524845533E+01  0.79860834979E+01  0.00000000000E+00 0. -1.
</event>
<event>
 8    1  0.1238315E-006  0.9118800E+02  0.7816164E-02  0.1184000E+00
        -11   -1    0    0    0    0  0.00000000000E+00  0.00000000000E+00  0.45593999997E+02  0.45594000000E+02  0.51100000000E-03 0.  1.
         11   -1    0    0    0    0 -0.00000000000E+00 -0.00000000000E+00 -0.45593999997E+02  0.45594000000E+02  0.51100000000E-03 0. -1.
         23    2    1    2    0    0  0.00000000000E+00  0.00000000000E+00 -0.17763568394E-14  0.91188000000E+02  0.91188000000E+02 0.  0.
    9900012    2    3    3    0    0  0.18057918964E+02 -0.29624840367E+02  0.12331326305E+02  0.54367065567E+02  0.39999957572E+02 0.  0.
        -12    1    3    3    0    0 -0.18057918964E+02  0.29624840367E+02 -0.12331326305E+02  0.36820934433E+02  0.00000000000E+00 0.  1.
         11    1    4    4    0    0  0.12995973456E+01 -0.21723571594E+02 -0.60171510390E+01  0.22578942025E+02  0.51100000000E-03 0.  1.
        -11    1    4    4    0    0  0.39992338095E+01 -0.11281984056E+02  0.48688566753E+01  0.12922182513E+02  0.51100000000E-03 0. -1.
         12    1    4    4    0    0  0.12759087809E+02  0.33807152828E+01  0.13479620669E+02  0.18865941029E+02  0.00000000000E+00 0. -1.
</event>
<event>
 8    1  0.1238315E-006  0.9118800E+02  0.7816164E-02  0.1184000E+00
        -11   -1    0    0    0    0  0.00000000000E+00  0.00000000000E+00  0.45593999997E+02  0.45594000000E+02  0.51100000000E-03 0.  1.
         11   -1    0    0    0    0 -0.00000000000E+00 -0.00000000000E+00 -0.45593999997E+02  0.45594000000E+02  0.51100000000E-03 0. -1.
         23    2    1    2    0    0  0.00000000000E+00  0.10658141036E-13  0.00000000000E+00  0.91188000000E+02  0.91188000000E+02 0.  0.
    9900012    2    3    3    0    0  0.20997170090E+02 -0.28592333356E+02 -0.98679832194E+01  0.54367085137E+02  0.40000002187E+02 0.  0.
         12    1    3    3    0    0 -0.20997170090E+02  0.28592333356E+02  0.98679832194E+01  0.36820914863E+02  0.00000000000E+00 0. -1.
         11    1    4    4    0    0 -0.34721718637E+01 -0.11258524540E+01 -0.60197901191E+01  0.70399854076E+01  0.51100000000E-03 0. -1.
        -11    1    4    4    0    0 -0.34747953742E+01  0.37733135445E+01 -0.15125197513E+01  0.53478794169E+01  0.51100000000E-03 0.  1.
        -12    1    4    4    0    0  0.27944137328E+02 -0.31239794446E+02 -0.23356733489E+01  0.41979220313E+02  0.00000000000E+00 0.  1.
</event>
<event>
 8    1  0.1238315E-006  0.9118800E+02  0.7816164E-02  0.1184000E+00
        -11   -1    0    0    0    0  0.00000000000E+00  0.00000000000E+00  0.45593999997E+02  0.45594000000E+02  0.51100000000E-03 0. -1.
         11   -1    0    0    0    0 -0.00000000000E+00 -0.00000000000E+00 -0.45593999997E+02  0.45594000000E+02  0.51100000000E-03 0.  1.
         23    2    1    2    0    0 -0.71054273576E-14 -0.35527136788E-14  0.00000000000E+00  0.91188000000E+02  0.91188000000E+02 0.  0.
    9900012    2    3    3    0    0  0.29943866731E+02  0.46229296486E+01 -0.20923011849E+02  0.54367094821E+02  0.40000024263E+02 0.  0.
         12    1    3    3    0    0 -0.29943866731E+02 -0.46229296486E+01  0.20923011849E+02  0.36820905179E+02  0.00000000000E+00 0. -1.
         11    1    4    4    0    0  0.31809897440E+01 -0.14619774424E+02 -0.12204836500E+02  0.19308405792E+02  0.51100000000E-03 0. -1.
        -11    1    4    4    0    0  0.65527916621E+01  0.66223093481E+01 -0.59906028801E+01  0.11076162819E+02  0.51100000000E-03 0.  1.
         12    1    4    4    0    0  0.20210085325E+02  0.12620394724E+02 -0.27275724686E+01  0.23982526210E+02  0.00000000000E+00 0. -1.
</event>
<event>
 8    1  0.1238315E-006  0.9118800E+02  0.7816164E-02  0.1184000E+00
        -11   -1    0    0    0    0  0.00000000000E+00  0.00000000000E+00  0.45593999997E+02  0.45594000000E+02  0.51100000000E-03 0.  1.
         11   -1    0    0    0    0 -0.00000000000E+00 -0.00000000000E+00 -0.45593999997E+02  0.45594000000E+02  0.51100000000E-03 0. -1.
         23    2    1    2    0    0 -0.17763568394E-14  0.00000000000E+00  0.00000000000E+00  0.91188000000E+02  0.91188000000E+02 0.  0.
    9900012    2    3    3    0    0 -0.81313631143E+01  0.34738227914E+02  0.91058491256E+01  0.54367081584E+02  0.39999994088E+02 0.  0.
        -12    1    3    3    0    0  0.81313631143E+01 -0.34738227914E+02 -0.91058491256E+01  0.36820918416E+02  0.00000000000E+00 0.  1.
         11    1    4    4    0    0 -0.39920921423E+01  0.14229539108E+02 -0.32006287868E+01  0.15121527958E+02  0.51100000000E-03 0. -1.
        -11    1    4    4    0    0  0.89935813673E+00  0.19623222227E+02 -0.57582562245E+01  0.20470398399E+02  0.51100000000E-03 0.  1.
        -12    1    4    4    0    0 -0.50386291087E+01  0.88546657912E+00  0.18064734137E+02  0.18775155227E+02  0.00000000000E+00 0.  1.
</event>
<event>
 8    1  0.1238315E-006  0.9118800E+02  0.7816164E-02  0.1184000E+00
        -11   -1    0    0    0    0  0.00000000000E+00  0.00000000000E+00  0.45593999997E+02  0.45594000000E+02  0.51100000000E-03 0.  1.
         11   -1    0    0    0    0 -0.00000000000E+00 -0.00000000000E+00 -0.45593999997E+02  0.45594000000E+02  0.51100000000E-03 0. -1.
         23    2    1    2    0    0  0.00000000000E+00 -0.13322676296E-14  0.17763568394E-14  0.91188000000E+02  0.91188000000E+02 0.  0.
    9900012    2    3    3    0    0 -0.34123522595E+02  0.18348330527E+01  0.13711272199E+02  0.54367076710E+02  0.39999982976E+02 0.  0.
         12    1    3    3    0    0  0.34123522595E+02 -0.18348330527E+01 -0.13711272199E+02  0.36820923290E+02  0.00000000000E+00 0. -1.
         11    1    4    4    0    0  0.23411144862E+01  0.10411973528E+02 -0.37931316955E+01  0.11325981552E+02  0.51100000000E-03 0. -1.
        -11    1    4    4    0    0 -0.25653894269E+02 -0.28610047856E+01  0.65684012582E+01  0.26635531437E+02  0.51100000000E-03 0.  1.
         12    1    4    4    0    0 -0.10810742812E+02 -0.57161356898E+01  0.10936002636E+02  0.16405563722E+02  0.00000000000E+00 0. -1.
</event>
<event>
 8    1  0.1238315E-006  0.9118800E+02  0.7816164E-02  0.1184000E+00
        -11   -1    0    0    0    0  0.00000000000E+00  0.00000000000E+00  0.45593999997E+02  0.45594000000E+02  0.51100000000E-03 0. -1.
         11   -1    0    0    0    0 -0.00000000000E+00 -0.00000000000E+00 -0.45593999997E+02  0.45594000000E+02  0.51100000000E-03 0.  1.
         23    2    1    2    0    0  0.00000000000E+00  0.00000000000E+00 -0.11102230246E-15  0.91188000000E+02  0.91188000000E+02 0.  0.
    9900012    2    3    3    0    0  0.35825458949E+02 -0.84889204832E+01  0.50471678730E+00  0.54367081775E+02  0.39999994522E+02 0.  0.
         12    1    3    3    0    0 -0.35825458949E+02  0.84889204832E+01 -0.50471678730E+00  0.36820918225E+02  0.00000000000E+00 0. -1.
         11    1    4    4    0    0  0.31443004830E+02  0.15338656692E+01  0.38447492628E+01  0.31714308976E+02  0.51100000000E-03 0. -1.
        -11    1    4    4    0    0  0.11850142989E+02 -0.89164561990E+01 -0.27278072825E+01  0.15078793481E+02  0.51100000000E-03 0.  1.
         12    1    4    4    0    0 -0.74676888700E+01 -0.11063299534E+01 -0.61222519304E+00  0.75739793181E+01  0.00000000000E+00 0. -1.
</event>
<event>
 8    1  0.1238315E-006  0.9118800E+02  0.7816164E-02  0.1184000E+00
        -11   -1    0    0    0    0  0.00000000000E+00  0.00000000000E+00  0.45593999997E+02  0.45594000000E+02  0.51100000000E-03 0. -1.
         11   -1    0    0    0    0 -0.00000000000E+00 -0.00000000000E+00 -0.45593999997E+02  0.45594000000E+02  0.51100000000E-03 0.  1.
         23    2    1    2    0    0  0.00000000000E+00  0.00000000000E+00  0.71054273576E-14  0.91188000000E+02  0.91188000000E+02 0.  0.
    9900012    2    3    3    0    0 -0.25415752787E+02  0.19642039669E+02 -0.18000237641E+02  0.54367098772E+02  0.40000033271E+02 0.  0.
         12    1    3    3    0    0  0.25415752787E+02 -0.19642039669E+02  0.18000237641E+02  0.36820901228E+02  0.00000000000E+00 0. -1.
         11    1    4    4    0    0 -0.45412371826E+00  0.83851882300E+01 -0.53766769558E+01  0.99712720028E+01  0.51100000000E-03 0. -1.
        -11    1    4    4    0    0 -0.20816383429E+02  0.54253158282E+01  0.77010498755E+01  0.22848676994E+02  0.51100000000E-03 0.  1.
        -12    1    4    4    0    0 -0.41452456394E+01  0.58315356106E+01 -0.20324610561E+02  0.21547149776E+02  0.00000000000E+00 0.  1.
</event>
<event>
 8    1  0.1238315E-006  0.9118800E+02  0.7816164E-02  0.1184000E+00
        -11   -1    0    0    0    0  0.00000000000E+00  0.00000000000E+00  0.45593999997E+02  0.45594000000E+02  0.51100000000E-03 0. -1.
         11   -1    0    0    0    0 -0.00000000000E+00 -0.00000000000E+00 -0.45593999997E+02  0.45594000000E+02  0.51100000000E-03 0.  1.
         23    2    1    2    0    0  0.44408920985E-15  0.00000000000E+00  0.00000000000E+00  0.91188000000E+02  0.91188000000E+02 0.  0.
    9900012    2    3    3    0    0  0.20958609914E+01  0.31807126354E+02  0.18430818440E+02  0.54367068608E+02  0.39999964505E+02 0.  0.
        -12    1    3    3    0    0 -0.20958609914E+01 -0.31807126354E+02 -0.18430818440E+02  0.36820931392E+02  0.00000000000E+00 0.  1.
         11    1    4    4    0    0  0.35530657811E+01  0.20740849782E+01  0.35526736820E+01  0.54357700001E+01  0.51100000000E-03 0. -1.
        -11    1    4    4    0    0  0.65560340016E+01  0.85001781317E+01 -0.10409633968E+02  0.14953096325E+02  0.51100000000E-03 0.  1.
         12    1    4    4    0    0 -0.80132387913E+01  0.21232863244E+02  0.25287778726E+02  0.33978202283E+02  0.00000000000E+00 0. -1.
</event>
<event>
 8    1  0.1238315E-006  0.9118800E+02  0.7816164E-02  0.1184000E+00
        -11   -1    0    0    0    0  0.00000000000E+00  0.00000000000E+00  0.45593999997E+02  0.45594000000E+02  0.51100000000E-03 0.  1.
         11   -1    0    0    0    0 -0.00000000000E+00 -0.00000000000E+00 -0.45593999997E+02  0.45594000000E+02  0.51100000000E-03 0. -1.
         23    2    1    2    0    0 -0.88817841970E-15  0.00000000000E+00  0.00000000000E+00  0.91188000000E+02  0.91188000000E+02 0.  0.
    9900012    2    3    3    0    0 -0.77303469889E+01 -0.11810353244E+02 -0.34007894782E+02  0.54367087249E+02  0.40000007002E+02 0.  0.
        -12    1    3    3    0    0  0.77303469889E+01  0.11810353244E+02  0.34007894782E+02  0.36820912751E+02  0.00000000000E+00 0.  1.
         11    1    4    4    0    0  0.77694697900E+00 -0.10442250423E+02  0.40234878629E+01  0.11217517343E+02  0.51100000000E-03 0. -1.
        -11    1    4    4    0    0 -0.10254593571E+02  0.30544696402E+01 -0.36676052674E+02  0.38204964522E+02  0.51100000000E-03 0.  1.
        -12    1    4    4    0    0  0.17472996028E+01 -0.44225724608E+01 -0.13553299702E+01  0.49446053838E+01  0.00000000000E+00 0.  1.
</event>
<event>
 8    1  0.1238315E-006  0.9118800E+02  0.7816164E-02  0.1184000E+00
        -11   -1    0    0    0    0  0.00000000000E+00  0.00000000000E+00  0.45593999997E+02  0.45594000000E+02  0.51100000000E-03 0.  1.
         11   -1    0    0    0    0 -0.00000000000E+00 -0.00000000000E+00 -0.45593999997E+02  0.45594000000E+02  0.51100000000E-03 0. -1.
         23    2    1    2    0    0  0.35527136788E-14  0.00000000000E+00  0.00000000000E+00  0.91188000000E+02  0.91188000000E+02 0.  0.
    9900012    2    3    3    0    0 -0.18284369486E+02 -0.23399384795E+02  0.21769948673E+02  0.54367081468E+02  0.39999993823E+02 0.  0.
         12    1    3    3    0    0  0.18284369486E+02  0.23399384795E+02 -0.21769948673E+02  0.36820918532E+02  0.00000000000E+00 0. -1.
         11    1    4    4    0    0  0.22416716355E+01 -0.34167336923E+01  0.40715234026E+01  0.57685755543E+01  0.51100000000E-03 0. -1.
        -11    1    4    4    0    0 -0.25809678496E+02 -0.17294703051E+02  0.12268140174E+01  0.31092625019E+02  0.51100000000E-03 0.  1.
        -12    1    4    4    0    0  0.52836373740E+01 -0.26879480518E+01  0.16471611253E+02  0.17505880895E+02  0.00000000000E+00 0.  1.
</event>
<event>
 8    1  0.1238315E-006  0.9118800E+02  0.7816164E-02  0.1184000E+00
        -11   -1    0    0    0    0  0.00000000000E+00  0.00000000000E+00  0.45593999997E+02  0.45594000000E+02  0.51100000000E-03 0.  1.
         11   -1    0    0    0    0 -0.00000000000E+00 -0.00000000000E+00 -0.45593999997E+02  0.45594000000E+02  0.51100000000E-03 0. -1.
         23    2    1    2    0    0  0.00000000000E+00  0.00000000000E+00 -0.17763568394E-14  0.91188000000E+02  0.91188000000E+02 0.  0.
    9900012    2    3    3    0    0  0.33206378392E+02 -0.79786719855E+01  0.13764574119E+02  0.54366996846E+02  0.39999800909E+02 0.  0.
         12    1    3    3    0    0 -0.33206378392E+02  0.79786719855E+01 -0.13764574119E+02  0.36821003154E+02  0.00000000000E+00 0. -1.
         11    1    4    4    0    0  0.24382344561E+02  0.85480147141E+01 -0.17097897189E+01  0.25893834459E+02  0.51100000000E-03 0. -1.
        -11    1    4    4    0    0  0.11756100593E+02 -0.12975569637E+02  0.70558724345E+01  0.18877410962E+02  0.51100000000E-03 0.  1.
         12    1    4    4    0    0 -0.29320667623E+01 -0.35511170631E+01  0.84184914033E+01  0.95957514246E+01  0.00000000000E+00 0. -1.
</event>
<event>
 8    1  0.1238315E-006  0.9118800E+02  0.7816164E-02  0.1184000E+00
        -11   -1    0    0    0    0  0.00000000000E+00  0.00000000000E+00  0.45593999997E+02  0.45594000000E+02  0.51100000000E-03 0.  1.
         11   -1    0    0    0    0 -0.00000000000E+00 -0.00000000000E+00 -0.45593999997E+02  0.45594000000E+02  0.51100000000E-03 0. -1.
         23    2    1    2    0    0  0.00000000000E+00 -0.44408920985E-15  0.00000000000E+00  0.91188000000E+02  0.91188000000E+02 0.  0.
    9900012    2    3    3    0    0  0.25831587632E+02 -0.30946024454E+01 -0.26056346471E+02  0.54367072862E+02  0.39999974204E+02 0.  0.
        -12    1    3    3    0    0 -0.25831587632E+02  0.30946024454E+01  0.26056346471E+02  0.36820927138E+02  0.00000000000E+00 0.  1.
         11    1    4    4    0    0  0.17777508011E+02  0.11615593528E+02 -0.16803123504E+02  0.27079637439E+02  0.51100000000E-03 0. -1.
        -11    1    4    4    0    0 -0.29254662116E+01 -0.14377550768E+02 -0.57351288674E+01  0.15753222592E+02  0.51100000000E-03 0.  1.
        -12    1    4    4    0    0  0.10979545833E+02 -0.33264520556E+00 -0.35180940994E+01  0.11534212831E+02  0.00000000000E+00 0.  1.
</event>
<event>
 8    1  0.1238315E-006  0.9118800E+02  0.7816164E-02  0.1184000E+00
        -11   -1    0    0    0    0  0.00000000000E+00  0.00000000000E+00  0.45593999997E+02  0.45594000000E+02  0.51100000000E-03 0.  1.
         11   -1    0    0    0    0 -0.00000000000E+00 -0.00000000000E+00 -0.45593999997E+02  0.45594000000E+02  0.51100000000E-03 0. -1.
         23    2    1    2    0    0  0.00000000000E+00  0.00000000000E+00  0.00000000000E+00  0.91188000000E+02  0.91188000000E+02 0.  0.
    9900012    2    3    3    0    0 -0.29741807009E+02  0.20202410919E+02 -0.79415102863E+01  0.54367080990E+02  0.39999992733E+02 0.  0.
         12    1    3    3    0    0  0.29741807009E+02 -0.20202410919E+02  0.79415102863E+01  0.36820919010E+02  0.00000000000E+00 0. -1.
         11    1    4    4    0    0  0.39268750659E+01  0.10172318309E+02  0.12520506298E+00  0.10904681752E+02  0.51100000000E-03 0. -1.
        -11    1    4    4    0    0 -0.36781447855E+02  0.62322207621E+01 -0.49165106040E+01  0.37628281368E+02  0.51100000000E-03 0.  1.
        -12    1    4    4    0    0  0.31127657798E+01  0.37978718488E+01 -0.31502047452E+01  0.58341178696E+01  0.00000000000E+00 0.  1.
</event>
<event>
 8    1  0.1238315E-006  0.9118800E+02  0.7816164E-02  0.1184000E+00
        -11   -1    0    0    0    0  0.00000000000E+00  0.00000000000E+00  0.45593999997E+02  0.45594000000E+02  0.51100000000E-03 0. -1.
         11   -1    0    0    0    0 -0.00000000000E+00 -0.00000000000E+00 -0.45593999997E+02  0.45594000000E+02  0.51100000000E-03 0.  1.
         23    2    1    2    0    0 -0.71054273576E-14  0.88817841970E-15  0.00000000000E+00  0.91188000000E+02  0.91188000000E+02 0.  0.
    9900012    2    3    3    0    0  0.35609702241E+02  0.11223425888E+01  0.92988917119E+01  0.54367082933E+02  0.39999997163E+02 0.  0.
        -12    1    3    3    0    0 -0.35609702241E+02 -0.11223425888E+01 -0.92988917119E+01  0.36820917067E+02  0.00000000000E+00 0.  1.
         11    1    4    4    0    0  0.18638526938E+02 -0.52523474654E+01  0.89602777285E+01  0.21337019884E+02  0.51100000000E-03 0. -1.
        -11    1    4    4    0    0  0.25487518894E+01  0.15645918496E+02  0.87577824790E+00  0.15876331112E+02  0.51100000000E-03 0.  1.
        -12    1    4    4    0    0  0.14422423414E+02 -0.92712284413E+01 -0.53716426449E+00  0.17153731938E+02  0.00000000000E+00 0.  1.
</event>
<event>
 8    1  0.1238315E-006  0.9118800E+02  0.7816164E-02  0.1184000E+00
        -11   -1    0    0    0    0  0.00000000000E+00  0.00000000000E+00  0.45593999997E+02  0.45594000000E+02  0.51100000000E-03 0. -1.
         11   -1    0    0    0    0 -0.00000000000E+00 -0.00000000000E+00 -0.45593999997E+02  0.45594000000E+02  0.51100000000E-03 0.  1.
         23    2    1    2    0    0  0.00000000000E+00  0.35527136788E-14  0.00000000000E+00  0.91188000000E+02  0.91188000000E+02 0.  0.
    9900012    2    3    3    0    0  0.17844369285E+02  0.18780347667E+02 -0.26165944995E+02  0.54367086769E+02  0.40000005907E+02 0.  0.
         12    1    3    3    0    0 -0.17844369285E+02 -0.18780347667E+02  0.26165944995E+02  0.36820913231E+02  0.00000000000E+00 0. -1.
         11    1    4    4    0    0  0.10071653949E+01 -0.29626353531E+01 -0.47529950114E+01  0.56905669495E+01  0.51100000000E-03 0. -1.
        -11    1    4    4    0    0  0.26869604849E+02  0.18702893931E+02 -0.12959017842E+02  0.35209516467E+02  0.51100000000E-03 0.  1.
        -12    1    4    4    0    0 -0.10032400958E+02  0.30400890891E+01 -0.84539321415E+01  0.13467003353E+02  0.00000000000E+00 0.  1.
</event>
<event>
 8    1  0.1238315E-006  0.9118800E+02  0.7816164E-02  0.1184000E+00
        -11   -1    0    0    0    0  0.00000000000E+00  0.00000000000E+00  0.45593999997E+02  0.45594000000E+02  0.51100000000E-03 0. -1.
         11   -1    0    0    0    0 -0.00000000000E+00 -0.00000000000E+00 -0.45593999997E+02  0.45594000000E+02  0.51100000000E-03 0.  1.
         23    2    1    2    0    0 -0.44408920985E-15  0.88817841970E-15  0.00000000000E+00  0.91188000000E+02  0.91188000000E+02 0.  0.
    9900012    2    3    3    0    0 -0.29129705647E+01 -0.79993247706E+01 -0.35823293507E+02  0.54367041947E+02  0.39999903726E+02 0.  0.
         12    1    3    3    0    0  0.29129705647E+01  0.79993247706E+01  0.35823293507E+02  0.36820958053E+02  0.00000000000E+00 0. -1.
         11    1    4    4    0    0 -0.77749648977E+01 -0.64553960922E+01 -0.38437728351E+01  0.10811882710E+02  0.51100000000E-03 0. -1.
        -11    1    4    4    0    0 -0.81221840416E+00 -0.14245408976E+02 -0.22771333191E+02  0.26872383430E+02  0.51100000000E-03 0.  1.
        -12    1    4    4    0    0  0.56742127372E+01  0.12701480298E+02 -0.92081874804E+01  0.16682775807E+02  0.00000000000E+00 0.  1.
</event>
<event>
 8    1  0.1238315E-006  0.9118800E+02  0.7816164E-02  0.1184000E+00
        -11   -1    0    0    0    0  0.00000000000E+00  0.00000000000E+00  0.45593999997E+02  0.45594000000E+02  0.51100000000E-03 0.  1.
         11   -1    0    0    0    0 -0.00000000000E+00 -0.00000000000E+00 -0.45593999997E+02  0.45594000000E+02  0.51100000000E-03 0. -1.
         23    2    1    2    0    0  0.00000000000E+00 -0.22204460493E-15  0.35527136788E-14  0.91188000000E+02  0.91188000000E+02 0.  0.
    9900012    2    3    3    0    0 -0.25892790695E+02 -0.11963580525E+01 -0.26151705133E+02  0.54367087954E+02  0.40000008608E+02 0.  0.
        -12    1    3    3    0    0  0.25892790695E+02  0.11963580525E+01  0.26151705133E+02  0.36820912046E+02  0.00000000000E+00 0.  1.
         11    1    4    4    0    0  0.10304603769E+01 -0.21800310439E+01 -0.67600982211E+01  0.71772774895E+01  0.51100000000E-03 0. -1.
        -11    1    4    4    0    0  0.33229664596E+01 -0.28770276610E+01 -0.15903043508E+02  0.16499278388E+02  0.51100000000E-03 0.  1.
        -12    1    4    4    0    0 -0.30246217531E+02  0.38607006524E+01 -0.34885634035E+01  0.30690532076E+02  0.00000000000E+00 0.  1.
</event>
<event>
 8    1  0.1238315E-006  0.9118800E+02  0.7816164E-02  0.1184000E+00
        -11   -1    0    0    0    0  0.00000000000E+00  0.00000000000E+00  0.45593999997E+02  0.45594000000E+02  0.51100000000E-03 0. -1.
         11   -1    0    0    0    0 -0.00000000000E+00 -0.00000000000E+00 -0.45593999997E+02  0.45594000000E+02  0.51100000000E-03 0.  1.
         23    2    1    2    0    0 -0.17763568394E-14 -0.17763568394E-14 -0.35527136788E-14  0.91188000000E+02  0.91188000000E+02 0.  0.
    9900012    2    3    3    0    0  0.12522820448E+02  0.14569334017E+02 -0.31411684406E+02  0.54367076018E+02  0.39999981398E+02 0.  0.
         12    1    3    3    0    0 -0.12522820448E+02 -0.14569334017E+02  0.31411684406E+02  0.36820923982E+02  0.00000000000E+00 0. -1.
         11    1    4    4    0    0 -0.46134134421E+01  0.19735526263E+02 -0.39573368987E+01  0.20650304987E+02  0.51100000000E-03 0. -1.
        -11    1    4    4    0    0  0.11402650882E+02  0.43108951745E+00 -0.14048239477E+02  0.18098599890E+02  0.51100000000E-03 0.  1.
         12    1    4    4    0    0  0.57335830077E+01 -0.55972817639E+01 -0.13406108030E+02  0.15618171140E+02  0.00000000000E+00 0. -1.
</event>
<event>
 8    1  0.1238315E-006  0.9118800E+02  0.7816164E-02  0.1184000E+00
        -11   -1    0    0    0    0  0.00000000000E+00  0.00000000000E+00  0.45593999997E+02  0.45594000000E+02  0.51100000000E-03 0. -1.
         11   -1    0    0    0    0 -0.00000000000E+00 -0.00000000000E+00 -0.45593999997E+02  0.45594000000E+02  0.51100000000E-03 0.  1.
         23    2    1    2    0    0  0.00000000000E+00  0.00000000000E+00  0.00000000000E+00  0.91188000000E+02  0.91188000000E+02 0.  0.
    9900012    2    3    3    0    0 -0.35479305920E+02 -0.61364623945E+01 -0.77034135588E+01  0.54367083393E+02  0.39999998212E+02 0.  0.
        -12    1    3    3    0    0  0.35479305920E+02  0.61364623945E+01  0.77034135588E+01  0.36820916607E+02  0.00000000000E+00 0.  1.
         11    1    4    4    0    0 -0.14875559928E+02 -0.67000456343E+01 -0.10313289414E+02  0.19301213264E+02  0.51100000000E-03 0. -1.
        -11    1    4    4    0    0 -0.32616824303E+01  0.53292040064E+01 -0.10905573845E+02  0.12568632733E+02  0.51100000000E-03 0.  1.
         12    1    4    4    0    0 -0.17342063562E+02 -0.47656207666E+01  0.13515449700E+02  0.22497237397E+02  0.00000000000E+00 0. -1.
</event>
<event>
 8    1  0.1238315E-006  0.9118800E+02  0.7816164E-02  0.1184000E+00
        -11   -1    0    0    0    0  0.00000000000E+00  0.00000000000E+00  0.45593999997E+02  0.45594000000E+02  0.51100000000E-03 0.  1.
         11   -1    0    0    0    0 -0.00000000000E+00 -0.00000000000E+00 -0.45593999997E+02  0.45594000000E+02  0.51100000000E-03 0. -1.
         23    2    1    2    0    0  0.00000000000E+00  0.00000000000E+00  0.17763568394E-14  0.91188000000E+02  0.91188000000E+02 0.  0.
    9900012    2    3    3    0    0  0.37630248396E+01  0.33561869661E+02  0.14670401345E+02  0.54367080311E+02  0.39999991186E+02 0.  0.
         12    1    3    3    0    0 -0.37630248396E+01 -0.33561869661E+02 -0.14670401345E+02  0.36820919689E+02  0.00000000000E+00 0. -1.
         11    1    4    4    0    0 -0.40030995840E+01 -0.33515734451E+01 -0.39813592749E+01  0.65657499780E+01  0.51100000000E-03 0. -1.
        -11    1    4    4    0    0 -0.88340779488E+00  0.27464494359E+02  0.30999778750E+01  0.27653005674E+02  0.51100000000E-03 0.  1.
         12    1    4    4    0    0  0.86495322185E+01  0.94489487469E+01  0.15551782745E+02  0.20148324659E+02  0.00000000000E+00 0. -1.
</event>
<event>
 8    1  0.1238315E-006  0.9118800E+02  0.7816164E-02  0.1184000E+00
        -11   -1    0    0    0    0  0.00000000000E+00  0.00000000000E+00  0.45593999997E+02  0.45594000000E+02  0.51100000000E-03 0.  1.
         11   -1    0    0    0    0 -0.00000000000E+00 -0.00000000000E+00 -0.45593999997E+02  0.45594000000E+02  0.51100000000E-03 0. -1.
         23    2    1    2    0    0 -0.35527136788E-14  0.00000000000E+00 -0.17763568394E-14  0.91188000000E+02  0.91188000000E+02 0.  0.
    9900012    2    3    3    0    0  0.25143515200E+02  0.26487868414E+02 -0.46878354045E+01  0.54367091123E+02  0.40000015834E+02 0.  0.
         12    1    3    3    0    0 -0.25143515200E+02 -0.26487868414E+02  0.46878354045E+01  0.36820908877E+02  0.00000000000E+00 0. -1.
         11    1    4    4    0    0  0.50296866164E+01  0.31207126361E+01 -0.65907890049E+01  0.88586169792E+01  0.51100000000E-03 0. -1.
        -11    1    4    4    0    0  0.26311692070E+02  0.10049586922E+02  0.84795093762E+01  0.29414306322E+02  0.51100000000E-03 0.  1.
        -12    1    4    4    0    0 -0.61978634862E+01  0.13317568856E+02 -0.65765557758E+01  0.16094167822E+02  0.00000000000E+00 0.  1.
</event>
<event>
 8    1  0.1238315E-006  0.9118800E+02  0.7816164E-02  0.1184000E+00
        -11   -1    0    0    0    0  0.00000000000E+00  0.00000000000E+00  0.45593999997E+02  0.45594000000E+02  0.51100000000E-03 0.  1.
         11   -1    0    0    0    0 -0.00000000000E+00 -0.00000000000E+00 -0.45593999997E+02  0.45594000000E+02  0.51100000000E-03 0. -1.
         23    2    1    2    0    0  0.17763568394E-14  0.35527136788E-14 -0.35527136788E-14  0.91188000000E+02  0.91188000000E+02 0.  0.
    9900012    2    3    3    0    0 -0.10377898587E+02 -0.19083535831E+02  0.29730374007E+02  0.54367119273E+02  0.40000080007E+02 0.  0.
         12    1    3    3    0    0  0.10377898587E+02  0.19083535831E+02 -0.29730374007E+02  0.36820880727E+02  0.00000000000E+00 0. -1.
         11    1    4    4    0    0  0.49310395031E+01 -0.80897407082E+00 -0.13395415806E+01  0.51733897529E+01  0.51100000000E-03 0. -1.
        -11    1    4    4    0    0  0.63059647772E+01 -0.24231680397E+01 -0.15926933577E+01  0.69407209649E+01  0.51100000000E-03 0.  1.
        -12    1    4    4    0    0 -0.21614902868E+02 -0.15851393720E+02  0.32662608945E+02  0.42253008555E+02  0.00000000000E+00 0.  1.
</event>
<event>
 8    1  0.1238315E-006  0.9118800E+02  0.7816164E-02  0.1184000E+00
        -11   -1    0    0    0    0  0.00000000000E+00  0.00000000000E+00  0.45593999997E+02  0.45594000000E+02  0.51100000000E-03 0. -1.
         11   -1    0    0    0    0 -0.00000000000E+00 -0.00000000000E+00 -0.45593999997E+02  0.45594000000E+02  0.51100000000E-03 0.  1.
         23    2    1    2    0    0  0.17763568394E-14  0.00000000000E+00  0.00000000000E+00  0.91188000000E+02  0.91188000000E+02 0.  0.
    9900012    2    3    3    0    0  0.88248600720E+01 -0.33880882960E+02 -0.11401387326E+02  0.54367027465E+02  0.39999870713E+02 0.  0.
         12    1    3    3    0    0 -0.88248600720E+01  0.33880882960E+02  0.11401387326E+02  0.36820972535E+02  0.00000000000E+00 0. -1.
         11    1    4    4    0    0  0.11180289461E+02 -0.32517391700E+01 -0.14038695120E+02  0.18238904599E+02  0.51100000000E-03 0. -1.
        -11    1    4    4    0    0 -0.10105211340E+01  0.25667925124E+01 -0.30279357320E+00  0.27751145874E+01  0.51100000000E-03 0.  1.
        -12    1    4    4    0    0 -0.13449082548E+01 -0.33195936302E+02  0.29401013665E+01  0.33353008279E+02  0.00000000000E+00 0.  1.
</event>
<event>
 8    1  0.1238315E-006  0.9118800E+02  0.7816164E-02  0.1184000E+00
        -11   -1    0    0    0    0  0.00000000000E+00  0.00000000000E+00  0.45593999997E+02  0.45594000000E+02  0.51100000000E-03 0. -1.
         11   -1    0    0    0    0 -0.00000000000E+00 -0.00000000000E+00 -0.45593999997E+02  0.45594000000E+02  0.51100000000E-03 0.  1.
         23    2    1    2    0    0  0.00000000000E+00  0.00000000000E+00  0.35527136788E-14  0.91188000000E+02  0.91188000000E+02 0.  0.
    9900012    2    3    3    0    0  0.65932522988E+01 -0.25692774704E+02  0.25538012384E+02  0.54367085775E+02  0.40000003640E+02 0.  0.
        -12    1    3    3    0    0 -0.65932522988E+01  0.25692774704E+02 -0.25538012384E+02  0.36820914225E+02  0.00000000000E+00 0.  1.
         11    1    4    4    0    0  0.31344647521E+01 -0.22353490823E+02  0.54993456772E+01  0.23232439054E+02  0.51100000000E-03 0. -1.
        -11    1    4    4    0    0 -0.45321868495E+01  0.60369615511E+01 -0.73561677210E-01  0.75492406234E+01  0.51100000000E-03 0.  1.
         12    1    4    4    0    0  0.79909743962E+01 -0.93762454327E+01  0.20112228384E+02  0.23585406097E+02  0.00000000000E+00 0. -1.
</event>
<event>
 8    1  0.1238315E-006  0.9118800E+02  0.7816164E-02  0.1184000E+00
        -11   -1    0    0    0    0  0.00000000000E+00  0.00000000000E+00  0.45593999997E+02  0.45594000000E+02  0.51100000000E-03 0.  1.
         11   -1    0    0    0    0 -0.00000000000E+00 -0.00000000000E+00 -0.45593999997E+02  0.45594000000E+02  0.51100000000E-03 0. -1.
         23    2    1    2    0    0  0.00000000000E+00  0.35527136788E-14  0.00000000000E+00  0.91188000000E+02  0.91188000000E+02 0.  0.
    9900012    2    3    3    0    0 -0.14916760713E+02  0.14760228891E+02 -0.30255675413E+02  0.54367082008E+02  0.39999995054E+02 0.  0.
        -12    1    3    3    0    0  0.14916760713E+02 -0.14760228891E+02  0.30255675413E+02  0.36820917992E+02  0.00000000000E+00 0.  1.
         11    1    4    4    0    0 -0.98581546954E+01  0.70915363108E+01 -0.14121348026E+02  0.18624864337E+02  0.51100000000E-03 0. -1.
        -11    1    4    4    0    0 -0.80869428402E+00  0.19148116649E+02 -0.12829846413E+02  0.23063159300E+02  0.51100000000E-03 0.  1.
        -12    1    4    4    0    0 -0.42499117332E+01 -0.11479424068E+02 -0.33044809737E+01  0.12679058371E+02  0.00000000000E+00 0.  1.
</event>
<event>
 8    1  0.1238315E-006  0.9118800E+02  0.7816164E-02  0.1184000E+00
        -11   -1    0    0    0    0  0.00000000000E+00  0.00000000000E+00  0.45593999997E+02  0.45594000000E+02  0.51100000000E-03 0. -1.
         11   -1    0    0    0    0 -0.00000000000E+00 -0.00000000000E+00 -0.45593999997E+02  0.45594000000E+02  0.51100000000E-03 0.  1.
         23    2    1    2    0    0  0.17763568394E-14  0.00000000000E+00  0.00000000000E+00  0.91188000000E+02  0.91188000000E+02 0.  0.
    9900012    2    3    3    0    0 -0.89968905861E+01 -0.81177646882E+01 -0.34769779496E+02  0.54367085971E+02  0.40000004088E+02 0.  0.
         12    1    3    3    0    0  0.89968905861E+01  0.81177646882E+01  0.34769779496E+02  0.36820914029E+02  0.00000000000E+00 0. -1.
         11    1    4    4    0    0  0.46193205622E+01  0.12080288597E+02 -0.75566894857E+01  0.14979153891E+02  0.51100000000E-03 0. -1.
        -11    1    4    4    0    0 -0.71317491278E+00 -0.92187953075E+01 -0.17670125014E+02  0.19943122214E+02  0.51100000000E-03 0.  1.
        -12    1    4    4    0    0 -0.12903036235E+02 -0.10979257977E+02 -0.95429649964E+01  0.19444809867E+02  0.00000000000E+00 0.  1.
</event>
<event>
 8    1  0.1238315E-006  0.9118800E+02  0.7816164E-02  0.1184000E+00
        -11   -1    0    0    0    0  0.00000000000E+00  0.00000000000E+00  0.45593999997E+02  0.45594000000E+02  0.51100000000E-03 0. -1.
         11   -1    0    0    0    0 -0.00000000000E+00 -0.00000000000E+00 -0.45593999997E+02  0.45594000000E+02  0.51100000000E-03 0.  1.
         23    2    1    2    0    0  0.00000000000E+00  0.00000000000E+00 -0.88817841970E-15  0.91188000000E+02  0.91188000000E+02 0.  0.
    9900012    2    3    3    0    0  0.17791887999E+02  0.32208965649E+02  0.13457835609E+01  0.54367083660E+02  0.39999998819E+02 0.  0.
        -12    1    3    3    0    0 -0.17791887999E+02 -0.32208965649E+02 -0.13457835609E+01  0.36820916340E+02  0.00000000000E+00 0.  1.
         11    1    4    4    0    0  0.90712362468E+01  0.85099733084E+01  0.78558502972E+01  0.14711266326E+02  0.51100000000E-03 0. -1.
        -11    1    4    4    0    0 -0.99827132356E+01  0.14029329602E+02  0.11345930295E+01  0.17255838265E+02  0.51100000000E-03 0.  1.
         12    1    4    4    0    0  0.18703364988E+02  0.96696627384E+01 -0.76446597658E+01  0.22399979069E+02  0.00000000000E+00 0. -1.
</event>
<event>
 8    1  0.1238315E-006  0.9118800E+02  0.7816164E-02  0.1184000E+00
        -11   -1    0    0    0    0  0.00000000000E+00  0.00000000000E+00  0.45593999997E+02  0.45594000000E+02  0.51100000000E-03 0.  1.
         11   -1    0    0    0    0 -0.00000000000E+00 -0.00000000000E+00 -0.45593999997E+02  0.45594000000E+02  0.51100000000E-03 0. -1.
         23    2    1    2    0    0  0.00000000000E+00  0.00000000000E+00  0.71054273576E-14  0.91188000000E+02  0.91188000000E+02 0.  0.
    9900012    2    3    3    0    0 -0.16966565842E+01  0.10865932827E+02  0.35140193344E+02  0.54367077578E+02  0.39999984955E+02 0.  0.
         12    1    3    3    0    0  0.16966565842E+01 -0.10865932827E+02 -0.35140193344E+02  0.36820922422E+02  0.00000000000E+00 0. -1.
         11    1    4    4    0    0 -0.13443307100E+01  0.24781432860E+02  0.13120698122E+02  0.28072751186E+02  0.51100000000E-03 0. -1.
        -11    1    4    4    0    0 -0.38457944474E+00 -0.14012876355E+01  0.79800824984E+00  0.16578075325E+01  0.51100000000E-03 0.  1.
        -12    1    4    4    0    0  0.32253570555E-01 -0.12514212398E+02  0.21221486972E+02  0.24636518860E+02  0.00000000000E+00 0.  1.
</event>
<event>
 8    1  0.1238315E-006  0.9118800E+02  0.7816164E-02  0.1184000E+00
        -11   -1    0    0    0    0  0.00000000000E+00  0.00000000000E+00  0.45593999997E+02  0.45594000000E+02  0.51100000000E-03 0. -1.
         11   -1    0    0    0    0 -0.00000000000E+00 -0.00000000000E+00 -0.45593999997E+02  0.45594000000E+02  0.51100000000E-03 0.  1.
         23    2    1    2    0    0  0.17763568394E-14  0.00000000000E+00 -0.35527136788E-14  0.91188000000E+02  0.91188000000E+02 0.  0.
    9900012    2    3    3    0    0 -0.12865942974E+02  0.28383032299E+02  0.19612513385E+02  0.54367086210E+02  0.40000004632E+02 0.  0.
        -12    1    3    3    0    0  0.12865942974E+02 -0.28383032299E+02 -0.19612513385E+02  0.36820913790E+02  0.00000000000E+00 0.  1.
         11    1    4    4    0    0  0.70393776441E+01  0.13784309569E+02  0.86971588549E+01  0.17753889723E+02  0.51100000000E-03 0. -1.
        -11    1    4    4    0    0 -0.21537514827E+02  0.19157712057E+02  0.54936751423E+01  0.29343874028E+02  0.51100000000E-03 0.  1.
         12    1    4    4    0    0  0.16321942087E+01 -0.45589893268E+01  0.54216793875E+01  0.72693224580E+01  0.00000000000E+00 0. -1.
</event>
<event>
 8    1  0.1238315E-006  0.9118800E+02  0.7816164E-02  0.1184000E+00
        -11   -1    0    0    0    0  0.00000000000E+00  0.00000000000E+00  0.45593999997E+02  0.45594000000E+02  0.51100000000E-03 0. -1.
         11   -1    0    0    0    0 -0.00000000000E+00 -0.00000000000E+00 -0.45593999997E+02  0.45594000000E+02  0.51100000000E-03 0.  1.
         23    2    1    2    0    0  0.35527136788E-14  0.17763568394E-14  0.00000000000E+00  0.91188000000E+02  0.91188000000E+02 0.  0.
    9900012    2    3    3    0    0 -0.26452058984E+02 -0.11558546470E+02  0.22857586401E+02  0.54367072838E+02  0.39999974149E+02 0.  0.
        -12    1    3    3    0    0  0.26452058984E+02  0.11558546470E+02 -0.22857586401E+02  0.36820927162E+02  0.00000000000E+00 0.  1.
         11    1    4    4    0    0 -0.27464224500E+02 -0.22376011524E+02  0.10716554709E+02  0.37010999233E+02  0.51100000000E-03 0. -1.
        -11    1    4    4    0    0  0.26680926065E+01  0.63856754152E+01  0.41500649415E+01  0.80696101482E+01  0.51100000000E-03 0.  1.
         12    1    4    4    0    0 -0.16559270905E+01  0.44317896388E+01  0.79909667503E+01  0.92864634569E+01  0.00000000000E+00 0. -1.
</event>
<event>
 8    1  0.1238315E-006  0.9118800E+02  0.7816164E-02  0.1184000E+00
        -11   -1    0    0    0    0  0.00000000000E+00  0.00000000000E+00  0.45593999997E+02  0.45594000000E+02  0.51100000000E-03 0.  1.
         11   -1    0    0    0    0 -0.00000000000E+00 -0.00000000000E+00 -0.45593999997E+02  0.45594000000E+02  0.51100000000E-03 0. -1.
         23    2    1    2    0    0  0.17763568394E-14 -0.71054273576E-14  0.11102230246E-15  0.91188000000E+02  0.91188000000E+02 0.  0.
    9900012    2    3    3    0    0 -0.13446000929E+02  0.34272962482E+02 -0.59084286923E+00  0.54367082120E+02  0.39999995308E+02 0.  0.
        -12    1    3    3    0    0  0.13446000929E+02 -0.34272962482E+02  0.59084286923E+00  0.36820917880E+02  0.00000000000E+00 0.  1.
         11    1    4    4    0    0 -0.14735652759E+02 -0.24414313532E+01 -0.15014512297E+01  0.15011808863E+02  0.51100000000E-03 0. -1.
        -11    1    4    4    0    0  0.39663278978E+01  0.51008122877E+01 -0.34590887041E+01  0.73290748332E+01  0.51100000000E-03 0.  1.
         12    1    4    4    0    0 -0.26766760677E+01  0.31613581547E+02  0.43696970646E+01  0.32026198424E+02  0.00000000000E+00 0. -1.
</event>
<event>
 8    1  0.1238315E-006  0.9118800E+02  0.7816164E-02  0.1184000E+00
        -11   -1    0    0    0    0  0.00000000000E+00  0.00000000000E+00  0.45593999997E+02  0.45594000000E+02  0.51100000000E-03 0.  1.
         11   -1    0    0    0    0 -0.00000000000E+00 -0.00000000000E+00 -0.45593999997E+02  0.45594000000E+02  0.51100000000E-03 0. -1.
         23    2    1    2    0    0  0.17763568394E-14  0.00000000000E+00  0.00000000000E+00  0.91188000000E+02  0.91188000000E+02 0.  0.
    9900012    2    3    3    0    0 -0.15322855965E+02 -0.27775902117E+02  0.18694556096E+02  0.54367121671E+02  0.40000085473E+02 0.  0.
        -12    1    3    3    0    0  0.15322855965E+02  0.27775902117E+02 -0.18694556096E+02  0.36820878329E+02  0.00000000000E+00 0.  1.
         11    1    4    4    0    0 -0.18793104335E+02 -0.17967074401E+02 -0.94856404019E+00  0.26017230965E+02  0.51100000000E-03 0. -1.
        -11    1    4    4    0    0  0.33026498455E+01 -0.14743531671E+02  0.12207812282E+02  0.19424466610E+02  0.51100000000E-03 0.  1.
        -12    1    4    4    0    0  0.16759852420E+00  0.49347039555E+01  0.74353078540E+01  0.89254240951E+01  0.00000000000E+00 0.  1.
</event>
<event>
 8    1  0.1238315E-006  0.9118800E+02  0.7816164E-02  0.1184000E+00
        -11   -1    0    0    0    0  0.00000000000E+00  0.00000000000E+00  0.45593999997E+02  0.45594000000E+02  0.51100000000E-03 0. -1.
         11   -1    0    0    0    0 -0.00000000000E+00 -0.00000000000E+00 -0.45593999997E+02  0.45594000000E+02  0.51100000000E-03 0.  1.
         23    2    1    2    0    0  0.11102230246E-14  0.00000000000E+00  0.00000000000E+00  0.91188000000E+02  0.91188000000E+02 0.  0.
    9900012    2    3    3    0    0  0.17343170759E+01 -0.11822387522E+02  0.34828128227E+02  0.54367146965E+02  0.40000143135E+02 0.  0.
        -12    1    3    3    0    0 -0.17343170759E+01  0.11822387522E+02 -0.34828128227E+02  0.36820853035E+02  0.00000000000E+00 0.  1.
         11    1    4    4    0    0  0.57114015047E+01 -0.12329763252E+01  0.12058720512E+02  0.13399741729E+02  0.51100000000E-03 0. -1.
        -11    1    4    4    0    0  0.43145858820E+01 -0.34404833260E+01  0.28208164156E+02  0.28742879156E+02  0.51100000000E-03 0.  1.
        -12    1    4    4    0    0 -0.82916703108E+01 -0.71489278709E+01 -0.54387564409E+01  0.12224526080E+02  0.00000000000E+00 0.  1.
</event>
<event>
 8    1  0.1238315E-006  0.9118800E+02  0.7816164E-02  0.1184000E+00
        -11   -1    0    0    0    0  0.00000000000E+00  0.00000000000E+00  0.45593999997E+02  0.45594000000E+02  0.51100000000E-03 0.  1.
         11   -1    0    0    0    0 -0.00000000000E+00 -0.00000000000E+00 -0.45593999997E+02  0.45594000000E+02  0.51100000000E-03 0. -1.
         23    2    1    2    0    0 -0.35527136788E-14  0.00000000000E+00  0.17763568394E-14  0.91188000000E+02  0.91188000000E+02 0.  0.
    9900012    2    3    3    0    0 -0.30101091752E+02  0.20665439450E+02  0.47584903028E+01  0.54367090963E+02  0.40000015469E+02 0.  0.
        -12    1    3    3    0    0  0.30101091752E+02 -0.20665439450E+02 -0.47584903028E+01  0.36820909037E+02  0.00000000000E+00 0.  1.
         11    1    4    4    0    0 -0.14714981401E+01  0.84698924311E+01  0.28795023496E+01  0.90661964799E+01  0.51100000000E-03 0. -1.
        -11    1    4    4    0    0 -0.92282272883E+01 -0.96517283979E-01  0.15905506377E+02  0.18388981152E+02  0.51100000000E-03 0.  1.
         12    1    4    4    0    0 -0.19401366324E+02  0.12292064302E+02 -0.14026518423E+02  0.26911913331E+02  0.00000000000E+00 0. -1.
</event>
<event>
 8    1  0.1238315E-006  0.9118800E+02  0.7816164E-02  0.1184000E+00
        -11   -1    0    0    0    0  0.00000000000E+00  0.00000000000E+00  0.45593999997E+02  0.45594000000E+02  0.51100000000E-03 0.  1.
         11   -1    0    0    0    0 -0.00000000000E+00 -0.00000000000E+00 -0.45593999997E+02  0.45594000000E+02  0.51100000000E-03 0. -1.
         23    2    1    2    0    0  0.00000000000E+00 -0.17763568394E-14  0.00000000000E+00  0.91188000000E+02  0.91188000000E+02 0.  0.
    9900012    2    3    3    0    0 -0.44248325542E+01 -0.14219138822E+02 -0.33675164879E+02  0.54367084998E+02  0.40000001870E+02 0.  0.
        -12    1    3    3    0    0  0.44248325542E+01  0.14219138822E+02  0.33675164879E+02  0.36820915002E+02  0.00000000000E+00 0.  1.
         11    1    4    4    0    0 -0.17664569357E+01 -0.13232453148E+02  0.12742177256E+00  0.13350446546E+02  0.51100000000E-03 0. -1.
        -11    1    4    4    0    0 -0.10179382676E+02  0.69231542210E+01 -0.17405580667E+02  0.21319102576E+02  0.51100000000E-03 0.  1.
        -12    1    4    4    0    0  0.75210070573E+01 -0.79098398949E+01 -0.16397005985E+02  0.19697535876E+02  0.00000000000E+00 0.  1.
</event>
<event>
 8    1  0.1238315E-006  0.9118800E+02  0.7816164E-02  0.1184000E+00
        -11   -1    0    0    0    0  0.00000000000E+00  0.00000000000E+00  0.45593999997E+02  0.45594000000E+02  0.51100000000E-03 0.  1.
         11   -1    0    0    0    0 -0.00000000000E+00 -0.00000000000E+00 -0.45593999997E+02  0.45594000000E+02  0.51100000000E-03 0. -1.
         23    2    1    2    0    0  0.17763568394E-14  0.71054273576E-14  0.00000000000E+00  0.91188000000E+02  0.91188000000E+02 0.  0.
    9900012    2    3    3    0    0 -0.80783140479E+01 -0.34022970778E+02  0.11530766673E+02  0.54367078251E+02  0.39999986488E+02 0.  0.
         12    1    3    3    0    0  0.80783140479E+01  0.34022970778E+02 -0.11530766673E+02  0.36820921749E+02  0.00000000000E+00 0. -1.
         11    1    4    4    0    0  0.73611533733E+00 -0.31078012066E+02 -0.49847576350E+01  0.31483845202E+02  0.51100000000E-03 0. -1.
        -11    1    4    4    0    0 -0.36354877942E+01 -0.44527858025E+01  0.25792784710E+00  0.57541810834E+01  0.51100000000E-03 0.  1.
         12    1    4    4    0    0 -0.51789415910E+01  0.15078270907E+01  0.16257596461E+02  0.17129051965E+02  0.00000000000E+00 0. -1.
</event>
<event>
 8    1  0.1238315E-006  0.9118800E+02  0.7816164E-02  0.1184000E+00
        -11   -1    0    0    0    0  0.00000000000E+00  0.00000000000E+00  0.45593999997E+02  0.45594000000E+02  0.51100000000E-03 0.  1.
         11   -1    0    0    0    0 -0.00000000000E+00 -0.00000000000E+00 -0.45593999997E+02  0.45594000000E+02  0.51100000000E-03 0. -1.
         23    2    1    2    0    0 -0.88817841970E-15  0.00000000000E+00  0.00000000000E+00  0.91188000000E+02  0.91188000000E+02 0.  0.
    9900012    2    3    3    0    0 -0.74800335752E+01 -0.31461774126E+02 -0.17606431173E+02  0.54367074535E+02  0.39999978017E+02 0.  0.
        -12    1    3    3    0    0  0.74800335752E+01  0.31461774126E+02  0.17606431173E+02  0.36820925465E+02  0.00000000000E+00 0.  1.
         11    1    4    4    0    0  0.56729438691E+01 -0.12444623343E+02 -0.88460662353E+01  0.16288149999E+02  0.51100000000E-03 0. -1.
        -11    1    4    4    0    0 -0.34689433180E+01 -0.23597626747E+02  0.59148912983E+00  0.23858571111E+02  0.51100000000E-03 0.  1.
        -12    1    4    4    0    0 -0.96840341262E+01  0.45804759634E+01 -0.93518540678E+01  0.14220353424E+02  0.00000000000E+00 0.  1.
</event>
<event>
 8    1  0.1238315E-006  0.9118800E+02  0.7816164E-02  0.1184000E+00
        -11   -1    0    0    0    0  0.00000000000E+00  0.00000000000E+00  0.45593999997E+02  0.45594000000E+02  0.51100000000E-03 0.  1.
         11   -1    0    0    0    0 -0.00000000000E+00 -0.00000000000E+00 -0.45593999997E+02  0.45594000000E+02  0.51100000000E-03 0. -1.
         23    2    1    2    0    0 -0.35527136788E-14  0.88817841970E-15 -0.35527136788E-14  0.91188000000E+02  0.91188000000E+02 0.  0.
    9900012    2    3    3    0    0  0.18155421197E+02 -0.40046134724E+01  0.31782454220E+02  0.54367073285E+02  0.39999975168E+02 0.  0.
         12    1    3    3    0    0 -0.18155421197E+02  0.40046134724E+01 -0.31782454220E+02  0.36820926715E+02  0.00000000000E+00 0. -1.
         11    1    4    4    0    0  0.87735432246E+01 -0.17162967344E+01  0.28662243588E+01  0.93880763488E+01  0.51100000000E-03 0. -1.
        -11    1    4    4    0    0 -0.72819629703E+01  0.21995799919E+01  0.26479174070E+02  0.27550168721E+02  0.51100000000E-03 0.  1.
        -12    1    4    4    0    0  0.16663840943E+02 -0.44878967299E+01  0.24370557905E+01  0.17428828215E+02  0.00000000000E+00 0.  1.
</event>
<event>
 8    1  0.1238315E-006  0.9118800E+02  0.7816164E-02  0.1184000E+00
        -11   -1    0    0    0    0  0.00000000000E+00  0.00000000000E+00  0.45593999997E+02  0.45594000000E+02  0.51100000000E-03 0.  1.
         11   -1    0    0    0    0 -0.00000000000E+00 -0.00000000000E+00 -0.45593999997E+02  0.45594000000E+02  0.51100000000E-03 0. -1.
         23    2    1    2    0    0  0.44408920985E-15 -0.88817841970E-15  0.00000000000E+00  0.91188000000E+02  0.91188000000E+02 0.  0.
    9900012    2    3    3    0    0  0.35169272917E+01  0.17561597068E+01  0.36610470551E+02  0.54367089794E+02  0.40000012802E+02 0.  0.
         12    1    3    3    0    0 -0.35169272917E+01 -0.17561597068E+01 -0.36610470551E+02  0.36820910206E+02  0.00000000000E+00 0. -1.
         11    1    4    4    0    0 -0.58872669131E+01 -0.15418995059E+01  0.29495469694E+01  0.67629278703E+01  0.51100000000E-03 0. -1.
        -11    1    4    4    0    0 -0.20965483950E+01 -0.13140235203E+02  0.16552397626E+02  0.21237776809E+02  0.51100000000E-03 0.  1.
         12    1    4    4    0    0  0.11500742600E+02  0.16438294416E+02  0.17108525955E+02  0.26366385115E+02  0.00000000000E+00 0. -1.
</event>
<event>
 8    1  0.1238315E-006  0.9118800E+02  0.7816164E-02  0.1184000E+00
        -11   -1    0    0    0    0  0.00000000000E+00  0.00000000000E+00  0.45593999997E+02  0.45594000000E+02  0.51100000000E-03 0. -1.
         11   -1    0    0    0    0 -0.00000000000E+00 -0.00000000000E+00 -0.45593999997E+02  0.45594000000E+02  0.51100000000E-03 0.  1.
         23    2    1    2    0    0  0.00000000000E+00  0.14432899320E-14  0.71054273576E-14  0.91188000000E+02  0.91188000000E+02 0.  0.
    9900012    2    3    3    0    0 -0.65859983927E+01  0.31217476089E+00  0.36225782327E+02  0.54367080225E+02  0.39999990989E+02 0.  0.
        -12    1    3    3    0    0  0.65859983927E+01 -0.31217476089E+00 -0.36225782327E+02  0.36820919775E+02  0.00000000000E+00 0.  1.
         11    1    4    4    0    0 -0.36956996455E+01 -0.38158843241E+01 -0.21239632013E+01  0.57210478923E+01  0.51100000000E-03 0. -1.
        -11    1    4    4    0    0 -0.12893706419E+01  0.39103726229E+01 -0.43071155751E+01  0.59585850284E+01  0.51100000000E-03 0.  1.
         12    1    4    4    0    0 -0.16009281053E+01  0.21768646205E+00  0.42656861103E+02  0.42687447304E+02  0.00000000000E+00 0. -1.
</event>
<event>
 8    1  0.1238315E-006  0.9118800E+02  0.7816164E-02  0.1184000E+00
        -11   -1    0    0    0    0  0.00000000000E+00  0.00000000000E+00  0.45593999997E+02  0.45594000000E+02  0.51100000000E-03 0. -1.
         11   -1    0    0    0    0 -0.00000000000E+00 -0.00000000000E+00 -0.45593999997E+02  0.45594000000E+02  0.51100000000E-03 0.  1.
         23    2    1    2    0    0  0.88817841970E-15 -0.88817841970E-15  0.00000000000E+00  0.91188000000E+02  0.91188000000E+02 0.  0.
    9900012    2    3    3    0    0  0.75150248851E+01 -0.57832965293E+01 -0.35578816804E+02  0.54367159123E+02  0.40000170851E+02 0.  0.
         12    1    3    3    0    0 -0.75150248851E+01  0.57832965293E+01  0.35578816804E+02  0.36820840877E+02  0.00000000000E+00 0. -1.
         11    1    4    4    0    0  0.16438144257E+01 -0.51714589546E+00 -0.23138617842E+00  0.17387080168E+01  0.51100000000E-03 0. -1.
        -11    1    4    4    0    0 -0.93289698934E+01  0.10544224934E+02 -0.45026606419E+01  0.14781214830E+02  0.51100000000E-03 0.  1.
        -12    1    4    4    0    0  0.15200180353E+02 -0.15810375568E+02 -0.30844769983E+02  0.37847236276E+02  0.00000000000E+00 0.  1.
</event>
<event>
 8    1  0.1238315E-006  0.9118800E+02  0.7816164E-02  0.1184000E+00
        -11   -1    0    0    0    0  0.00000000000E+00  0.00000000000E+00  0.45593999997E+02  0.45594000000E+02  0.51100000000E-03 0.  1.
         11   -1    0    0    0    0 -0.00000000000E+00 -0.00000000000E+00 -0.45593999997E+02  0.45594000000E+02  0.51100000000E-03 0. -1.
         23    2    1    2    0    0  0.00000000000E+00  0.00000000000E+00  0.00000000000E+00  0.91188000000E+02  0.91188000000E+02 0.  0.
    9900012    2    3    3    0    0  0.91962969035E+01  0.29469822906E+02  0.20068326749E+02  0.54367080982E+02  0.39999992714E+02 0.  0.
         12    1    3    3    0    0 -0.91962969035E+01 -0.29469822906E+02 -0.20068326749E+02  0.36820919018E+02  0.00000000000E+00 0. -1.
         11    1    4    4    0    0  0.13572938911E+02  0.31701582652E+01  0.45686658494E+01  0.14667899713E+02  0.51100000000E-03 0. -1.
        -11    1    4    4    0    0 -0.11118624867E+02  0.27234296699E+02  0.10424890240E+02  0.31209118418E+02  0.51100000000E-03 0.  1.
        -12    1    4    4    0    0  0.67419828594E+01 -0.93463205848E+00  0.50747706595E+01  0.84900628506E+01  0.00000000000E+00 0.  1.
</event>
<event>
 8    1  0.1238315E-006  0.9118800E+02  0.7816164E-02  0.1184000E+00
        -11   -1    0    0    0    0  0.00000000000E+00  0.00000000000E+00  0.45593999997E+02  0.45594000000E+02  0.51100000000E-03 0. -1.
         11   -1    0    0    0    0 -0.00000000000E+00 -0.00000000000E+00 -0.45593999997E+02  0.45594000000E+02  0.51100000000E-03 0.  1.
         23    2    1    2    0    0 -0.35527136788E-14  0.00000000000E+00  0.00000000000E+00  0.91188000000E+02  0.91188000000E+02 0.  0.
    9900012    2    3    3    0    0 -0.24447741724E+02  0.11617253189E+02 -0.24962524850E+02  0.54367078040E+02  0.39999986009E+02 0.  0.
         12    1    3    3    0    0  0.24447741724E+02 -0.11617253189E+02  0.24962524850E+02  0.36820921960E+02  0.00000000000E+00 0. -1.
         11    1    4    4    0    0  0.91012177018E+00 -0.11631491665E+02 -0.96771464054E+01  0.15158069891E+02  0.51100000000E-03 0. -1.
        -11    1    4    4    0    0  0.32299903246E+00  0.36888358765E+00 -0.24481394819E+01  0.24967560274E+01  0.51100000000E-03 0.  1.
         12    1    4    4    0    0 -0.25680862527E+02  0.22879861267E+02 -0.12837238963E+02  0.36712252122E+02  0.00000000000E+00 0. -1.
</event>
<event>
 8    1  0.1238315E-006  0.9118800E+02  0.7816164E-02  0.1184000E+00
        -11   -1    0    0    0    0  0.00000000000E+00  0.00000000000E+00  0.45593999997E+02  0.45594000000E+02  0.51100000000E-03 0.  1.
         11   -1    0    0    0    0 -0.00000000000E+00 -0.00000000000E+00 -0.45593999997E+02  0.45594000000E+02  0.51100000000E-03 0. -1.
         23    2    1    2    0    0  0.00000000000E+00  0.11102230246E-15  0.44408920985E-15  0.91188000000E+02  0.91188000000E+02 0.  0.
    9900012    2    3    3    0    0  0.36713556494E+02  0.42969063586E+00 -0.27766131624E+01  0.54367089567E+02  0.40000012285E+02 0.  0.
         12    1    3    3    0    0 -0.36713556494E+02 -0.42969063586E+00  0.27766131624E+01  0.36820910433E+02  0.00000000000E+00 0. -1.
         11    1    4    4    0    0  0.79830412367E+01 -0.16781269647E+01 -0.66246567938E+01  0.10508621955E+02  0.51100000000E-03 0. -1.
        -11    1    4    4    0    0  0.27842899006E+02 -0.40547851191E+01 -0.90334619047E+01  0.29551171579E+02  0.51100000000E-03 0.  1.
        -12    1    4    4    0    0  0.88761625127E+00  0.61626027197E+01  0.12881505536E+02  0.14307296033E+02  0.00000000000E+00 0.  1.
</event>
<event>
 8    1  0.1238315E-006  0.9118800E+02  0.7816164E-02  0.1184000E+00
        -11   -1    0    0    0    0  0.00000000000E+00  0.00000000000E+00  0.45593999997E+02  0.45594000000E+02  0.51100000000E-03 0. -1.
         11   -1    0    0    0    0 -0.00000000000E+00 -0.00000000000E+00 -0.45593999997E+02  0.45594000000E+02  0.51100000000E-03 0.  1.
         23    2    1    2    0    0  0.71054273576E-14  0.00000000000E+00  0.00000000000E+00  0.91188000000E+02  0.91188000000E+02 0.  0.
    9900012    2    3    3    0    0  0.32688890768E+02  0.32499734946E+01 -0.16632828308E+02  0.54367124333E+02  0.40000091543E+02 0.  0.
         12    1    3    3    0    0 -0.32688890768E+02 -0.32499734946E+01  0.16632828308E+02  0.36820875667E+02  0.00000000000E+00 0. -1.
         11    1    4    4    0    0 -0.41232757763E+01 -0.68492910340E+01 -0.38652648185E+00  0.80039736242E+01  0.51100000000E-03 0. -1.
        -11    1    4    4    0    0  0.39979453973E+01  0.64354025312E+01 -0.10343856348E+02  0.12821596529E+02  0.51100000000E-03 0.  1.
        -12    1    4    4    0    0  0.32814221147E+02  0.36638619974E+01 -0.59024454778E+01  0.33541554180E+02  0.00000000000E+00 0.  1.
</event>
<event>
 8    1  0.1238315E-006  0.9118800E+02  0.7816164E-02  0.1184000E+00
        -11   -1    0    0    0    0  0.00000000000E+00  0.00000000000E+00  0.45593999997E+02  0.45594000000E+02  0.51100000000E-03 0. -1.
         11   -1    0    0    0    0 -0.00000000000E+00 -0.00000000000E+00 -0.45593999997E+02  0.45594000000E+02  0.51100000000E-03 0.  1.
         23    2    1    2    0    0  0.00000000000E+00  0.88817841970E-15  0.00000000000E+00  0.91188000000E+02  0.91188000000E+02 0.  0.
    9900012    2    3    3    0    0  0.16465077845E+02 -0.72667563347E+01  0.32122836416E+02  0.54367066341E+02  0.39999959338E+02 0.  0.
        -12    1    3    3    0    0 -0.16465077845E+02  0.72667563347E+01 -0.32122836416E+02  0.36820933659E+02  0.00000000000E+00 0.  1.
         11    1    4    4    0    0  0.54874673361E+01 -0.22192105336E+02  0.11026872136E+02  0.25380972132E+02  0.51100000000E-03 0. -1.
        -11    1    4    4    0    0  0.19337379819E+01  0.84225602469E+01  0.10653572471E+02  0.13717779352E+02  0.51100000000E-03 0.  1.
         12    1    4    4    0    0  0.90438725271E+01  0.65027887544E+01  0.10442391810E+02  0.15268314857E+02  0.00000000000E+00 0. -1.
</event>
<event>
 8    1  0.1238315E-006  0.9118800E+02  0.7816164E-02  0.1184000E+00
        -11   -1    0    0    0    0  0.00000000000E+00  0.00000000000E+00  0.45593999997E+02  0.45594000000E+02  0.51100000000E-03 0.  1.
         11   -1    0    0    0    0 -0.00000000000E+00 -0.00000000000E+00 -0.45593999997E+02  0.45594000000E+02  0.51100000000E-03 0. -1.
         23    2    1    2    0    0  0.00000000000E+00  0.44408920985E-15  0.00000000000E+00  0.91188000000E+02  0.91188000000E+02 0.  0.
    9900012    2    3    3    0    0  0.12438282770E+02 -0.20694254249E+01 -0.34594592933E+02  0.54367092080E+02  0.40000018014E+02 0.  0.
        -12    1    3    3    0    0 -0.12438282770E+02  0.20694254249E+01  0.34594592933E+02  0.36820907920E+02  0.00000000000E+00 0.  1.
         11    1    4    4    0    0  0.12578610612E+02 -0.49228171693E+00 -0.20599796669E+02  0.24141570150E+02  0.51100000000E-03 0. -1.
        -11    1    4    4    0    0 -0.47633277479E+01 -0.13069182751E+02 -0.10269791513E+02  0.17290501641E+02  0.51100000000E-03 0.  1.
        -12    1    4    4    0    0  0.46229999057E+01  0.11492039043E+02 -0.37250047509E+01  0.12935020289E+02  0.00000000000E+00 0.  1.
</event>
<event>
 8    1  0.1238315E-006  0.9118800E+02  0.7816164E-02  0.1184000E+00
        -11   -1    0    0    0    0  0.00000000000E+00  0.00000000000E+00  0.45593999997E+02  0.45594000000E+02  0.51100000000E-03 0. -1.
         11   -1    0    0    0    0 -0.00000000000E+00 -0.00000000000E+00 -0.45593999997E+02  0.45594000000E+02  0.51100000000E-03 0.  1.
         23    2    1    2    0    0 -0.35527136788E-14  0.00000000000E+00  0.00000000000E+00  0.91188000000E+02  0.91188000000E+02 0.  0.
    9900012    2    3    3    0    0  0.27010618487E+02  0.21862921488E+02 -0.12174492258E+02  0.54367094134E+02  0.40000022698E+02 0.  0.
         12    1    3    3    0    0 -0.27010618487E+02 -0.21862921488E+02  0.12174492258E+02  0.36820905866E+02  0.00000000000E+00 0. -1.
         11    1    4    4    0    0  0.18295178788E+02  0.53621980035E+01 -0.10313990076E+02  0.21675911189E+02  0.51100000000E-03 0. -1.
        -11    1    4    4    0    0 -0.27252456123E+01  0.25498489919E+01 -0.11601797565E+02  0.12187304892E+02  0.51100000000E-03 0.  1.
        -12    1    4    4    0    0  0.11440685311E+02  0.13950874493E+02  0.97412953829E+01  0.20503878053E+02  0.00000000000E+00 0.  1.
</event>
<event>
 8    1  0.1238315E-006  0.9118800E+02  0.7816164E-02  0.1184000E+00
        -11   -1    0    0    0    0  0.00000000000E+00  0.00000000000E+00  0.45593999997E+02  0.45594000000E+02  0.51100000000E-03 0. -1.
         11   -1    0    0    0    0 -0.00000000000E+00 -0.00000000000E+00 -0.45593999997E+02  0.45594000000E+02  0.51100000000E-03 0.  1.
         23    2    1    2    0    0  0.00000000000E+00  0.11102230246E-14 -0.22204460493E-15  0.91188000000E+02  0.91188000000E+02 0.  0.
    9900012    2    3    3    0    0 -0.36768249349E+02 -0.15027961426E+01 -0.12715359290E+01  0.54367090723E+02  0.40000014920E+02 0.  0.
        -12    1    3    3    0    0  0.36768249349E+02  0.15027961426E+01  0.12715359290E+01  0.36820909277E+02  0.00000000000E+00 0.  1.
         11    1    4    4    0    0 -0.11217004999E+02  0.98015299398E+01  0.15163160311E+02  0.21255884390E+02  0.51100000000E-03 0. -1.
        -11    1    4    4    0    0 -0.12693677924E+02 -0.73157164966E+01 -0.51010181515E+01  0.15513528081E+02  0.51100000000E-03 0.  1.
         12    1    4    4    0    0 -0.12857566426E+02 -0.39886095858E+01 -0.11333678089E+02  0.17597678251E+02  0.00000000000E+00 0. -1.
</event>
<event>
 8    1  0.1238315E-006  0.9118800E+02  0.7816164E-02  0.1184000E+00
        -11   -1    0    0    0    0  0.00000000000E+00  0.00000000000E+00  0.45593999997E+02  0.45594000000E+02  0.51100000000E-03 0.  1.
         11   -1    0    0    0    0 -0.00000000000E+00 -0.00000000000E+00 -0.45593999997E+02  0.45594000000E+02  0.51100000000E-03 0. -1.
         23    2    1    2    0    0  0.00000000000E+00 -0.44408920985E-15  0.00000000000E+00  0.91188000000E+02  0.91188000000E+02 0.  0.
    9900012    2    3    3    0    0  0.33887856173E+02  0.25691869173E+01  0.14170120996E+02  0.54367084117E+02  0.39999999861E+02 0.  0.
         12    1    3    3    0    0 -0.33887856173E+02 -0.25691869173E+01 -0.14170120996E+02  0.36820915883E+02  0.00000000000E+00 0. -1.
         11    1    4    4    0    0  0.87938747358E+01  0.67764223177E+01  0.32508089977E+01  0.11568054793E+02  0.51100000000E-03 0. -1.
        -11    1    4    4    0    0  0.31780103866E+02  0.22740136695E+01  0.10222600547E+02  0.33461137191E+02  0.51100000000E-03 0.  1.
        -12    1    4    4    0    0 -0.66861224284E+01 -0.64812490699E+01  0.69671145119E+00  0.93378921325E+01  0.00000000000E+00 0.  1.
</event>
<event>
 8    1  0.1238315E-006  0.9118800E+02  0.7816164E-02  0.1184000E+00
        -11   -1    0    0    0    0  0.00000000000E+00  0.00000000000E+00  0.45593999997E+02  0.45594000000E+02  0.51100000000E-03 0.  1.
         11   -1    0    0    0    0 -0.00000000000E+00 -0.00000000000E+00 -0.45593999997E+02  0.45594000000E+02  0.51100000000E-03 0. -1.
         23    2    1    2    0    0  0.17763568394E-14 -0.35527136788E-14  0.00000000000E+00  0.91188000000E+02  0.91188000000E+02 0.  0.
    9900012    2    3    3    0    0  0.10352668140E+02 -0.31189225986E+02 -0.16608248856E+02  0.54367089021E+02  0.40000011042E+02 0.  0.
        -12    1    3    3    0    0 -0.10352668140E+02  0.31189225986E+02  0.16608248856E+02  0.36820910979E+02  0.00000000000E+00 0.  1.
         11    1    4    4    0    0 -0.81315755167E+01 -0.11382422339E+02 -0.63741641338E+00  0.14003155310E+02  0.51100000000E-03 0. -1.
        -11    1    4    4    0    0  0.64502840404E+01  0.53795541496E+01 -0.73179928070E+01  0.11139963467E+02  0.51100000000E-03 0.  1.
        -12    1    4    4    0    0  0.12033959616E+02 -0.25186357797E+02 -0.86528396357E+01  0.29223970245E+02  0.00000000000E+00 0.  1.
</event>
<event>
 8    1  0.1238315E-006  0.9118800E+02  0.7816164E-02  0.1184000E+00
        -11   -1    0    0    0    0  0.00000000000E+00  0.00000000000E+00  0.45593999997E+02  0.45594000000E+02  0.51100000000E-03 0. -1.
         11   -1    0    0    0    0 -0.00000000000E+00 -0.00000000000E+00 -0.45593999997E+02  0.45594000000E+02  0.51100000000E-03 0.  1.
         23    2    1    2    0    0  0.00000000000E+00  0.00000000000E+00  0.00000000000E+00  0.91188000000E+02  0.91188000000E+02 0.  0.
    9900012    2    3    3    0    0  0.30215525797E+02 -0.19478298438E+02 -0.79621544704E+01  0.54367109013E+02  0.40000056617E+02 0.  0.
         12    1    3    3    0    0 -0.30215525797E+02  0.19478298438E+02  0.79621544704E+01  0.36820890987E+02  0.00000000000E+00 0. -1.
         11    1    4    4    0    0  0.17986439191E+02 -0.19679653868E+02  0.81305687637E+01  0.27873050063E+02  0.51100000000E-03 0. -1.
        -11    1    4    4    0    0 -0.11074901323E+01  0.42573733242E+01  0.92566297870E+00  0.44953992287E+01  0.51100000000E-03 0.  1.
        -12    1    4    4    0    0  0.13336576739E+02 -0.40560178948E+01 -0.17018386213E+02  0.21998659722E+02  0.00000000000E+00 0.  1.
</event>
<event>
 8    1  0.1238315E-006  0.9118800E+02  0.7816164E-02  0.1184000E+00
        -11   -1    0    0    0    0  0.00000000000E+00  0.00000000000E+00  0.45593999997E+02  0.45594000000E+02  0.51100000000E-03 0.  1.
         11   -1    0    0    0    0 -0.00000000000E+00 -0.00000000000E+00 -0.45593999997E+02  0.45594000000E+02  0.51100000000E-03 0. -1.
         23    2    1    2    0    0  0.00000000000E+00  0.00000000000E+00  0.00000000000E+00  0.91188000000E+02  0.91188000000E+02 0.  0.
    9900012    2    3    3    0    0  0.32735019134E+02 -0.80327506911E+01  0.14821420431E+02  0.54367067571E+02  0.39999962142E+02 0.  0.
         12    1    3    3    0    0 -0.32735019134E+02  0.80327506911E+01 -0.14821420431E+02  0.36820932429E+02  0.00000000000E+00 0. -1.
         11    1    4    4    0    0  0.55241993478E+01 -0.14234067079E+02  0.75881705969E+01  0.17050096108E+02  0.51100000000E-03 0. -1.
        -11    1    4    4    0    0  0.96945410822E+01 -0.45535004715E+01 -0.65631944812E+01  0.12561608790E+02  0.51100000000E-03 0.  1.
        -12    1    4    4    0    0  0.17516278704E+02  0.10754816859E+02  0.13796444316E+02  0.24755362673E+02  0.00000000000E+00 0.  1.
</event>
<event>
 8    1  0.1238315E-006  0.9118800E+02  0.7816164E-02  0.1184000E+00
        -11   -1    0    0    0    0  0.00000000000E+00  0.00000000000E+00  0.45593999997E+02  0.45594000000E+02  0.51100000000E-03 0.  1.
         11   -1    0    0    0    0 -0.00000000000E+00 -0.00000000000E+00 -0.45593999997E+02  0.45594000000E+02  0.51100000000E-03 0. -1.
         23    2    1    2    0    0  0.00000000000E+00  0.53290705182E-14  0.00000000000E+00  0.91188000000E+02  0.91188000000E+02 0.  0.
    9900012    2    3    3    0    0 -0.33338949022E+02  0.11395241138E+02 -0.10697776295E+02  0.54367089363E+02  0.40000011820E+02 0.  0.
         12    1    3    3    0    0  0.33338949022E+02 -0.11395241138E+02  0.10697776295E+02  0.36820910637E+02  0.00000000000E+00 0. -1.
         11    1    4    4    0    0  0.49158081050E+00  0.29203333832E+01 -0.15695477015E+01  0.33516382577E+01  0.51100000000E-03 0. -1.
        -11    1    4    4    0    0 -0.10608957782E+02 -0.12540423643E+02  0.42372823842E+01  0.16963689829E+02  0.51100000000E-03 0.  1.
        -12    1    4    4    0    0 -0.23221572051E+02  0.21015331398E+02 -0.13365510978E+02  0.34051761276E+02  0.00000000000E+00 0.  1.
</event>
<event>
 8    1  0.1238315E-006  0.9118800E+02  0.7816164E-02  0.1184000E+00
        -11   -1    0    0    0    0  0.00000000000E+00  0.00000000000E+00  0.45593999997E+02  0.45594000000E+02  0.51100000000E-03 0. -1.
         11   -1    0    0    0    0 -0.00000000000E+00 -0.00000000000E+00 -0.45593999997E+02  0.45594000000E+02  0.51100000000E-03 0.  1.
         23    2    1    2    0    0  0.00000000000E+00 -0.13322676296E-14  0.00000000000E+00  0.91188000000E+02  0.91188000000E+02 0.  0.
    9900012    2    3    3    0    0  0.24529260230E+02 -0.28993352084E+01 -0.27307297761E+02  0.54367092039E+02  0.40000017920E+02 0.  0.
         12    1    3    3    0    0 -0.24529260230E+02  0.28993352084E+01  0.27307297761E+02  0.36820907961E+02  0.00000000000E+00 0. -1.
         11    1    4    4    0    0  0.16344714390E+02 -0.50394393111E+01 -0.21155202056E+02  0.27204562326E+02  0.51100000000E-03 0. -1.
        -11    1    4    4    0    0  0.12124654825E+02  0.10340822284E+02  0.41661326278E+00  0.15940935575E+02  0.51100000000E-03 0.  1.
         12    1    4    4    0    0 -0.39401089839E+01 -0.82007181815E+01 -0.65687089678E+01  0.11221594138E+02  0.00000000000E+00 0. -1.
</event>
<event>
 8    1  0.1238315E-006  0.9118800E+02  0.7816164E-02  0.1184000E+00
        -11   -1    0    0    0    0  0.00000000000E+00  0.00000000000E+00  0.45593999997E+02  0.45594000000E+02  0.51100000000E-03 0. -1.
         11   -1    0    0    0    0 -0.00000000000E+00 -0.00000000000E+00 -0.45593999997E+02  0.45594000000E+02  0.51100000000E-03 0.  1.
         23    2    1    2    0    0  0.00000000000E+00  0.00000000000E+00 -0.88817841970E-15  0.91188000000E+02  0.91188000000E+02 0.  0.
    9900012    2    3    3    0    0  0.13581266443E+02  0.33345970420E+02  0.77055626262E+01  0.54367078816E+02  0.39999987778E+02 0.  0.
        -12    1    3    3    0    0 -0.13581266443E+02 -0.33345970420E+02 -0.77055626262E+01  0.36820921184E+02  0.00000000000E+00 0.  1.
         11    1    4    4    0    0  0.12603762391E+02 -0.22047135316E+01 -0.27981615565E+01  0.13097530169E+02  0.51100000000E-03 0. -1.
        -11    1    4    4    0    0  0.29309776043E+01  0.36015581420E+02  0.63946971820E+01  0.36696115422E+02  0.51100000000E-03 0.  1.
         12    1    4    4    0    0 -0.19534735523E+01 -0.46489746899E+00  0.41090270008E+01  0.45734332257E+01  0.00000000000E+00 0. -1.
</event>
<event>
 8    1  0.1238315E-006  0.9118800E+02  0.7816164E-02  0.1184000E+00
        -11   -1    0    0    0    0  0.00000000000E+00  0.00000000000E+00  0.45593999997E+02  0.45594000000E+02  0.51100000000E-03 0. -1.
         11   -1    0    0    0    0 -0.00000000000E+00 -0.00000000000E+00 -0.45593999997E+02  0.45594000000E+02  0.51100000000E-03 0.  1.
         23    2    1    2    0    0 -0.35527136788E-14  0.00000000000E+00  0.35527136788E-14  0.91188000000E+02  0.91188000000E+02 0.  0.
    9900012    2    3    3    0    0 -0.30547101311E+02 -0.11813743937E+02  0.16825281217E+02  0.54367081593E+02  0.39999994107E+02 0.  0.
         12    1    3    3    0    0  0.30547101311E+02  0.11813743937E+02 -0.16825281217E+02  0.36820918407E+02  0.00000000000E+00 0. -1.
         11    1    4    4    0    0  0.40973479909E+01  0.44785928209E+01  0.23233646028E+01  0.64995444111E+01  0.51100000000E-03 0. -1.
        -11    1    4    4    0    0 -0.21750893890E+02  0.34256669479E+01  0.80023607597E+01  0.23428067719E+02  0.51100000000E-03 0.  1.
        -12    1    4    4    0    0 -0.12893555412E+02 -0.19718003706E+02  0.64995558547E+01  0.24439469462E+02  0.00000000000E+00 0.  1.
</event>
<event>
 8    1  0.1238315E-006  0.9118800E+02  0.7816164E-02  0.1184000E+00
        -11   -1    0    0    0    0  0.00000000000E+00  0.00000000000E+00  0.45593999997E+02  0.45594000000E+02  0.51100000000E-03 0. -1.
         11   -1    0    0    0    0 -0.00000000000E+00 -0.00000000000E+00 -0.45593999997E+02  0.45594000000E+02  0.51100000000E-03 0.  1.
         23    2    1    2    0    0 -0.35527136788E-14  0.00000000000E+00  0.00000000000E+00  0.91188000000E+02  0.91188000000E+02 0.  0.
    9900012    2    3    3    0    0 -0.25730135959E+02  0.19119928823E+02 -0.18115412742E+02  0.54367085380E+02  0.40000002741E+02 0.  0.
         12    1    3    3    0    0  0.25730135959E+02 -0.19119928823E+02  0.18115412742E+02  0.36820914620E+02  0.00000000000E+00 0. -1.
         11    1    4    4    0    0 -0.15493278877E+02  0.99236007019E+01 -0.10257338230E+02  0.21064959746E+02  0.51100000000E-03 0. -1.
        -11    1    4    4    0    0 -0.19335663759E+02  0.75741643761E+01  0.59847072788E+00  0.20774841190E+02  0.51100000000E-03 0.  1.
         12    1    4    4    0    0  0.90988066771E+01  0.16221637450E+01 -0.84565452397E+01  0.12527284445E+02  0.00000000000E+00 0. -1.
</event>
<event>
 8    1  0.1238315E-006  0.9118800E+02  0.7816164E-02  0.1184000E+00
        -11   -1    0    0    0    0  0.00000000000E+00  0.00000000000E+00  0.45593999997E+02  0.45594000000E+02  0.51100000000E-03 0.  1.
         11   -1    0    0    0    0 -0.00000000000E+00 -0.00000000000E+00 -0.45593999997E+02  0.45594000000E+02  0.51100000000E-03 0. -1.
         23    2    1    2    0    0 -0.35527136788E-14 -0.17763568394E-14  0.00000000000E+00  0.91188000000E+02  0.91188000000E+02 0.  0.
    9900012    2    3    3    0    0  0.21346453459E+02 -0.12655756623E+02 -0.27201877307E+02  0.54367063293E+02  0.39999952389E+02 0.  0.
        -12    1    3    3    0    0 -0.21346453459E+02  0.12655756623E+02  0.27201877307E+02  0.36820936707E+02  0.00000000000E+00 0.  1.
         11    1    4    4    0    0  0.18051886504E+00 -0.60710078298E+01 -0.17414566765E+02  0.18443341861E+02  0.51100000000E-03 0. -1.
        -11    1    4    4    0    0  0.38013839577E+01  0.50750645000E+01 -0.13281837202E+02  0.14717812317E+02  0.51100000000E-03 0.  1.
        -12    1    4    4    0    0  0.17364550636E+02 -0.11659813293E+02  0.34945266598E+01  0.21205909115E+02  0.00000000000E+00 0.  1.
</event>
<event>
 8    1  0.1238315E-006  0.9118800E+02  0.7816164E-02  0.1184000E+00
        -11   -1    0    0    0    0  0.00000000000E+00  0.00000000000E+00  0.45593999997E+02  0.45594000000E+02  0.51100000000E-03 0.  1.
         11   -1    0    0    0    0 -0.00000000000E+00 -0.00000000000E+00 -0.45593999997E+02  0.45594000000E+02  0.51100000000E-03 0. -1.
         23    2    1    2    0    0 -0.17763568394E-14  0.00000000000E+00  0.00000000000E+00  0.91188000000E+02  0.91188000000E+02 0.  0.
    9900012    2    3    3    0    0  0.14339069756E+02  0.21458846389E+02 -0.26261998647E+02  0.54367033381E+02  0.39999884199E+02 0.  0.
        -12    1    3    3    0    0 -0.14339069756E+02 -0.21458846389E+02  0.26261998647E+02  0.36820966619E+02  0.00000000000E+00 0.  1.
         11    1    4    4    0    0 -0.22654649161E+01  0.89961736139E+01 -0.89816126823E+01  0.12912507023E+02  0.51100000000E-03 0. -1.
        -11    1    4    4    0    0 -0.53149728770E+01 -0.65508651528E+01 -0.58584730418E+01  0.10270563644E+02  0.51100000000E-03 0.  1.
        -12    1    4    4    0    0  0.21919507549E+02  0.19013537928E+02 -0.11421912922E+02  0.31183962714E+02  0.00000000000E+00 0.  1.
</event>
<event>
 8    1  0.1238315E-006  0.9118800E+02  0.7816164E-02  0.1184000E+00
        -11   -1    0    0    0    0  0.00000000000E+00  0.00000000000E+00  0.45593999997E+02  0.45594000000E+02  0.51100000000E-03 0.  1.
         11   -1    0    0    0    0 -0.00000000000E+00 -0.00000000000E+00 -0.45593999997E+02  0.45594000000E+02  0.51100000000E-03 0. -1.
         23    2    1    2    0    0  0.00000000000E+00  0.71054273576E-14  0.00000000000E+00  0.91188000000E+02  0.91188000000E+02 0.  0.
    9900012    2    3    3    0    0 -0.12186459876E+01  0.32645378824E+02 -0.16987493832E+02  0.54367071124E+02  0.39999970242E+02 0.  0.
        -12    1    3    3    0    0  0.12186459876E+01 -0.32645378824E+02  0.16987493832E+02  0.36820928876E+02  0.00000000000E+00 0.  1.
         11    1    4    4    0    0 -0.93094391891E+00  0.45609982924E+01  0.10371290081E+02  0.11368070206E+02  0.51100000000E-03 0. -1.
        -11    1    4    4    0    0 -0.24467812403E+01  0.16914976237E+01 -0.12049234044E+02  0.12410960638E+02  0.51100000000E-03 0.  1.
         12    1    4    4    0    0  0.21590791716E+01  0.26392882908E+02 -0.15309549869E+02  0.30588040281E+02  0.00000000000E+00 0. -1.
</event>
<event>
 8    1  0.1238315E-006  0.9118800E+02  0.7816164E-02  0.1184000E+00
        -11   -1    0    0    0    0  0.00000000000E+00  0.00000000000E+00  0.45593999997E+02  0.45594000000E+02  0.51100000000E-03 0. -1.
         11   -1    0    0    0    0 -0.00000000000E+00 -0.00000000000E+00 -0.45593999997E+02  0.45594000000E+02  0.51100000000E-03 0.  1.
         23    2    1    2    0    0  0.00000000000E+00  0.00000000000E+00  0.88817841970E-15  0.91188000000E+02  0.91188000000E+02 0.  0.
    9900012    2    3    3    0    0 -0.16420310236E+02 -0.32810960715E+02 -0.30974599816E+01  0.54367082173E+02  0.39999995430E+02 0.  0.
         12    1    3    3    0    0  0.16420310236E+02  0.32810960715E+02  0.30974599816E+01  0.36820917827E+02  0.00000000000E+00 0. -1.
         11    1    4    4    0    0  0.33760371343E+01  0.28598520109E+01 -0.70049399924E+01  0.82852619038E+01  0.51100000000E-03 0. -1.
        -11    1    4    4    0    0 -0.48382679936E+01 -0.13709291460E+02 -0.84086705278E+01  0.16794619669E+02  0.51100000000E-03 0.  1.
         12    1    4    4    0    0 -0.14958079376E+02 -0.21961521266E+02  0.12316150539E+02  0.29287200601E+02  0.00000000000E+00 0. -1.
</event>
<event>
 8    1  0.1238315E-006  0.9118800E+02  0.7816164E-02  0.1184000E+00
        -11   -1    0    0    0    0  0.00000000000E+00  0.00000000000E+00  0.45593999997E+02  0.45594000000E+02  0.51100000000E-03 0.  1.
         11   -1    0    0    0    0 -0.00000000000E+00 -0.00000000000E+00 -0.45593999997E+02  0.45594000000E+02  0.51100000000E-03 0. -1.
         23    2    1    2    0    0 -0.71054273576E-14 -0.71054273576E-14  0.00000000000E+00  0.91188000000E+02  0.91188000000E+02 0.  0.
    9900012    2    3    3    0    0  0.20943058495E+02  0.30217243788E+02 -0.20215787462E+01  0.54367077933E+02  0.39999985763E+02 0.  0.
        -12    1    3    3    0    0 -0.20943058495E+02 -0.30217243788E+02  0.20215787462E+01  0.36820922067E+02  0.00000000000E+00 0.  1.
         11    1    4    4    0    0 -0.16564042588E+01  0.76729324001E+01  0.44525257585E+01  0.90245527632E+01  0.51100000000E-03 0. -1.
        -11    1    4    4    0    0 -0.76171258239E+01  0.30436081458E+01 -0.44281419729E+01  0.93216199212E+01  0.51100000000E-03 0.  1.
         12    1    4    4    0    0  0.30216588578E+02  0.19500703242E+02 -0.20459625317E+01  0.36020905248E+02  0.00000000000E+00 0. -1.
</event>
<event>
 8    1  0.1238315E-006  0.9118800E+02  0.7816164E-02  0.1184000E+00
        -11   -1    0    0    0    0  0.00000000000E+00  0.00000000000E+00  0.45593999997E+02  0.45594000000E+02  0.51100000000E-03 0.  1.
         11   -1    0    0    0    0 -0.00000000000E+00 -0.00000000000E+00 -0.45593999997E+02  0.45594000000E+02  0.51100000000E-03 0. -1.
         23    2    1    2    0    0  0.00000000000E+00  0.17763568394E-14  0.00000000000E+00  0.91188000000E+02  0.91188000000E+02 0.  0.
    9900012    2    3    3    0    0 -0.14386819558E+02  0.99912846984E+01 -0.32387879555E+02  0.54367067244E+02  0.39999961397E+02 0.  0.
         12    1    3    3    0    0  0.14386819558E+02 -0.99912846984E+01  0.32387879555E+02  0.36820932756E+02  0.00000000000E+00 0. -1.
         11    1    4    4    0    0 -0.14085702559E+02  0.50970037909E+01 -0.97848208120E+01  0.17892154225E+02  0.51100000000E-03 0. -1.
        -11    1    4    4    0    0 -0.76390819266E+01 -0.86409886931E+01 -0.37371113339E+01  0.12123871480E+02  0.51100000000E-03 0.  1.
         12    1    4    4    0    0  0.73379649272E+01  0.13535269601E+02 -0.18865947409E+02  0.24351041540E+02  0.00000000000E+00 0. -1.
</event>
<event>
 8    1  0.1238315E-006  0.9118800E+02  0.7816164E-02  0.1184000E+00
        -11   -1    0    0    0    0  0.00000000000E+00  0.00000000000E+00  0.45593999997E+02  0.45594000000E+02  0.51100000000E-03 0.  1.
         11   -1    0    0    0    0 -0.00000000000E+00 -0.00000000000E+00 -0.45593999997E+02  0.45594000000E+02  0.51100000000E-03 0. -1.
         23    2    1    2    0    0 -0.35527136788E-14  0.35527136788E-14  0.00000000000E+00  0.91188000000E+02  0.91188000000E+02 0.  0.
    9900012    2    3    3    0    0 -0.23478429515E+02  0.23334662352E+02  0.16125583772E+02  0.54367115009E+02  0.40000070285E+02 0.  0.
         12    1    3    3    0    0  0.23478429515E+02 -0.23334662352E+02 -0.16125583772E+02  0.36820884991E+02  0.00000000000E+00 0. -1.
         11    1    4    4    0    0  0.21720815461E+01 -0.19085479252E+01  0.25455359046E+01  0.38523040805E+01  0.51100000000E-03 0. -1.
        -11    1    4    4    0    0 -0.99135034909E+01 -0.33418903359E+00  0.17613260686E+02  0.20214256999E+02  0.51100000000E-03 0.  1.
         12    1    4    4    0    0 -0.15737007570E+02  0.25577399311E+02 -0.40332128188E+01  0.30300553929E+02  0.00000000000E+00 0. -1.
</event>
<event>
 8    1  0.1238315E-006  0.9118800E+02  0.7816164E-02  0.1184000E+00
        -11   -1    0    0    0    0  0.00000000000E+00  0.00000000000E+00  0.45593999997E+02  0.45594000000E+02  0.51100000000E-03 0.  1.
         11   -1    0    0    0    0 -0.00000000000E+00 -0.00000000000E+00 -0.45593999997E+02  0.45594000000E+02  0.51100000000E-03 0. -1.
         23    2    1    2    0    0  0.00000000000E+00  0.00000000000E+00  0.00000000000E+00  0.91188000000E+02  0.91188000000E+02 0.  0.
    9900012    2    3    3    0    0 -0.26940274049E+02  0.73263454774E+01 -0.24006784490E+02  0.54367090106E+02  0.40000013514E+02 0.  0.
         12    1    3    3    0    0  0.26940274049E+02 -0.73263454774E+01  0.24006784490E+02  0.36820909894E+02  0.00000000000E+00 0. -1.
         11    1    4    4    0    0 -0.23581218973E+02 -0.71588515926E+01 -0.57168609963E+01  0.25298330859E+02  0.51100000000E-03 0. -1.
        -11    1    4    4    0    0  0.74251266298E+00 -0.25553827650E+01 -0.86823999364E+01  0.90810448213E+01  0.51100000000E-03 0.  1.
         12    1    4    4    0    0 -0.41015677390E+01  0.17040579835E+02 -0.96075235576E+01  0.19987714425E+02  0.00000000000E+00 0. -1.
</event>
<event>
 8    1  0.1238315E-006  0.9118800E+02  0.7816164E-02  0.1184000E+00
        -11   -1    0    0    0    0  0.00000000000E+00  0.00000000000E+00  0.45593999997E+02  0.45594000000E+02  0.51100000000E-03 0.  1.
         11   -1    0    0    0    0 -0.00000000000E+00 -0.00000000000E+00 -0.45593999997E+02  0.45594000000E+02  0.51100000000E-03 0. -1.
         23    2    1    2    0    0  0.35527136788E-14 -0.44408920985E-15  0.00000000000E+00  0.91188000000E+02  0.91188000000E+02 0.  0.
    9900012    2    3    3    0    0 -0.26422796306E+02 -0.26679325246E+01 -0.25504873958E+02  0.54367073556E+02  0.39999975787E+02 0.  0.
        -12    1    3    3    0    0  0.26422796306E+02  0.26679325246E+01  0.25504873958E+02  0.36820926444E+02  0.00000000000E+00 0.  1.
         11    1    4    4    0    0  0.15020847622E+01 -0.34478065137E+01  0.31492939685E+01  0.49052707519E+01  0.51100000000E-03 0. -1.
        -11    1    4    4    0    0 -0.16270359745E+02 -0.47448738476E+01 -0.31934792036E+02  0.36153414454E+02  0.51100000000E-03 0.  1.
        -12    1    4    4    0    0 -0.11654521323E+02  0.55247478367E+01  0.32806241100E+01  0.13308388350E+02  0.00000000000E+00 0.  1.
</event>
<event>
 8    1  0.1238315E-006  0.9118800E+02  0.7816164E-02  0.1184000E+00
        -11   -1    0    0    0    0  0.00000000000E+00  0.00000000000E+00  0.45593999997E+02  0.45594000000E+02  0.51100000000E-03 0. -1.
         11   -1    0    0    0    0 -0.00000000000E+00 -0.00000000000E+00 -0.45593999997E+02  0.45594000000E+02  0.51100000000E-03 0.  1.
         23    2    1    2    0    0 -0.88817841970E-15  0.00000000000E+00  0.00000000000E+00  0.91188000000E+02  0.91188000000E+02 0.  0.
    9900012    2    3    3    0    0 -0.58326255161E+01  0.10775948407E+02  0.34722308945E+02  0.54367091226E+02  0.40000016067E+02 0.  0.
        -12    1    3    3    0    0  0.58326255161E+01 -0.10775948407E+02 -0.34722308945E+02  0.36820908774E+02  0.00000000000E+00 0.  1.
         11    1    4    4    0    0 -0.52081437049E+00  0.73768437759E+01  0.20000007798E+02  0.21323446810E+02  0.51100000000E-03 0. -1.
        -11    1    4    4    0    0  0.46611271001E+01 -0.87925967130E+01 -0.19136485809E+01  0.10133997925E+02  0.51100000000E-03 0.  1.
        -12    1    4    4    0    0 -0.99729382457E+01  0.12191701344E+02  0.16635949728E+02  0.22909646490E+02  0.00000000000E+00 0.  1.
</event>
<event>
 8    1  0.1238315E-006  0.9118800E+02  0.7816164E-02  0.1184000E+00
        -11   -1    0    0    0    0  0.00000000000E+00  0.00000000000E+00  0.45593999997E+02  0.45594000000E+02  0.51100000000E-03 0. -1.
         11   -1    0    0    0    0 -0.00000000000E+00 -0.00000000000E+00 -0.45593999997E+02  0.45594000000E+02  0.51100000000E-03 0.  1.
         23    2    1    2    0    0 -0.88817841970E-15  0.00000000000E+00 -0.71054273576E-14  0.91188000000E+02  0.91188000000E+02 0.  0.
    9900012    2    3    3    0    0 -0.11794898305E+01 -0.17030193029E+02  0.32624577630E+02  0.54367058453E+02  0.39999941355E+02 0.  0.
        -12    1    3    3    0    0  0.11794898305E+01  0.17030193029E+02 -0.32624577630E+02  0.36820941547E+02  0.00000000000E+00 0.  1.
         11    1    4    4    0    0  0.86738094117E+01 -0.10250968904E+02  0.24469982918E+02  0.27912316232E+02  0.51100000000E-03 0. -1.
        -11    1    4    4    0    0  0.52757939728E+01 -0.78251678926E+01  0.58812555672E+01  0.11120090912E+02  0.51100000000E-03 0.  1.
        -12    1    4    4    0    0 -0.15129093215E+02  0.10459437675E+01  0.22733391452E+01  0.15334651308E+02  0.00000000000E+00 0.  1.
</event>
<event>
 8    1  0.1238315E-006  0.9118800E+02  0.7816164E-02  0.1184000E+00
        -11   -1    0    0    0    0  0.00000000000E+00  0.00000000000E+00  0.45593999997E+02  0.45594000000E+02  0.51100000000E-03 0.  1.
         11   -1    0    0    0    0 -0.00000000000E+00 -0.00000000000E+00 -0.45593999997E+02  0.45594000000E+02  0.51100000000E-03 0. -1.
         23    2    1    2    0    0  0.00000000000E+00  0.00000000000E+00 -0.88817841970E-15  0.91188000000E+02  0.91188000000E+02 0.  0.
    9900012    2    3    3    0    0  0.21498871990E+02 -0.28862809291E+02  0.77793510200E+01  0.54367060858E+02  0.39999946839E+02 0.  0.
         12    1    3    3    0    0 -0.21498871990E+02  0.28862809291E+02 -0.77793510200E+01  0.36820939142E+02  0.00000000000E+00 0. -1.
         11    1    4    4    0    0  0.29163947858E+02 -0.16383890262E+02 -0.51814590542E+01  0.33849892658E+02  0.51100000000E-03 0. -1.
        -11    1    4    4    0    0 -0.23505548437E+01 -0.63930695783E+01  0.95892165346E+01  0.11762207306E+02  0.51100000000E-03 0.  1.
        -12    1    4    4    0    0 -0.53145210246E+01 -0.60858494504E+01  0.33715935396E+01  0.87549608937E+01  0.00000000000E+00 0.  1.
</event>
<event>
 8    1  0.1238315E-006  0.9118800E+02  0.7816164E-02  0.1184000E+00
        -11   -1    0    0    0    0  0.00000000000E+00  0.00000000000E+00  0.45593999997E+02  0.45594000000E+02  0.51100000000E-03 0. -1.
         11   -1    0    0    0    0 -0.00000000000E+00 -0.00000000000E+00 -0.45593999997E+02  0.45594000000E+02  0.51100000000E-03 0.  1.
         23    2    1    2    0    0  0.00000000000E+00 -0.17763568394E-14  0.00000000000E+00  0.91188000000E+02  0.91188000000E+02 0.  0.
    9900012    2    3    3    0    0  0.32581779513E+02 -0.12124954898E+02  0.12132262743E+02  0.54367099865E+02  0.40000035761E+02 0.  0.
        -12    1    3    3    0    0 -0.32581779513E+02  0.12124954898E+02 -0.12132262743E+02  0.36820900135E+02  0.00000000000E+00 0.  1.
         11    1    4    4    0    0  0.20132521203E+01 -0.39168008965E+01  0.97732713697E+01  0.10719671025E+02  0.51100000000E-03 0.  1.
        -11    1    4    4    0    0 -0.82190888022E+00  0.81387727787E+01  0.83719814578E+00  0.82228983666E+01  0.51100000000E-03 0. -1.
         12    1    4    4    0    0  0.31390436273E+02 -0.16346926781E+02  0.15217932270E+01  0.35424530473E+02  0.00000000000E+00 0. -1.
</event>
<event>
 8    1  0.1238315E-006  0.9118800E+02  0.7816164E-02  0.1184000E+00
        -11   -1    0    0    0    0  0.00000000000E+00  0.00000000000E+00  0.45593999997E+02  0.45594000000E+02  0.51100000000E-03 0.  1.
         11   -1    0    0    0    0 -0.00000000000E+00 -0.00000000000E+00 -0.45593999997E+02  0.45594000000E+02  0.51100000000E-03 0. -1.
         23    2    1    2    0    0  0.11865508576E-14  0.00000000000E+00  0.00000000000E+00  0.91188000000E+02  0.91188000000E+02 0.  0.
    9900012    2    3    3    0    0 -0.47522334944E-01 -0.90975627092E+01  0.35679306177E+02  0.54367071238E+02  0.39999970501E+02 0.  0.
         12    1    3    3    0    0  0.47522334944E-01  0.90975627092E+01 -0.35679306177E+02  0.36820928762E+02  0.00000000000E+00 0. -1.
         11    1    4    4    0    0 -0.45466368616E+01 -0.12124720809E+02 -0.68265448673E+00  0.12967142278E+02  0.51100000000E-03 0. -1.
        -11    1    4    4    0    0  0.68131453523E+01  0.95741520204E+01  0.15755855129E+02  0.19655287014E+02  0.51100000000E-03 0.  1.
         12    1    4    4    0    0 -0.23140308257E+01 -0.65469939210E+01  0.20606105535E+02  0.21744641946E+02  0.00000000000E+00 0. -1.
</event>
<event>
 8    1  0.1238315E-006  0.9118800E+02  0.7816164E-02  0.1184000E+00
        -11   -1    0    0    0    0  0.00000000000E+00  0.00000000000E+00  0.45593999997E+02  0.45594000000E+02  0.51100000000E-03 0. -1.
         11   -1    0    0    0    0 -0.00000000000E+00 -0.00000000000E+00 -0.45593999997E+02  0.45594000000E+02  0.51100000000E-03 0.  1.
         23    2    1    2    0    0  0.00000000000E+00  0.00000000000E+00 -0.77715611724E-15  0.91188000000E+02  0.91188000000E+02 0.  0.
    9900012    2    3    3    0    0  0.33346064061E+02 -0.15609495040E+02 -0.39846422582E+00  0.54367148604E+02  0.40000146873E+02 0.  0.
        -12    1    3    3    0    0 -0.33346064061E+02  0.15609495040E+02  0.39846422582E+00  0.36820851396E+02  0.00000000000E+00 0.  1.
         11    1    4    4    0    0  0.69165884961E+01 -0.25646874176E+01  0.61958902140E+01  0.96335805275E+01  0.51100000000E-03 0.  1.
        -11    1    4    4    0    0 -0.36364538186E+01  0.71531605122E+01 -0.11857636322E+01  0.81115681184E+01  0.51100000000E-03 0. -1.
         12    1    4    4    0    0  0.30065929383E+02 -0.20197968134E+02 -0.54085908076E+01  0.36621999959E+02  0.00000000000E+00 0. -1.
</event>
<event>
 8    1  0.1238315E-006  0.9118800E+02  0.7816164E-02  0.1184000E+00
        -11   -1    0    0    0    0  0.00000000000E+00  0.00000000000E+00  0.45593999997E+02  0.45594000000E+02  0.51100000000E-03 0. -1.
         11   -1    0    0    0    0 -0.00000000000E+00 -0.00000000000E+00 -0.45593999997E+02  0.45594000000E+02  0.51100000000E-03 0.  1.
         23    2    1    2    0    0 -0.17763568394E-14 -0.17763568394E-14  0.00000000000E+00  0.91188000000E+02  0.91188000000E+02 0.  0.
    9900012    2    3    3    0    0  0.96403626607E+01  0.99206412078E+01  0.34123648161E+02  0.54367094552E+02  0.40000023650E+02 0.  0.
        -12    1    3    3    0    0 -0.96403626607E+01 -0.99206412078E+01 -0.34123648161E+02  0.36820905448E+02  0.00000000000E+00 0.  1.
         11    1    4    4    0    0  0.33203079090E+01  0.14338841276E+02  0.19502392530E+02  0.24432972156E+02  0.51100000000E-03 0. -1.
        -11    1    4    4    0    0 -0.82491162773E+01 -0.41537572071E+01 -0.78151316809E-01  0.92362181752E+01  0.51100000000E-03 0.  1.
        -12    1    4    4    0    0  0.14569171029E+02 -0.26444286123E+00  0.14699406948E+02  0.20697904220E+02  0.00000000000E+00 0.  1.
</event>
<event>
 8    1  0.1238315E-006  0.9118800E+02  0.7816164E-02  0.1184000E+00
        -11   -1    0    0    0    0  0.00000000000E+00  0.00000000000E+00  0.45593999997E+02  0.45594000000E+02  0.51100000000E-03 0. -1.
         11   -1    0    0    0    0 -0.00000000000E+00 -0.00000000000E+00 -0.45593999997E+02  0.45594000000E+02  0.51100000000E-03 0.  1.
         23    2    1    2    0    0  0.88817841970E-15  0.88817841970E-15  0.71054273576E-14  0.91188000000E+02  0.91188000000E+02 0.  0.
    9900012    2    3    3    0    0 -0.66986356144E+01 -0.63563577973E+00  0.36200860220E+02  0.54367108748E+02  0.40000056013E+02 0.  0.
        -12    1    3    3    0    0  0.66986356144E+01  0.63563577973E+00 -0.36200860220E+02  0.36820891252E+02  0.00000000000E+00 0.  1.
         11    1    4    4    0    0 -0.10646440169E+02 -0.25039397755E+01  0.14628286617E+02  0.18264806932E+02  0.51100000000E-03 0. -1.
        -11    1    4    4    0    0  0.18779040249E+01  0.15261041930E+02  0.12140753959E+02  0.19591422390E+02  0.51100000000E-03 0.  1.
        -12    1    4    4    0    0  0.20699005298E+01 -0.13392737935E+02  0.94318196444E+01  0.16510879425E+02  0.00000000000E+00 0.  1.
</event>
<event>
 8    1  0.1238315E-006  0.9118800E+02  0.7816164E-02  0.1184000E+00
        -11   -1    0    0    0    0  0.00000000000E+00  0.00000000000E+00  0.45593999997E+02  0.45594000000E+02  0.51100000000E-03 0. -1.
         11   -1    0    0    0    0 -0.00000000000E+00 -0.00000000000E+00 -0.45593999997E+02  0.45594000000E+02  0.51100000000E-03 0.  1.
         23    2    1    2    0    0 -0.13322676296E-14  0.35527136788E-14 -0.35527136788E-14  0.91188000000E+02  0.91188000000E+02 0.  0.
    9900012    2    3    3    0    0 -0.28732494326E+01 -0.23884702101E+02  0.27875547623E+02  0.54367072363E+02  0.39999973066E+02 0.  0.
        -12    1    3    3    0    0  0.28732494326E+01  0.23884702101E+02 -0.27875547623E+02  0.36820927637E+02  0.00000000000E+00 0.  1.
         11    1    4    4    0    0  0.11320275224E+02  0.30611628994E+01  0.10026678962E+02  0.15428987029E+02  0.51100000000E-03 0. -1.
        -11    1    4    4    0    0  0.74856644666E+00 -0.14568380814E+02  0.40836979164E+01  0.15148421046E+02  0.51100000000E-03 0.  1.
         12    1    4    4    0    0 -0.14942091104E+02 -0.12377484187E+02  0.13765170744E+02  0.23789664289E+02  0.00000000000E+00 0. -1.
</event>
<event>
 8    1  0.1238315E-006  0.9118800E+02  0.7816164E-02  0.1184000E+00
        -11   -1    0    0    0    0  0.00000000000E+00  0.00000000000E+00  0.45593999997E+02  0.45594000000E+02  0.51100000000E-03 0.  1.
         11   -1    0    0    0    0 -0.00000000000E+00 -0.00000000000E+00 -0.45593999997E+02  0.45594000000E+02  0.51100000000E-03 0. -1.
         23    2    1    2    0    0  0.00000000000E+00  0.00000000000E+00  0.88817841970E-15  0.91188000000E+02  0.91188000000E+02 0.  0.
    9900012    2    3    3    0    0  0.27627726354E+02  0.23694887449E+02 -0.55715084692E+01  0.54367073051E+02  0.39999974635E+02 0.  0.
        -12    1    3    3    0    0 -0.27627726354E+02 -0.23694887449E+02  0.55715084692E+01  0.36820926949E+02  0.00000000000E+00 0.  1.
         11    1    4    4    0    0 -0.66979508607E+01 -0.21344530182E+01  0.34200432275E+01  0.78176167313E+01  0.51100000000E-03 0. -1.
        -11    1    4    4    0    0  0.10924377191E+02  0.13109177211E+02 -0.10211804648E+02  0.19886515497E+02  0.51100000000E-03 0.  1.
        -12    1    4    4    0    0  0.23401300024E+02  0.12720163256E+02  0.12202529517E+01  0.26662940823E+02  0.00000000000E+00 0.  1.
</event>
<event>
 8    1  0.1238315E-006  0.9118800E+02  0.7816164E-02  0.1184000E+00
        -11   -1    0    0    0    0  0.00000000000E+00  0.00000000000E+00  0.45593999997E+02  0.45594000000E+02  0.51100000000E-03 0. -1.
         11   -1    0    0    0    0 -0.00000000000E+00 -0.00000000000E+00 -0.45593999997E+02  0.45594000000E+02  0.51100000000E-03 0.  1.
         23    2    1    2    0    0 -0.26645352591E-14 -0.17763568394E-14  0.00000000000E+00  0.91188000000E+02  0.91188000000E+02 0.  0.
    9900012    2    3    3    0    0 -0.47277812599E+01 -0.81205288404E+01 -0.35601763741E+02  0.54367075436E+02  0.39999980070E+02 0.  0.
         12    1    3    3    0    0  0.47277812599E+01  0.81205288404E+01  0.35601763741E+02  0.36820924564E+02  0.00000000000E+00 0. -1.
         11    1    4    4    0    0  0.59732718363E+01  0.11576968822E+02 -0.91404371917E+01  0.15913949097E+02  0.51100000000E-03 0. -1.
        -11    1    4    4    0    0 -0.42638950099E+01 -0.12034759072E+02 -0.25350140025E+02  0.28383900826E+02  0.51100000000E-03 0.  1.
         12    1    4    4    0    0 -0.64371580863E+01 -0.76627385900E+01 -0.11111865248E+01  0.10069225512E+02  0.00000000000E+00 0. -1.
</event>
<event>
 8    1  0.1238315E-006  0.9118800E+02  0.7816164E-02  0.1184000E+00
        -11   -1    0    0    0    0  0.00000000000E+00  0.00000000000E+00  0.45593999997E+02  0.45594000000E+02  0.51100000000E-03 0.  1.
         11   -1    0    0    0    0 -0.00000000000E+00 -0.00000000000E+00 -0.45593999997E+02  0.45594000000E+02  0.51100000000E-03 0. -1.
         23    2    1    2    0    0 -0.55511151231E-15  0.00000000000E+00  0.88817841970E-15  0.91188000000E+02  0.91188000000E+02 0.  0.
    9900012    2    3    3    0    0  0.49077268937E+00 -0.36624795769E+02  0.37630981020E+01  0.54367116927E+02  0.40000074659E+02 0.  0.
         12    1    3    3    0    0 -0.49077268937E+00  0.36624795769E+02 -0.37630981020E+01  0.36820883073E+02  0.00000000000E+00 0. -1.
         11    1    4    4    0    0 -0.16773867723E+02 -0.64359595590E+01 -0.27048098600E+01  0.18168660118E+02  0.51100000000E-03 0. -1.
        -11    1    4    4    0    0  0.13508938172E+02 -0.19532072237E+02  0.13294214932E+01  0.23785722990E+02  0.51100000000E-03 0.  1.
        -12    1    4    4    0    0  0.37557022400E+01 -0.10656763973E+02  0.51384864688E+01  0.12412733820E+02  0.00000000000E+00 0.  1.
</event>
<event>
 8    1  0.1238315E-006  0.9118800E+02  0.7816164E-02  0.1184000E+00
        -11   -1    0    0    0    0  0.00000000000E+00  0.00000000000E+00  0.45593999997E+02  0.45594000000E+02  0.51100000000E-03 0.  1.
         11   -1    0    0    0    0 -0.00000000000E+00 -0.00000000000E+00 -0.45593999997E+02  0.45594000000E+02  0.51100000000E-03 0. -1.
         23    2    1    2    0    0  0.17763568394E-14 -0.44408920985E-15  0.00000000000E+00  0.91188000000E+02  0.91188000000E+02 0.  0.
    9900012    2    3    3    0    0 -0.11197692517E+02  0.38179942943E+01 -0.34868563747E+02  0.54367053028E+02  0.39999928988E+02 0.  0.
        -12    1    3    3    0    0  0.11197692517E+02 -0.38179942943E+01  0.34868563747E+02  0.36820946972E+02  0.00000000000E+00 0.  1.
         11    1    4    4    0    0 -0.20358010872E+02  0.52508694559E+01 -0.69250556837E+01  0.22135415812E+02  0.51100000000E-03 0.  1.
        -11    1    4    4    0    0  0.71181630398E+01  0.53273793170E+01 -0.13675567429E+02  0.16311663319E+02  0.51100000000E-03 0. -1.
        -12    1    4    4    0    0  0.20421553152E+01 -0.67602544786E+01 -0.14267940634E+02  0.15919973897E+02  0.00000000000E+00 0.  1.
</event>
<event>
 8    1  0.1238315E-006  0.9118800E+02  0.7816164E-02  0.1184000E+00
        -11   -1    0    0    0    0  0.00000000000E+00  0.00000000000E+00  0.45593999997E+02  0.45594000000E+02  0.51100000000E-03 0.  1.
         11   -1    0    0    0    0 -0.00000000000E+00 -0.00000000000E+00 -0.45593999997E+02  0.45594000000E+02  0.51100000000E-03 0. -1.
         23    2    1    2    0    0  0.35527136788E-14  0.00000000000E+00 -0.22204460493E-15  0.91188000000E+02  0.91188000000E+02 0.  0.
    9900012    2    3    3    0    0 -0.26957157869E+02 -0.25049983840E+02  0.12616812826E+01  0.54367056362E+02  0.39999936588E+02 0.  0.
         12    1    3    3    0    0  0.26957157869E+02  0.25049983840E+02 -0.12616812826E+01  0.36820943638E+02  0.00000000000E+00 0. -1.
         11    1    4    4    0    0 -0.88601167141E+01  0.23446287399E+01 -0.12992874116E+02  0.15900117301E+02  0.51100000000E-03 0. -1.
        -11    1    4    4    0    0 -0.15522010206E+02 -0.20222549030E+02  0.41772480476E+01  0.25832802628E+02  0.51100000000E-03 0.  1.
         12    1    4    4    0    0 -0.25750309489E+01 -0.71720635492E+01  0.10077307351E+02  0.12634136433E+02  0.00000000000E+00 0. -1.
</event>
<event>
 8    1  0.1238315E-006  0.9118800E+02  0.7816164E-02  0.1184000E+00
        -11   -1    0    0    0    0  0.00000000000E+00  0.00000000000E+00  0.45593999997E+02  0.45594000000E+02  0.51100000000E-03 0. -1.
         11   -1    0    0    0    0 -0.00000000000E+00 -0.00000000000E+00 -0.45593999997E+02  0.45594000000E+02  0.51100000000E-03 0.  1.
         23    2    1    2    0    0  0.00000000000E+00  0.35527136788E-14  0.17763568394E-14  0.91188000000E+02  0.91188000000E+02 0.  0.
    9900012    2    3    3    0    0 -0.21433670480E+02 -0.28637182822E+02 -0.87343553950E+01  0.54367089713E+02  0.40000012619E+02 0.  0.
         12    1    3    3    0    0  0.21433670480E+02  0.28637182822E+02  0.87343553950E+01  0.36820910287E+02  0.00000000000E+00 0. -1.
         11    1    4    4    0    0 -0.11770880831E+02  0.26331054492E+01  0.40384061303E-01  0.12061861837E+02  0.51100000000E-03 0. -1.
        -11    1    4    4    0    0 -0.15325853774E+02 -0.22596252355E+02 -0.14021528977E+02  0.30693251530E+02  0.51100000000E-03 0.  1.
         12    1    4    4    0    0  0.56630641261E+01 -0.86740359162E+01  0.52467895204E+01  0.11611976345E+02  0.00000000000E+00 0. -1.
</event>
<event>
 8    1  0.1238315E-006  0.9118800E+02  0.7816164E-02  0.1184000E+00
        -11   -1    0    0    0    0  0.00000000000E+00  0.00000000000E+00  0.45593999997E+02  0.45594000000E+02  0.51100000000E-03 0.  1.
         11   -1    0    0    0    0 -0.00000000000E+00 -0.00000000000E+00 -0.45593999997E+02  0.45594000000E+02  0.51100000000E-03 0. -1.
         23    2    1    2    0    0 -0.17763568394E-14  0.26645352591E-14  0.00000000000E+00  0.91188000000E+02  0.91188000000E+02 0.  0.
    9900012    2    3    3    0    0 -0.75020503440E+01  0.54497573082E+01  0.35634239791E+02  0.54367086655E+02  0.40000005647E+02 0.  0.
         12    1    3    3    0    0  0.75020503440E+01 -0.54497573082E+01 -0.35634239791E+02  0.36820913345E+02  0.00000000000E+00 0. -1.
         11    1    4    4    0    0 -0.10455905647E+02  0.77675093594E+01 -0.13677088642E+01  0.13096976458E+02  0.51100000000E-03 0. -1.
        -11    1    4    4    0    0 -0.71266017572E+01 -0.21146283288E+01  0.21763793197E+02  0.22998321682E+02  0.51100000000E-03 0.  1.
        -12    1    4    4    0    0  0.10080457060E+02 -0.20312372236E+00  0.15238155458E+02  0.18271788515E+02  0.00000000000E+00 0.  1.
</event>
<event>
 8    1  0.1238315E-006  0.9118800E+02  0.7816164E-02  0.1184000E+00
        -11   -1    0    0    0    0  0.00000000000E+00  0.00000000000E+00  0.45593999997E+02  0.45594000000E+02  0.51100000000E-03 0.  1.
         11   -1    0    0    0    0 -0.00000000000E+00 -0.00000000000E+00 -0.45593999997E+02  0.45594000000E+02  0.51100000000E-03 0. -1.
         23    2    1    2    0    0  0.35527136788E-14 -0.17763568394E-14  0.00000000000E+00  0.91188000000E+02  0.91188000000E+02 0.  0.
    9900012    2    3    3    0    0  0.29180577287E+02 -0.12853447098E+02 -0.18413639435E+02  0.54367091398E+02  0.40000016459E+02 0.  0.
        -12    1    3    3    0    0 -0.29180577287E+02  0.12853447098E+02  0.18413639435E+02  0.36820908602E+02  0.00000000000E+00 0.  1.
         11    1    4    4    0    0  0.87261846230E+01  0.11916182417E+01  0.66101052340E+01  0.11011800197E+02  0.51100000000E-03 0. -1.
        -11    1    4    4    0    0  0.18121759077E+01  0.54231484029E+00 -0.18779317779E+02  0.18874344053E+02  0.51100000000E-03 0.  1.
        -12    1    4    4    0    0  0.18642216756E+02 -0.14587380180E+02 -0.62444268897E+01  0.24480947148E+02  0.00000000000E+00 0.  1.
</event>
<event>
 8    1  0.1238315E-006  0.9118800E+02  0.7816164E-02  0.1184000E+00
        -11   -1    0    0    0    0  0.00000000000E+00  0.00000000000E+00  0.45593999997E+02  0.45594000000E+02  0.51100000000E-03 0.  1.
         11   -1    0    0    0    0 -0.00000000000E+00 -0.00000000000E+00 -0.45593999997E+02  0.45594000000E+02  0.51100000000E-03 0. -1.
         23    2    1    2    0    0  0.00000000000E+00  0.35527136788E-14  0.88817841970E-15  0.91188000000E+02  0.91188000000E+02 0.  0.
    9900012    2    3    3    0    0  0.31306487549E+02 -0.18592267997E+02  0.54782533026E+01  0.54367084053E+02  0.39999999716E+02 0.  0.
        -12    1    3    3    0    0 -0.31306487549E+02  0.18592267997E+02 -0.54782533026E+01  0.36820915947E+02  0.00000000000E+00 0.  1.
         11    1    4    4    0    0  0.32670914378E+02 -0.18967053698E+02  0.14827644533E+02  0.40583208534E+02  0.51100000000E-03 0. -1.
        -11    1    4    4    0    0 -0.56326147139E+01 -0.16583489835E+00 -0.65988908458E+01  0.86775117623E+01  0.51100000000E-03 0.  1.
         12    1    4    4    0    0  0.42681878846E+01  0.54062059937E+00 -0.27505003845E+01  0.51063637567E+01  0.00000000000E+00 0. -1.
</event>
<event>
 8    1  0.1238315E-006  0.9118800E+02  0.7816164E-02  0.1184000E+00
        -11   -1    0    0    0    0  0.00000000000E+00  0.00000000000E+00  0.45593999997E+02  0.45594000000E+02  0.51100000000E-03 0. -1.
         11   -1    0    0    0    0 -0.00000000000E+00 -0.00000000000E+00 -0.45593999997E+02  0.45594000000E+02  0.51100000000E-03 0.  1.
         23    2    1    2    0    0  0.35527136788E-14  0.00000000000E+00  0.00000000000E+00  0.91188000000E+02  0.91188000000E+02 0.  0.
    9900012    2    3    3    0    0 -0.30069603169E+02  0.16154485187E+02  0.13806909639E+02  0.54367093164E+02  0.40000020486E+02 0.  0.
        -12    1    3    3    0    0  0.30069603169E+02 -0.16154485187E+02 -0.13806909639E+02  0.36820906836E+02  0.00000000000E+00 0.  1.
         11    1    4    4    0    0 -0.17046952300E+02  0.86009561738E+01  0.52346500675E+01  0.19798398708E+02  0.51100000000E-03 0. -1.
        -11    1    4    4    0    0 -0.20019552224E+02  0.87081743931E+01  0.13738750951E+02  0.25794729122E+02  0.51100000000E-03 0.  1.
        -12    1    4    4    0    0  0.69969013544E+01 -0.11546453795E+01 -0.51664913792E+01  0.87739653343E+01  0.00000000000E+00 0.  1.
</event>
<event>
 8    1  0.1238315E-006  0.9118800E+02  0.7816164E-02  0.1184000E+00
        -11   -1    0    0    0    0  0.00000000000E+00  0.00000000000E+00  0.45593999997E+02  0.45594000000E+02  0.51100000000E-03 0. -1.
         11   -1    0    0    0    0 -0.00000000000E+00 -0.00000000000E+00 -0.45593999997E+02  0.45594000000E+02  0.51100000000E-03 0.  1.
         23    2    1    2    0    0 -0.44408920985E-15 -0.13322676296E-14 -0.71054273576E-14  0.91188000000E+02  0.91188000000E+02 0.  0.
    9900012    2    3    3    0    0 -0.39812284378E+01  0.35535413065E+01 -0.36432162957E+02  0.54367077504E+02  0.39999984787E+02 0.  0.
         12    1    3    3    0    0  0.39812284378E+01 -0.35535413065E+01  0.36432162957E+02  0.36820922496E+02  0.00000000000E+00 0. -1.
         11    1    4    4    0    0 -0.87357806475E+01 -0.93608851320E+00  0.44049281013E+01  0.98282000928E+01  0.51100000000E-03 0. -1.
        -11    1    4    4    0    0  0.62781841383E+01 -0.50493360165E+01 -0.20418893395E+02  0.21950913375E+02  0.51100000000E-03 0.  1.
         12    1    4    4    0    0 -0.15236319286E+01  0.95389658363E+01 -0.20418197664E+02  0.22587964036E+02  0.00000000000E+00 0. -1.
</event>
<event>
 8    1  0.1238315E-006  0.9118800E+02  0.7816164E-02  0.1184000E+00
        -11   -1    0    0    0    0  0.00000000000E+00  0.00000000000E+00  0.45593999997E+02  0.45594000000E+02  0.51100000000E-03 0. -1.
         11   -1    0    0    0    0 -0.00000000000E+00 -0.00000000000E+00 -0.45593999997E+02  0.45594000000E+02  0.51100000000E-03 0.  1.
         23    2    1    2    0    0  0.35527136788E-14  0.00000000000E+00  0.00000000000E+00  0.91188000000E+02  0.91188000000E+02 0.  0.
    9900012    2    3    3    0    0  0.23064688389E+02  0.10938200302E+02 -0.26535934765E+02  0.54367083252E+02  0.39999997889E+02 0.  0.
         12    1    3    3    0    0 -0.23064688389E+02 -0.10938200302E+02  0.26535934765E+02  0.36820916748E+02  0.00000000000E+00 0. -1.
         11    1    4    4    0    0  0.15328852991E+02 -0.43749897657E+01  0.10857927636E+01  0.15977897723E+02  0.51100000000E-03 0. -1.
        -11    1    4    4    0    0  0.77107144543E+00  0.37219664273E+01  0.30469811210E+01  0.48715171633E+01  0.51100000000E-03 0.  1.
        -12    1    4    4    0    0  0.69647639527E+01  0.11591223641E+02 -0.30668708650E+02  0.33517668365E+02  0.00000000000E+00 0.  1.
</event>
<event>
 8    1  0.1238315E-006  0.9118800E+02  0.7816164E-02  0.1184000E+00
        -11   -1    0    0    0    0  0.00000000000E+00  0.00000000000E+00  0.45593999997E+02  0.45594000000E+02  0.51100000000E-03 0. -1.
         11   -1    0    0    0    0 -0.00000000000E+00 -0.00000000000E+00 -0.45593999997E+02  0.45594000000E+02  0.51100000000E-03 0.  1.
         23    2    1    2    0    0 -0.35527136788E-14  0.00000000000E+00 -0.17763568394E-14  0.91188000000E+02  0.91188000000E+02 0.  0.
    9900012    2    3    3    0    0  0.25644799529E+02 -0.21992475473E+02  0.14644291009E+02  0.54367082311E+02  0.39999995744E+02 0.  0.
        -12    1    3    3    0    0 -0.25644799529E+02  0.21992475473E+02 -0.14644291009E+02  0.36820917689E+02  0.00000000000E+00 0.  1.
         11    1    4    4    0    0 -0.41291255117E+01 -0.87998943624E+01  0.63847282299E+01  0.11629813976E+02  0.51100000000E-03 0.  1.
        -11    1    4    4    0    0  0.32570013800E+02 -0.12989772617E+02  0.12861102717E+02  0.37349002061E+02  0.51100000000E-03 0. -1.
        -12    1    4    4    0    0 -0.27960887597E+01 -0.20280849365E+00 -0.46015399380E+01  0.53882662739E+01  0.00000000000E+00 0.  1.
</event>
<event>
 8    1  0.1238315E-006  0.9118800E+02  0.7816164E-02  0.1184000E+00
        -11   -1    0    0    0    0  0.00000000000E+00  0.00000000000E+00  0.45593999997E+02  0.45594000000E+02  0.51100000000E-03 0. -1.
         11   -1    0    0    0    0 -0.00000000000E+00 -0.00000000000E+00 -0.45593999997E+02  0.45594000000E+02  0.51100000000E-03 0.  1.
         23    2    1    2    0    0  0.00000000000E+00  0.88817841970E-15  0.00000000000E+00  0.91188000000E+02  0.91188000000E+02 0.  0.
    9900012    2    3    3    0    0 -0.90244544200E+01  0.60695614587E+01 -0.35178009153E+02  0.54367181407E+02  0.40000221652E+02 0.  0.
         12    1    3    3    0    0  0.90244544200E+01 -0.60695614587E+01  0.35178009153E+02  0.36820818593E+02  0.00000000000E+00 0. -1.
         11    1    4    4    0    0  0.53522212376E+00 -0.25809741315E+01  0.74809539841E+00  0.27399885356E+01  0.51100000000E-03 0.  1.
        -11    1    4    4    0    0 -0.81282028455E+01 -0.97919029287E+01 -0.18576188390E+01  0.12860785064E+02  0.51100000000E-03 0. -1.
        -12    1    4    4    0    0 -0.14314736982E+01  0.18442438519E+02 -0.34068485713E+02  0.38766407807E+02  0.00000000000E+00 0.  1.
</event>
<event>
 8    1  0.1238315E-006  0.9118800E+02  0.7816164E-02  0.1184000E+00
        -11   -1    0    0    0    0  0.00000000000E+00  0.00000000000E+00  0.45593999997E+02  0.45594000000E+02  0.51100000000E-03 0.  1.
         11   -1    0    0    0    0 -0.00000000000E+00 -0.00000000000E+00 -0.45593999997E+02  0.45594000000E+02  0.51100000000E-03 0. -1.
         23    2    1    2    0    0 -0.35527136788E-14  0.00000000000E+00 -0.71054273576E-14  0.91188000000E+02  0.91188000000E+02 0.  0.
    9900012    2    3    3    0    0  0.17749104256E+02 -0.94990678396E+01  0.30830454730E+02  0.54367082975E+02  0.39999997258E+02 0.  0.
         12    1    3    3    0    0 -0.17749104256E+02  0.94990678396E+01 -0.30830454730E+02  0.36820917025E+02  0.00000000000E+00 0. -1.
         11    1    4    4    0    0 -0.49982441206E+00 -0.13955598950E+01 -0.71790452812E+01  0.73304913392E+01  0.51100000000E-03 0. -1.
        -11    1    4    4    0    0  0.18171447541E+02 -0.13037929504E+02  0.33909032062E+02  0.40620334405E+02  0.51100000000E-03 0.  1.
         12    1    4    4    0    0  0.77481126651E-01  0.49344215596E+01  0.41004679493E+01  0.64162572311E+01  0.00000000000E+00 0. -1.
</event>
<event>
 8    1  0.1238315E-006  0.9118800E+02  0.7816164E-02  0.1184000E+00
        -11   -1    0    0    0    0  0.00000000000E+00  0.00000000000E+00  0.45593999997E+02  0.45594000000E+02  0.51100000000E-03 0. -1.
         11   -1    0    0    0    0 -0.00000000000E+00 -0.00000000000E+00 -0.45593999997E+02  0.45594000000E+02  0.51100000000E-03 0.  1.
         23    2    1    2    0    0  0.88817841970E-15 -0.35527136788E-14  0.35527136788E-14  0.91188000000E+02  0.91188000000E+02 0.  0.
    9900012    2    3    3    0    0  0.44666219585E+01 -0.27132569452E+02  0.24487807536E+02  0.54367085363E+02  0.40000002702E+02 0.  0.
        -12    1    3    3    0    0 -0.44666219585E+01  0.27132569452E+02 -0.24487807536E+02  0.36820914637E+02  0.00000000000E+00 0.  1.
         11    1    4    4    0    0 -0.35825890767E+01 -0.83399465981E+01 -0.22871428727E+00  0.90797557367E+01  0.51100000000E-03 0. -1.
        -11    1    4    4    0    0 -0.35136800120E+01  0.64272450409E+01 -0.10788917856E+01  0.74040147075E+01  0.51100000000E-03 0.  1.
         12    1    4    4    0    0  0.11562891047E+02 -0.25219867895E+02  0.25795413609E+02  0.37883314919E+02  0.00000000000E+00 0. -1.
</event>
<event>
 8    1  0.1238315E-006  0.9118800E+02  0.7816164E-02  0.1184000E+00
        -11   -1    0    0    0    0  0.00000000000E+00  0.00000000000E+00  0.45593999997E+02  0.45594000000E+02  0.51100000000E-03 0. -1.
         11   -1    0    0    0    0 -0.00000000000E+00 -0.00000000000E+00 -0.45593999997E+02  0.45594000000E+02  0.51100000000E-03 0.  1.
         23    2    1    2    0    0  0.35527136788E-14 -0.88817841970E-15  0.71054273576E-14  0.91188000000E+02  0.91188000000E+02 0.  0.
    9900012    2    3    3    0    0  0.17173197366E+02 -0.65882687155E+01  0.31897559985E+02  0.54367104771E+02  0.40000046946E+02 0.  0.
        -12    1    3    3    0    0 -0.17173197366E+02  0.65882687155E+01 -0.31897559985E+02  0.36820895229E+02  0.00000000000E+00 0.  1.
         11    1    4    4    0    0 -0.34452682795E+01  0.42498270319E+01  0.67401462706E+01  0.86810411431E+01  0.51100000000E-03 0. -1.
        -11    1    4    4    0    0  0.13653436790E+02  0.28408886473E+01 -0.23913574015E+01  0.14149401930E+02  0.51100000000E-03 0.  1.
         12    1    4    4    0    0  0.69650288559E+01 -0.13678984395E+02  0.27548771116E+02  0.31536661698E+02  0.00000000000E+00 0. -1.
</event>
<event>
 8    1  0.1238315E-006  0.9118800E+02  0.7816164E-02  0.1184000E+00
        -11   -1    0    0    0    0  0.00000000000E+00  0.00000000000E+00  0.45593999997E+02  0.45594000000E+02  0.51100000000E-03 0.  1.
         11   -1    0    0    0    0 -0.00000000000E+00 -0.00000000000E+00 -0.45593999997E+02  0.45594000000E+02  0.51100000000E-03 0. -1.
         23    2    1    2    0    0  0.88817841970E-15  0.00000000000E+00  0.33306690739E-15  0.91188000000E+02  0.91188000000E+02 0.  0.
    9900012    2    3    3    0    0 -0.65993824076E+01 -0.36214396082E+02 -0.86513282454E+00  0.54367044193E+02  0.39999908846E+02 0.  0.
         12    1    3    3    0    0  0.65993824076E+01  0.36214396082E+02  0.86513282454E+00  0.36820955807E+02  0.00000000000E+00 0. -1.
         11    1    4    4    0    0 -0.18089670232E+01 -0.64000132462E+01  0.96904277113E+01  0.11753166413E+02  0.51100000000E-03 0. -1.
        -11    1    4    4    0    0 -0.10706881055E+02 -0.14631243939E+02  0.62767433331E+01  0.19186143653E+02  0.51100000000E-03 0.  1.
         12    1    4    4    0    0  0.59164656704E+01 -0.15183138897E+02 -0.16832303869E+02  0.23427734127E+02  0.00000000000E+00 0. -1.
</event>
<event>
 8    1  0.1238315E-006  0.9118800E+02  0.7816164E-02  0.1184000E+00
        -11   -1    0    0    0    0  0.00000000000E+00  0.00000000000E+00  0.45593999997E+02  0.45594000000E+02  0.51100000000E-03 0. -1.
         11   -1    0    0    0    0 -0.00000000000E+00 -0.00000000000E+00 -0.45593999997E+02  0.45594000000E+02  0.51100000000E-03 0.  1.
         23    2    1    2    0    0  0.00000000000E+00  0.17763568394E-14  0.00000000000E+00  0.91188000000E+02  0.91188000000E+02 0.  0.
    9900012    2    3    3    0    0  0.26190736059E+02  0.13793686053E+02 -0.21898836576E+02  0.54367089180E+02  0.40000011403E+02 0.  0.
         12    1    3    3    0    0 -0.26190736059E+02 -0.13793686053E+02  0.21898836576E+02  0.36820910820E+02  0.00000000000E+00 0. -1.
         11    1    4    4    0    0  0.13459029987E+02  0.57618780755E+01  0.56041969590E+01  0.15676471253E+02  0.51100000000E-03 0. -1.
        -11    1    4    4    0    0 -0.57563105996E+01  0.19195268465E+01 -0.13206124268E+02  0.14533458414E+02  0.51100000000E-03 0.  1.
        -12    1    4    4    0    0  0.18488016672E+02  0.61122811310E+01 -0.14296909267E+02  0.24157159512E+02  0.00000000000E+00 0.  1.
</event>
<event>
 8    1  0.1238315E-006  0.9118800E+02  0.7816164E-02  0.1184000E+00
        -11   -1    0    0    0    0  0.00000000000E+00  0.00000000000E+00  0.45593999997E+02  0.45594000000E+02  0.51100000000E-03 0. -1.
         11   -1    0    0    0    0 -0.00000000000E+00 -0.00000000000E+00 -0.45593999997E+02  0.45594000000E+02  0.51100000000E-03 0.  1.
         23    2    1    2    0    0  0.00000000000E+00  0.00000000000E+00  0.00000000000E+00  0.91188000000E+02  0.91188000000E+02 0.  0.
    9900012    2    3    3    0    0 -0.19002464349E+02 -0.26070161545E+02 -0.17749199942E+02  0.54367067463E+02  0.39999961895E+02 0.  0.
         12    1    3    3    0    0  0.19002464349E+02  0.26070161545E+02  0.17749199942E+02  0.36820932537E+02  0.00000000000E+00 0. -1.
         11    1    4    4    0    0  0.43373532771E+01 -0.18825389187E+02 -0.25114945963E+01  0.19481157996E+02  0.51100000000E-03 0. -1.
        -11    1    4    4    0    0 -0.17682502919E+02 -0.26392502509E+01  0.12539916097E+00  0.17878822013E+02  0.51100000000E-03 0.  1.
        -12    1    4    4    0    0 -0.56573147076E+01 -0.46055221071E+01 -0.15363104506E+02  0.17007087454E+02  0.00000000000E+00 0.  1.
</event>
<event>
 8    1  0.1238315E-006  0.9118800E+02  0.7816164E-02  0.1184000E+00
        -11   -1    0    0    0    0  0.00000000000E+00  0.00000000000E+00  0.45593999997E+02  0.45594000000E+02  0.51100000000E-03 0.  1.
         11   -1    0    0    0    0 -0.00000000000E+00 -0.00000000000E+00 -0.45593999997E+02  0.45594000000E+02  0.51100000000E-03 0. -1.
         23    2    1    2    0    0 -0.35527136788E-14  0.22204460493E-15  0.00000000000E+00  0.91188000000E+02  0.91188000000E+02 0.  0.
    9900012    2    3    3    0    0 -0.29519734660E+02 -0.86916216877E+00  0.21991186822E+02  0.54367048422E+02  0.39999918487E+02 0.  0.
         12    1    3    3    0    0  0.29519734660E+02  0.86916216877E+00 -0.21991186822E+02  0.36820951578E+02  0.00000000000E+00 0. -1.
         11    1    4    4    0    0 -0.78891491574E+01 -0.10442455040E+02  0.16194935566E+02  0.20822091152E+02  0.51100000000E-03 0. -1.
        -11    1    4    4    0    0 -0.44557625039E+01  0.12660763485E+02 -0.33633742843E+01  0.13836944690E+02  0.51100000000E-03 0.  1.
        -12    1    4    4    0    0 -0.17174822999E+02 -0.30874706129E+01  0.91596255409E+01  0.19708012580E+02  0.00000000000E+00 0.  1.
</event>
<event>
 8    1  0.1238315E-006  0.9118800E+02  0.7816164E-02  0.1184000E+00
        -11   -1    0    0    0    0  0.00000000000E+00  0.00000000000E+00  0.45593999997E+02  0.45594000000E+02  0.51100000000E-03 0.  1.
         11   -1    0    0    0    0 -0.00000000000E+00 -0.00000000000E+00 -0.45593999997E+02  0.45594000000E+02  0.51100000000E-03 0. -1.
         23    2    1    2    0    0  0.00000000000E+00  0.17763568394E-14  0.17763568394E-14  0.91188000000E+02  0.91188000000E+02 0.  0.
    9900012    2    3    3    0    0  0.35160520486E+02  0.61257151176E+01  0.90549986139E+01  0.54367087648E+02  0.40000007912E+02 0.  0.
        -12    1    3    3    0    0 -0.35160520486E+02 -0.61257151176E+01 -0.90549986139E+01  0.36820912352E+02  0.00000000000E+00 0.  1.
         11    1    4    4    0    0  0.28907448784E+02  0.62861853223E+01 -0.16884294348E+01  0.29631191595E+02  0.51100000000E-03 0. -1.
        -11    1    4    4    0    0  0.60961025950E+01 -0.68615787836E+01 -0.28239504402E+01  0.96030425701E+01  0.51100000000E-03 0.  1.
        -12    1    4    4    0    0  0.15696910625E+00  0.67011085789E+01  0.13567378489E+02  0.15132853483E+02  0.00000000000E+00 0.  1.
</event>
<event>
 8    1  0.1238315E-006  0.9118800E+02  0.7816164E-02  0.1184000E+00
        -11   -1    0    0    0    0  0.00000000000E+00  0.00000000000E+00  0.45593999997E+02  0.45594000000E+02  0.51100000000E-03 0. -1.
         11   -1    0    0    0    0 -0.00000000000E+00 -0.00000000000E+00 -0.45593999997E+02  0.45594000000E+02  0.51100000000E-03 0.  1.
         23    2    1    2    0    0 -0.17763568394E-14  0.00000000000E+00  0.88817841970E-15  0.91188000000E+02  0.91188000000E+02 0.  0.
    9900012    2    3    3    0    0  0.13651470622E+02 -0.34136527526E+02  0.20283357377E+01  0.54367091435E+02  0.40000016545E+02 0.  0.
        -12    1    3    3    0    0 -0.13651470622E+02  0.34136527526E+02 -0.20283357377E+01  0.36820908565E+02  0.00000000000E+00 0.  1.
         11    1    4    4    0    0 -0.65065383665E+01 -0.22578035352E+01  0.11784073790E+02  0.13649070066E+02  0.51100000000E-03 0. -1.
        -11    1    4    4    0    0  0.21036720593E+02 -0.31497340667E+02 -0.10714474123E+02  0.39362749376E+02  0.51100000000E-03 0.  1.
        -12    1    4    4    0    0 -0.87871160432E+00 -0.38138332322E+00  0.95873607023E+00  0.13552719931E+01  0.00000000000E+00 0.  1.
</event>
<event>
 8    1  0.1238315E-006  0.9118800E+02  0.7816164E-02  0.1184000E+00
        -11   -1    0    0    0    0  0.00000000000E+00  0.00000000000E+00  0.45593999997E+02  0.45594000000E+02  0.51100000000E-03 0.  1.
         11   -1    0    0    0    0 -0.00000000000E+00 -0.00000000000E+00 -0.45593999997E+02  0.45594000000E+02  0.51100000000E-03 0. -1.
         23    2    1    2    0    0 -0.35527136788E-14  0.00000000000E+00  0.00000000000E+00  0.91188000000E+02  0.91188000000E+02 0.  0.
    9900012    2    3    3    0    0 -0.22983145547E+02 -0.19674775217E+02 -0.20987091745E+02  0.54367085034E+02  0.40000001951E+02 0.  0.
        -12    1    3    3    0    0  0.22983145547E+02  0.19674775217E+02  0.20987091745E+02  0.36820914966E+02  0.00000000000E+00 0.  1.
         11    1    4    4    0    0 -0.16785764058E+02 -0.17757139243E+02 -0.12304812762E+02  0.27358477416E+02  0.51100000000E-03 0. -1.
        -11    1    4    4    0    0  0.59667956489E+01 -0.19509824028E+01 -0.12725778884E+02  0.14189941195E+02  0.51100000000E-03 0.  1.
        -12    1    4    4    0    0 -0.12164177137E+02  0.33346429611E-01  0.40434999013E+01  0.12818666423E+02  0.00000000000E+00 0.  1.
</event>
<event>
 8    1  0.1238315E-006  0.9118800E+02  0.7816164E-02  0.1184000E+00
        -11   -1    0    0    0    0  0.00000000000E+00  0.00000000000E+00  0.45593999997E+02  0.45594000000E+02  0.51100000000E-03 0.  1.
         11   -1    0    0    0    0 -0.00000000000E+00 -0.00000000000E+00 -0.45593999997E+02  0.45594000000E+02  0.51100000000E-03 0. -1.
         23    2    1    2    0    0 -0.35527136788E-14  0.00000000000E+00  0.00000000000E+00  0.91188000000E+02  0.91188000000E+02 0.  0.
    9900012    2    3    3    0    0  0.45262991027E+01 -0.14055261830E+02  0.33730426674E+02  0.54367089470E+02  0.40000012064E+02 0.  0.
         12    1    3    3    0    0 -0.45262991027E+01  0.14055261830E+02 -0.33730426674E+02  0.36820910530E+02  0.00000000000E+00 0. -1.
         11    1    4    4    0    0  0.96094952670E+01 -0.26482572292E+01  0.54619703865E+01  0.11366124511E+02  0.51100000000E-03 0. -1.
        -11    1    4    4    0    0 -0.17259799398E+02 -0.43416143918E+01  0.11890620396E+02  0.21404138489E+02  0.51100000000E-03 0.  1.
        -12    1    4    4    0    0  0.12176603233E+02 -0.70653902093E+01  0.16377835891E+02  0.21596826470E+02  0.00000000000E+00 0.  1.
</event>
<event>
 8    1  0.1238315E-006  0.9118800E+02  0.7816164E-02  0.1184000E+00
        -11   -1    0    0    0    0  0.00000000000E+00  0.00000000000E+00  0.45593999997E+02  0.45594000000E+02  0.51100000000E-03 0. -1.
         11   -1    0    0    0    0 -0.00000000000E+00 -0.00000000000E+00 -0.45593999997E+02  0.45594000000E+02  0.51100000000E-03 0.  1.
         23    2    1    2    0    0  0.00000000000E+00  0.00000000000E+00 -0.35527136788E-14  0.91188000000E+02  0.91188000000E+02 0.  0.
    9900012    2    3    3    0    0 -0.16061136232E+02  0.18629807132E+02  0.27399799873E+02  0.54367097731E+02  0.40000030898E+02 0.  0.
        -12    1    3    3    0    0  0.16061136232E+02 -0.18629807132E+02 -0.27399799873E+02  0.36820902269E+02  0.00000000000E+00 0.  1.
         11    1    4    4    0    0 -0.15619010782E+02  0.13511662853E+02  0.36628843199E+02  0.42049859515E+02  0.51100000000E-03 0. -1.
        -11    1    4    4    0    0 -0.25064363260E+01 -0.12743714990E+00 -0.25614638085E+01  0.35860229206E+01  0.51100000000E-03 0.  1.
         12    1    4    4    0    0  0.20643108753E+01  0.52455814288E+01 -0.66675795179E+01  0.87312152959E+01  0.00000000000E+00 0. -1.
</event>
<event>
 8    1  0.1238315E-006  0.9118800E+02  0.7816164E-02  0.1184000E+00
        -11   -1    0    0    0    0  0.00000000000E+00  0.00000000000E+00  0.45593999997E+02  0.45594000000E+02  0.51100000000E-03 0. -1.
         11   -1    0    0    0    0 -0.00000000000E+00 -0.00000000000E+00 -0.45593999997E+02  0.45594000000E+02  0.51100000000E-03 0.  1.
         23    2    1    2    0    0  0.35527136788E-14  0.35527136788E-14 -0.22204460493E-14  0.91188000000E+02  0.91188000000E+02 0.  0.
    9900012    2    3    3    0    0  0.21037030968E+02 -0.30018659214E+02  0.34789070648E+01  0.54367090623E+02  0.40000014694E+02 0.  0.
        -12    1    3    3    0    0 -0.21037030968E+02  0.30018659214E+02 -0.34789070648E+01  0.36820909377E+02  0.00000000000E+00 0.  1.
         11    1    4    4    0    0  0.18497684932E+02 -0.27565268228E+02  0.17003389287E+02  0.37297769475E+02  0.51100000000E-03 0. -1.
        -11    1    4    4    0    0  0.39141313962E+01 -0.56793062245E+01 -0.86113796699E+01  0.11033168351E+02  0.51100000000E-03 0.  1.
         12    1    4    4    0    0 -0.13747853603E+01  0.32259152382E+01 -0.49131025520E+01  0.60361527977E+01  0.00000000000E+00 0. -1.
</event>
<event>
 8    1  0.1238315E-006  0.9118800E+02  0.7816164E-02  0.1184000E+00
        -11   -1    0    0    0    0  0.00000000000E+00  0.00000000000E+00  0.45593999997E+02  0.45594000000E+02  0.51100000000E-03 0. -1.
         11   -1    0    0    0    0 -0.00000000000E+00 -0.00000000000E+00 -0.45593999997E+02  0.45594000000E+02  0.51100000000E-03 0.  1.
         23    2    1    2    0    0  0.00000000000E+00  0.00000000000E+00  0.00000000000E+00  0.91188000000E+02  0.91188000000E+02 0.  0.
    9900012    2    3    3    0    0  0.35261834738E+02 -0.55829507982E+01  0.90118125613E+01  0.54367094330E+02  0.40000023145E+02 0.  0.
        -12    1    3    3    0    0 -0.35261834738E+02  0.55829507982E+01 -0.90118125613E+01  0.36820905670E+02  0.00000000000E+00 0.  1.
         11    1    4    4    0    0  0.85831127900E+01 -0.14299304537E+02  0.93670267592E+01  0.19128019395E+02  0.51100000000E-03 0. -1.
        -11    1    4    4    0    0  0.28906462311E+02  0.29626183722E+01  0.17277074564E-01  0.29057889973E+02  0.51100000000E-03 0.  1.
         12    1    4    4    0    0 -0.22277403631E+01  0.57537353662E+01 -0.37249127246E+00  0.61811849623E+01  0.00000000000E+00 0. -1.
</event>
<event>
 8    1  0.1238315E-006  0.9118800E+02  0.7816164E-02  0.1184000E+00
        -11   -1    0    0    0    0  0.00000000000E+00  0.00000000000E+00  0.45593999997E+02  0.45594000000E+02  0.51100000000E-03 0.  1.
         11   -1    0    0    0    0 -0.00000000000E+00 -0.00000000000E+00 -0.45593999997E+02  0.45594000000E+02  0.51100000000E-03 0. -1.
         23    2    1    2    0    0  0.00000000000E+00  0.00000000000E+00  0.00000000000E+00  0.91188000000E+02  0.91188000000E+02 0.  0.
    9900012    2    3    3    0    0 -0.17452686343E+02 -0.69002187913E+01 -0.31679276307E+02  0.54367002902E+02  0.39999814716E+02 0.  0.
        -12    1    3    3    0    0  0.17452686343E+02  0.69002187913E+01  0.31679276307E+02  0.36820997098E+02  0.00000000000E+00 0.  1.
         11    1    4    4    0    0  0.55877449754E+01  0.11435958009E+02 -0.35631420814E+01  0.13217413183E+02  0.51100000000E-03 0. -1.
        -11    1    4    4    0    0 -0.18761148578E+02 -0.11980608988E+02 -0.19227846843E+02  0.29414720501E+02  0.51100000000E-03 0.  1.
         12    1    4    4    0    0 -0.42792827404E+01 -0.63555678123E+01 -0.88882873824E+01  0.11734869219E+02  0.00000000000E+00 0. -1.
</event>
<event>
 8    1  0.1238315E-006  0.9118800E+02  0.7816164E-02  0.1184000E+00
        -11   -1    0    0    0    0  0.00000000000E+00  0.00000000000E+00  0.45593999997E+02  0.45594000000E+02  0.51100000000E-03 0. -1.
         11   -1    0    0    0    0 -0.00000000000E+00 -0.00000000000E+00 -0.45593999997E+02  0.45594000000E+02  0.51100000000E-03 0.  1.
         23    2    1    2    0    0  0.00000000000E+00  0.55511151231E-15  0.00000000000E+00  0.91188000000E+02  0.91188000000E+02 0.  0.
    9900012    2    3    3    0    0  0.35916396943E+02 -0.68188388909E+00 -0.80825962824E+01  0.54367069842E+02  0.39999967319E+02 0.  0.
         12    1    3    3    0    0 -0.35916396943E+02  0.68188388909E+00  0.80825962824E+01  0.36820930158E+02  0.00000000000E+00 0. -1.
         11    1    4    4    0    0  0.11868094337E+02  0.45008732091E+01  0.60586605851E+01  0.14064739286E+02  0.51100000000E-03 0. -1.
        -11    1    4    4    0    0  0.96576774999E+01  0.11291435795E+02 -0.10335236940E+02  0.18099292248E+02  0.51100000000E-03 0.  1.
        -12    1    4    4    0    0  0.14390625107E+02 -0.16474192893E+02 -0.38060199272E+01  0.22203038308E+02  0.00000000000E+00 0.  1.
</event>
<event>
 8    1  0.1238315E-006  0.9118800E+02  0.7816164E-02  0.1184000E+00
        -11   -1    0    0    0    0  0.00000000000E+00  0.00000000000E+00  0.45593999997E+02  0.45594000000E+02  0.51100000000E-03 0.  1.
         11   -1    0    0    0    0 -0.00000000000E+00 -0.00000000000E+00 -0.45593999997E+02  0.45594000000E+02  0.51100000000E-03 0. -1.
         23    2    1    2    0    0  0.88817841970E-15 -0.71054273576E-14  0.00000000000E+00  0.91188000000E+02  0.91188000000E+02 0.  0.
    9900012    2    3    3    0    0 -0.49748676324E+01  0.33705244382E+02  0.13963819749E+02  0.54367067519E+02  0.39999962023E+02 0.  0.
        -12    1    3    3    0    0  0.49748676324E+01 -0.33705244382E+02 -0.13963819749E+02  0.36820932481E+02  0.00000000000E+00 0.  1.
         11    1    4    4    0    0  0.36180565627E+00  0.18291711665E+02  0.13509885368E+02  0.22742792746E+02  0.51100000000E-03 0. -1.
        -11    1    4    4    0    0  0.73937562353E+00  0.17501308646E+02 -0.93856423532E+01  0.19872915319E+02  0.51100000000E-03 0.  1.
        -12    1    4    4    0    0 -0.60760489122E+01 -0.20877759290E+01  0.98395767341E+01  0.11751359454E+02  0.00000000000E+00 0.  1.
</event>
<event>
 8    1  0.1238315E-006  0.9118800E+02  0.7816164E-02  0.1184000E+00
        -11   -1    0    0    0    0  0.00000000000E+00  0.00000000000E+00  0.45593999997E+02  0.45594000000E+02  0.51100000000E-03 0.  1.
         11   -1    0    0    0    0 -0.00000000000E+00 -0.00000000000E+00 -0.45593999997E+02  0.45594000000E+02  0.51100000000E-03 0. -1.
         23    2    1    2    0    0  0.00000000000E+00  0.00000000000E+00  0.00000000000E+00  0.91188000000E+02  0.91188000000E+02 0.  0.
    9900012    2    3    3    0    0  0.26790621118E+02 -0.24235925463E+02  0.71177742418E+01  0.54367079682E+02  0.39999989751E+02 0.  0.
         12    1    3    3    0    0 -0.26790621118E+02  0.24235925463E+02 -0.71177742418E+01  0.36820920318E+02  0.00000000000E+00 0. -1.
         11    1    4    4    0    0  0.14062162533E+02  0.50785327481E+01  0.21249020214E+01  0.15101361489E+02  0.51100000000E-03 0. -1.
        -11    1    4    4    0    0  0.54376167417E+01 -0.19598802226E+02  0.13521528928E+02  0.24423604757E+02  0.51100000000E-03 0.  1.
         12    1    4    4    0    0  0.72908418432E+01 -0.97156559849E+01 -0.85286567078E+01  0.14842113436E+02  0.00000000000E+00 0. -1.
</event>
<event>
 8    1  0.1238315E-006  0.9118800E+02  0.7816164E-02  0.1184000E+00
        -11   -1    0    0    0    0  0.00000000000E+00  0.00000000000E+00  0.45593999997E+02  0.45594000000E+02  0.51100000000E-03 0.  1.
         11   -1    0    0    0    0 -0.00000000000E+00 -0.00000000000E+00 -0.45593999997E+02  0.45594000000E+02  0.51100000000E-03 0. -1.
         23    2    1    2    0    0  0.35527136788E-14  0.00000000000E+00 -0.35527136788E-14  0.91188000000E+02  0.91188000000E+02 0.  0.
    9900012    2    3    3    0    0  0.18107767156E+02  0.17004173982E+02 -0.27179892013E+02  0.54367086187E+02  0.40000004580E+02 0.  0.
        -12    1    3    3    0    0 -0.18107767156E+02 -0.17004173982E+02  0.27179892013E+02  0.36820913813E+02  0.00000000000E+00 0.  1.
         11    1    4    4    0    0  0.89317560425E+01 -0.37553571236E+00  0.20887616749E+01  0.91804258436E+01  0.51100000000E-03 0. -1.
        -11    1    4    4    0    0  0.53223012547E+01  0.15986324174E+02 -0.12777691640E+01  0.16897400556E+02  0.51100000000E-03 0.  1.
         12    1    4    4    0    0  0.38537098591E+01  0.13933855201E+01 -0.27990884524E+02  0.28289259788E+02  0.00000000000E+00 0. -1.
</event>
<event>
 8    1  0.1238315E-006  0.9118800E+02  0.7816164E-02  0.1184000E+00
        -11   -1    0    0    0    0  0.00000000000E+00  0.00000000000E+00  0.45593999997E+02  0.45594000000E+02  0.51100000000E-03 0.  1.
         11   -1    0    0    0    0 -0.00000000000E+00 -0.00000000000E+00 -0.45593999997E+02  0.45594000000E+02  0.51100000000E-03 0. -1.
         23    2    1    2    0    0  0.83266726847E-16  0.71054273576E-14  0.00000000000E+00  0.91188000000E+02  0.91188000000E+02 0.  0.
    9900012    2    3    3    0    0  0.18796550591E+00  0.33182984209E+02  0.15957261826E+02  0.54367082344E+02  0.39999995819E+02 0.  0.
        -12    1    3    3    0    0 -0.18796550591E+00 -0.33182984209E+02 -0.15957261826E+02  0.36820917656E+02  0.00000000000E+00 0.  1.
         11    1    4    4    0    0  0.51656130808E+01  0.12600633484E+02 -0.78733549188E+01  0.15730519402E+02  0.51100000000E-03 0. -1.
        -11    1    4    4    0    0 -0.63870058090E+01  0.44200952890E+01 -0.21024996091E+01  0.80468372940E+01  0.51100000000E-03 0.  1.
        -12    1    4    4    0    0  0.14093582342E+01  0.16162255436E+02  0.25933116354E+02  0.30589725648E+02  0.00000000000E+00 0.  1.
</event>
<event>
 8    1  0.1238315E-006  0.9118800E+02  0.7816164E-02  0.1184000E+00
        -11   -1    0    0    0    0  0.00000000000E+00  0.00000000000E+00  0.45593999997E+02  0.45594000000E+02  0.51100000000E-03 0.  1.
         11   -1    0    0    0    0 -0.00000000000E+00 -0.00000000000E+00 -0.45593999997E+02  0.45594000000E+02  0.51100000000E-03 0. -1.
         23    2    1    2    0    0  0.88817841970E-15  0.00000000000E+00  0.00000000000E+00  0.91188000000E+02  0.91188000000E+02 0.  0.
    9900012    2    3    3    0    0  0.78963091731E+01 -0.24108089308E+02  0.26687619204E+02  0.54367072697E+02  0.39999973828E+02 0.  0.
         12    1    3    3    0    0 -0.78963091731E+01  0.24108089308E+02 -0.26687619204E+02  0.36820927303E+02  0.00000000000E+00 0. -1.
         11    1    4    4    0    0  0.46554119844E+01 -0.45686919770E+01 -0.65139856795E+00  0.65551603703E+01  0.51100000000E-03 0. -1.
        -11    1    4    4    0    0  0.72922946990E+01 -0.18491178928E+02  0.34327021373E+02  0.39666681948E+02  0.51100000000E-03 0.  1.
         12    1    4    4    0    0 -0.40513975103E+01 -0.10482184031E+01 -0.69880036009E+01  0.81452303794E+01  0.00000000000E+00 0. -1.
</event>
<event>
 8    1  0.1238315E-006  0.9118800E+02  0.7816164E-02  0.1184000E+00
        -11   -1    0    0    0    0  0.00000000000E+00  0.00000000000E+00  0.45593999997E+02  0.45594000000E+02  0.51100000000E-03 0. -1.
         11   -1    0    0    0    0 -0.00000000000E+00 -0.00000000000E+00 -0.45593999997E+02  0.45594000000E+02  0.51100000000E-03 0.  1.
         23    2    1    2    0    0 -0.71054273576E-14  0.00000000000E+00  0.35527136788E-14  0.91188000000E+02  0.91188000000E+02 0.  0.
    9900012    2    3    3    0    0  0.24257703512E+02 -0.14108161873E+02 -0.23839122508E+02  0.54367079683E+02  0.39999989752E+02 0.  0.
         12    1    3    3    0    0 -0.24257703512E+02  0.14108161873E+02  0.23839122508E+02  0.36820920317E+02  0.00000000000E+00 0. -1.
         11    1    4    4    0    0  0.43587256490E+01 -0.62838851025E+01  0.26060054476E-03  0.76475944972E+01  0.51100000000E-03 0. -1.
        -11    1    4    4    0    0 -0.55384879061E+01  0.81799912367E+01 -0.37322932060E+01  0.10560166559E+02  0.51100000000E-03 0.  1.
        -12    1    4    4    0    0  0.25437465769E+02 -0.16004268007E+02 -0.20107089902E+02  0.36159318626E+02  0.00000000000E+00 0.  1.
</event>
<event>
 8    1  0.1238315E-006  0.9118800E+02  0.7816164E-02  0.1184000E+00
        -11   -1    0    0    0    0  0.00000000000E+00  0.00000000000E+00  0.45593999997E+02  0.45594000000E+02  0.51100000000E-03 0. -1.
         11   -1    0    0    0    0 -0.00000000000E+00 -0.00000000000E+00 -0.45593999997E+02  0.45594000000E+02  0.51100000000E-03 0.  1.
         23    2    1    2    0    0  0.00000000000E+00  0.00000000000E+00 -0.17763568394E-14  0.91188000000E+02  0.91188000000E+02 0.  0.
    9900012    2    3    3    0    0  0.51772544593E+01 -0.34979227654E+02  0.10267898375E+02  0.54367081108E+02  0.39999993002E+02 0.  0.
        -12    1    3    3    0    0 -0.51772544593E+01  0.34979227654E+02 -0.10267898375E+02  0.36820918892E+02  0.00000000000E+00 0.  1.
         11    1    4    4    0    0  0.32158473297E+01 -0.18504441368E+02  0.22794631232E+02  0.29535592726E+02  0.51100000000E-03 0. -1.
        -11    1    4    4    0    0 -0.11408044564E+01 -0.13991819214E+02 -0.27867630033E+01  0.14312179709E+02  0.51100000000E-03 0.  1.
        -12    1    4    4    0    0  0.31022115861E+01 -0.24829670725E+01 -0.97399698540E+01  0.10519308673E+02  0.00000000000E+00 0.  1.
</event>
<event>
 8    1  0.1238315E-006  0.9118800E+02  0.7816164E-02  0.1184000E+00
        -11   -1    0    0    0    0  0.00000000000E+00  0.00000000000E+00  0.45593999997E+02  0.45594000000E+02  0.51100000000E-03 0. -1.
         11   -1    0    0    0    0 -0.00000000000E+00 -0.00000000000E+00 -0.45593999997E+02  0.45594000000E+02  0.51100000000E-03 0.  1.
         23    2    1    2    0    0  0.44408920985E-15 -0.35527136788E-14 -0.71054273576E-14  0.91188000000E+02  0.91188000000E+02 0.  0.
    9900012    2    3    3    0    0  0.38681528681E+01 -0.17592893761E+02 -0.32113956525E+02  0.54367099398E+02  0.40000034697E+02 0.  0.
         12    1    3    3    0    0 -0.38681528681E+01  0.17592893761E+02  0.32113956525E+02  0.36820900602E+02  0.00000000000E+00 0. -1.
         11    1    4    4    0    0 -0.90821241679E+01 -0.16735453155E+02 -0.16391479893E+01  0.19111441026E+02  0.51100000000E-03 0. -1.
        -11    1    4    4    0    0  0.93306410520E+01 -0.62478948946E+01 -0.18914034139E+02  0.21996311980E+02  0.51100000000E-03 0.  1.
         12    1    4    4    0    0  0.36196359840E+01  0.53904542881E+01 -0.11560774396E+02  0.13259346392E+02  0.00000000000E+00 0. -1.
</event>
<event>
 8    1  0.1238315E-006  0.9118800E+02  0.7816164E-02  0.1184000E+00
        -11   -1    0    0    0    0  0.00000000000E+00  0.00000000000E+00  0.45593999997E+02  0.45594000000E+02  0.51100000000E-03 0. -1.
         11   -1    0    0    0    0 -0.00000000000E+00 -0.00000000000E+00 -0.45593999997E+02  0.45594000000E+02  0.51100000000E-03 0.  1.
         23    2    1    2    0    0  0.71054273576E-14 -0.35527136788E-14 -0.35527136788E-14  0.91188000000E+02  0.91188000000E+02 0.  0.
    9900012    2    3    3    0    0  0.20199098094E+02 -0.30499261752E+02  0.41918264382E+01  0.54367082846E+02  0.39999996963E+02 0.  0.
        -12    1    3    3    0    0 -0.20199098094E+02  0.30499261752E+02 -0.41918264382E+01  0.36820917154E+02  0.00000000000E+00 0.  1.
         11    1    4    4    0    0  0.10577433609E+01 -0.12042902862E+02  0.17326029639E+02  0.21126798946E+02  0.51100000000E-03 0. -1.
        -11    1    4    4    0    0 -0.95798475719E+00 -0.37988619010E+01 -0.63401939787E+01  0.74529958061E+01  0.51100000000E-03 0.  1.
         12    1    4    4    0    0  0.20099339490E+02 -0.14657496988E+02 -0.67940092224E+01  0.25787288094E+02  0.00000000000E+00 0. -1.
</event>
<event>
 8    1  0.1238315E-006  0.9118800E+02  0.7816164E-02  0.1184000E+00
        -11   -1    0    0    0    0  0.00000000000E+00  0.00000000000E+00  0.45593999997E+02  0.45594000000E+02  0.51100000000E-03 0.  1.
         11   -1    0    0    0    0 -0.00000000000E+00 -0.00000000000E+00 -0.45593999997E+02  0.45594000000E+02  0.51100000000E-03 0. -1.
         23    2    1    2    0    0 -0.35527136788E-14 -0.35527136788E-14  0.88817841970E-15  0.91188000000E+02  0.91188000000E+02 0.  0.
    9900012    2    3    3    0    0  0.25438543605E+02  0.25823968378E+02  0.64639801024E+01  0.54367083630E+02  0.39999998751E+02 0.  0.
         12    1    3    3    0    0 -0.25438543605E+02 -0.25823968378E+02 -0.64639801024E+01  0.36820916370E+02  0.00000000000E+00 0. -1.
         11    1    4    4    0    0  0.60286138044E+01  0.14275481983E+02 -0.94895060411E+01  0.18170973981E+02  0.51100000000E-03 0. -1.
        -11    1    4    4    0    0 -0.39620331138E+01  0.34103497934E+01 -0.20257285164E+01  0.56064042301E+01  0.51100000000E-03 0.  1.
        -12    1    4    4    0    0  0.23371962915E+02  0.81381366019E+01  0.17979214660E+02  0.30589705419E+02  0.00000000000E+00 0.  1.
</event>
<event>
 8    1  0.1238315E-006  0.9118800E+02  0.7816164E-02  0.1184000E+00
        -11   -1    0    0    0    0  0.00000000000E+00  0.00000000000E+00  0.45593999997E+02  0.45594000000E+02  0.51100000000E-03 0. -1.
         11   -1    0    0    0    0 -0.00000000000E+00 -0.00000000000E+00 -0.45593999997E+02  0.45594000000E+02  0.51100000000E-03 0.  1.
         23    2    1    2    0    0  0.00000000000E+00  0.00000000000E+00  0.00000000000E+00  0.91188000000E+02  0.91188000000E+02 0.  0.
    9900012    2    3    3    0    0  0.32725016982E+01 -0.24424296440E+02 -0.27359146208E+02  0.54367103689E+02  0.40000044479E+02 0.  0.
         12    1    3    3    0    0 -0.32725016982E+01  0.24424296440E+02  0.27359146208E+02  0.36820896311E+02  0.00000000000E+00 0. -1.
         11    1    4    4    0    0  0.33015697979E+01 -0.48114969377E+01 -0.31672827378E+01  0.66394688127E+01  0.51100000000E-03 0. -1.
        -11    1    4    4    0    0  0.11117220861E+02 -0.25308483542E+02 -0.11615841748E+02  0.29983991039E+02  0.51100000000E-03 0.  1.
         12    1    4    4    0    0 -0.11146288960E+02  0.56956840396E+01 -0.12576021722E+02  0.17743643837E+02  0.00000000000E+00 0. -1.
</event>
<event>
 8    1  0.1238315E-006  0.9118800E+02  0.7816164E-02  0.1184000E+00
        -11   -1    0    0    0    0  0.00000000000E+00  0.00000000000E+00  0.45593999997E+02  0.45594000000E+02  0.51100000000E-03 0. -1.
         11   -1    0    0    0    0 -0.00000000000E+00 -0.00000000000E+00 -0.45593999997E+02  0.45594000000E+02  0.51100000000E-03 0.  1.
         23    2    1    2    0    0  0.17763568394E-14 -0.17763568394E-14  0.00000000000E+00  0.91188000000E+02  0.91188000000E+02 0.  0.
    9900012    2    3    3    0    0 -0.94294209975E+01  0.12869242739E+02 -0.33185022590E+02  0.54367121231E+02  0.40000084471E+02 0.  0.
         12    1    3    3    0    0  0.94294209975E+01 -0.12869242739E+02  0.33185022590E+02  0.36820878769E+02  0.00000000000E+00 0. -1.
         11    1    4    4    0    0  0.52748304804E+01 -0.42631864728E+01 -0.24648017838E+02  0.25564103331E+02  0.51100000000E-03 0. -1.
        -11    1    4    4    0    0 -0.11089178217E+02  0.71371893800E+01 -0.11788022722E+02  0.17688041885E+02  0.51100000000E-03 0.  1.
         12    1    4    4    0    0 -0.36150732612E+01  0.99952398318E+01  0.32510179704E+01  0.11114976015E+02  0.00000000000E+00 0. -1.
</event>
<event>
 8    1  0.1238315E-006  0.9118800E+02  0.7816164E-02  0.1184000E+00
        -11   -1    0    0    0    0  0.00000000000E+00  0.00000000000E+00  0.45593999997E+02  0.45594000000E+02  0.51100000000E-03 0. -1.
         11   -1    0    0    0    0 -0.00000000000E+00 -0.00000000000E+00 -0.45593999997E+02  0.45594000000E+02  0.51100000000E-03 0.  1.
         23    2    1    2    0    0  0.28865798640E-14  0.00000000000E+00  0.00000000000E+00  0.91188000000E+02  0.91188000000E+02 0.  0.
    9900012    2    3    3    0    0  0.16020043574E+01  0.16764796854E+02 -0.32743777286E+02  0.54367084986E+02  0.40000001843E+02 0.  0.
         12    1    3    3    0    0 -0.16020043574E+01 -0.16764796854E+02  0.32743777286E+02  0.36820915014E+02  0.00000000000E+00 0. -1.
         11    1    4    4    0    0 -0.10611613799E+02  0.81656723501E+01 -0.23859646112E+02  0.27359957332E+02  0.51100000000E-03 0.  1.
        -11    1    4    4    0    0 -0.58501552918E+01  0.14183921720E+01 -0.27963315706E+01  0.66374410586E+01  0.51100000000E-03 0. -1.
         12    1    4    4    0    0  0.18063773448E+02  0.71807323315E+01 -0.60877996037E+01  0.20369686596E+02  0.00000000000E+00 0. -1.
</event>
<event>
 8    1  0.1238315E-006  0.9118800E+02  0.7816164E-02  0.1184000E+00
        -11   -1    0    0    0    0  0.00000000000E+00  0.00000000000E+00  0.45593999997E+02  0.45594000000E+02  0.51100000000E-03 0.  1.
         11   -1    0    0    0    0 -0.00000000000E+00 -0.00000000000E+00 -0.45593999997E+02  0.45594000000E+02  0.51100000000E-03 0. -1.
         23    2    1    2    0    0 -0.35527136788E-14  0.00000000000E+00 -0.88817841970E-15  0.91188000000E+02  0.91188000000E+02 0.  0.
    9900012    2    3    3    0    0 -0.18981453533E+02 -0.31127121321E+02 -0.51562782212E+01  0.54367075717E+02  0.39999980713E+02 0.  0.
        -12    1    3    3    0    0  0.18981453533E+02  0.31127121321E+02  0.51562782212E+01  0.36820924283E+02  0.00000000000E+00 0.  1.
         11    1    4    4    0    0  0.42475574499E+01 -0.19829814596E+00  0.20231921013E+01  0.47089672949E+01  0.51100000000E-03 0. -1.
        -11    1    4    4    0    0 -0.29220907820E+02 -0.26496620064E+02 -0.11443267055E+02  0.41071653117E+02  0.51100000000E-03 0.  1.
        -12    1    4    4    0    0  0.59918968374E+01 -0.44322031114E+01  0.42637967326E+01  0.85864553051E+01  0.00000000000E+00 0.  1.
</event>
<event>
 8    1  0.1238315E-006  0.9118800E+02  0.7816164E-02  0.1184000E+00
        -11   -1    0    0    0    0  0.00000000000E+00  0.00000000000E+00  0.45593999997E+02  0.45594000000E+02  0.51100000000E-03 0. -1.
         11   -1    0    0    0    0 -0.00000000000E+00 -0.00000000000E+00 -0.45593999997E+02  0.45594000000E+02  0.51100000000E-03 0.  1.
         23    2    1    2    0    0  0.53290705182E-14 -0.88817841970E-15 -0.71054273576E-14  0.91188000000E+02  0.91188000000E+02 0.  0.
    9900012    2    3    3    0    0 -0.14931911070E+02  0.37691452903E+01  0.33445641972E+02  0.54367090297E+02  0.40000013951E+02 0.  0.
        -12    1    3    3    0    0  0.14931911070E+02 -0.37691452903E+01 -0.33445641972E+02  0.36820909703E+02  0.00000000000E+00 0.  1.
         11    1    4    4    0    0  0.83280734268E+01  0.11501942185E+02  0.80833347512E+01  0.16339883169E+02  0.51100000000E-03 0. -1.
        -11    1    4    4    0    0 -0.11757158794E+02  0.15830833656E+01  0.50491188269E+01  0.12893042195E+02  0.51100000000E-03 0.  1.
         12    1    4    4    0    0 -0.11502825703E+02 -0.93158802602E+01  0.20313188393E+02  0.25134164933E+02  0.00000000000E+00 0. -1.
</event>
<event>
 8    1  0.1238315E-006  0.9118800E+02  0.7816164E-02  0.1184000E+00
        -11   -1    0    0    0    0  0.00000000000E+00  0.00000000000E+00  0.45593999997E+02  0.45594000000E+02  0.51100000000E-03 0. -1.
         11   -1    0    0    0    0 -0.00000000000E+00 -0.00000000000E+00 -0.45593999997E+02  0.45594000000E+02  0.51100000000E-03 0.  1.
         23    2    1    2    0    0  0.00000000000E+00  0.00000000000E+00  0.00000000000E+00  0.91188000000E+02  0.91188000000E+02 0.  0.
    9900012    2    3    3    0    0 -0.14706750448E+02 -0.48589781051E+01 -0.33404815230E+02  0.54367083967E+02  0.39999999519E+02 0.  0.
         12    1    3    3    0    0  0.14706750448E+02  0.48589781051E+01  0.33404815230E+02  0.36820916033E+02  0.00000000000E+00 0. -1.
         11    1    4    4    0    0 -0.23571702464E+01 -0.27646630255E+01  0.48000637260E+01  0.60199854859E+01  0.51100000000E-03 0. -1.
        -11    1    4    4    0    0 -0.17521051118E+01  0.76710942407E+01 -0.38876263636E+00  0.78782419245E+01  0.51100000000E-03 0.  1.
        -12    1    4    4    0    0 -0.10597475090E+02 -0.97654093203E+01 -0.37816116320E+02  0.40468856556E+02  0.00000000000E+00 0.  1.
</event>
<event>
 8    1  0.1238315E-006  0.9118800E+02  0.7816164E-02  0.1184000E+00
        -11   -1    0    0    0    0  0.00000000000E+00  0.00000000000E+00  0.45593999997E+02  0.45594000000E+02  0.51100000000E-03 0.  1.
         11   -1    0    0    0    0 -0.00000000000E+00 -0.00000000000E+00 -0.45593999997E+02  0.45594000000E+02  0.51100000000E-03 0. -1.
         23    2    1    2    0    0 -0.13322676296E-14  0.17763568394E-14  0.00000000000E+00  0.91188000000E+02  0.91188000000E+02 0.  0.
    9900012    2    3    3    0    0 -0.32713495799E+01  0.11985273141E+02  0.34661671291E+02  0.54367082616E+02  0.39999996440E+02 0.  0.
         12    1    3    3    0    0  0.32713495799E+01 -0.11985273141E+02 -0.34661671291E+02  0.36820917384E+02  0.00000000000E+00 0. -1.
         11    1    4    4    0    0  0.54407077601E+01 -0.10246676014E+02  0.45007093799E+01  0.12443956584E+02  0.51100000000E-03 0. -1.
        -11    1    4    4    0    0 -0.12140978181E+02  0.14135573011E+02  0.13254602429E+02  0.22867056246E+02  0.51100000000E-03 0.  1.
         12    1    4    4    0    0  0.34289208407E+01  0.80963761445E+01  0.16906359482E+02  0.19056069787E+02  0.00000000000E+00 0. -1.
</event>
<event>
 8    1  0.1238315E-006  0.9118800E+02  0.7816164E-02  0.1184000E+00
        -11   -1    0    0    0    0  0.00000000000E+00  0.00000000000E+00  0.45593999997E+02  0.45594000000E+02  0.51100000000E-03 0. -1.
         11   -1    0    0    0    0 -0.00000000000E+00 -0.00000000000E+00 -0.45593999997E+02  0.45594000000E+02  0.51100000000E-03 0.  1.
         23    2    1    2    0    0 -0.17763568394E-14  0.00000000000E+00 -0.35527136788E-14  0.91188000000E+02  0.91188000000E+02 0.  0.
    9900012    2    3    3    0    0 -0.15805580419E+02 -0.11605536331E+02 -0.31165278901E+02  0.54367089434E+02  0.40000011983E+02 0.  0.
         12    1    3    3    0    0  0.15805580419E+02  0.11605536331E+02  0.31165278901E+02  0.36820910566E+02  0.00000000000E+00 0. -1.
         11    1    4    4    0    0 -0.51226083977E+01 -0.13292822134E+02  0.42670022218E+01  0.14871030405E+02  0.51100000000E-03 0. -1.
        -11    1    4    4    0    0 -0.30390918887E+01 -0.20007743190E+01 -0.65361397901E+00  0.36968079309E+01  0.51100000000E-03 0.  1.
         12    1    4    4    0    0 -0.76438801326E+01  0.36880601217E+01 -0.34778667144E+02  0.35799251099E+02  0.00000000000E+00 0. -1.
</event>
<event>
 8    1  0.1238315E-006  0.9118800E+02  0.7816164E-02  0.1184000E+00
        -11   -1    0    0    0    0  0.00000000000E+00  0.00000000000E+00  0.45593999997E+02  0.45594000000E+02  0.51100000000E-03 0.  1.
         11   -1    0    0    0    0 -0.00000000000E+00 -0.00000000000E+00 -0.45593999997E+02  0.45594000000E+02  0.51100000000E-03 0. -1.
         23    2    1    2    0    0  0.00000000000E+00 -0.77715611724E-15 -0.35527136788E-14  0.91188000000E+02  0.91188000000E+02 0.  0.
    9900012    2    3    3    0    0 -0.32326239496E+02 -0.48775092150E+00 -0.17622514146E+02  0.54367127309E+02  0.40000098325E+02 0.  0.
        -12    1    3    3    0    0  0.32326239496E+02  0.48775092150E+00  0.17622514146E+02  0.36820872691E+02  0.00000000000E+00 0.  1.
         11    1    4    4    0    0 -0.37322082034E+02 -0.46707386874E+01 -0.97536973974E+01  0.38857280147E+02  0.51100000000E-03 0. -1.
        -11    1    4    4    0    0  0.45927248252E+01  0.44812750343E+01  0.11142489373E+01  0.65127949614E+01  0.51100000000E-03 0.  1.
        -12    1    4    4    0    0  0.40311771224E+00 -0.29828726837E+00 -0.89830656858E+01  0.89970522006E+01  0.00000000000E+00 0.  1.
</event>
<event>
 8    1  0.1238315E-006  0.9118800E+02  0.7816164E-02  0.1184000E+00
        -11   -1    0    0    0    0  0.00000000000E+00  0.00000000000E+00  0.45593999997E+02  0.45594000000E+02  0.51100000000E-03 0.  1.
         11   -1    0    0    0    0 -0.00000000000E+00 -0.00000000000E+00 -0.45593999997E+02  0.45594000000E+02  0.51100000000E-03 0. -1.
         23    2    1    2    0    0  0.00000000000E+00  0.44408920985E-15  0.00000000000E+00  0.91188000000E+02  0.91188000000E+02 0.  0.
    9900012    2    3    3    0    0  0.10627555475E+02  0.32024949621E+01  0.35108120054E+02  0.54367068411E+02  0.39999964057E+02 0.  0.
         12    1    3    3    0    0 -0.10627555475E+02 -0.32024949621E+01 -0.35108120054E+02  0.36820931589E+02  0.00000000000E+00 0. -1.
         11    1    4    4    0    0  0.18827719063E+02  0.59441901968E+01  0.30173987110E+02  0.36059477264E+02  0.51100000000E-03 0. -1.
        -11    1    4    4    0    0 -0.36986980783E+01 -0.23163049937E+01  0.10361801074E+02  0.11243333938E+02  0.51100000000E-03 0.  1.
         12    1    4    4    0    0 -0.45014655094E+01 -0.42539024102E+00 -0.54276681296E+01  0.70642572089E+01  0.00000000000E+00 0. -1.
</event>
<event>
 8    1  0.1238315E-006  0.9118800E+02  0.7816164E-02  0.1184000E+00
        -11   -1    0    0    0    0  0.00000000000E+00  0.00000000000E+00  0.45593999997E+02  0.45594000000E+02  0.51100000000E-03 0. -1.
         11   -1    0    0    0    0 -0.00000000000E+00 -0.00000000000E+00 -0.45593999997E+02  0.45594000000E+02  0.51100000000E-03 0.  1.
         23    2    1    2    0    0  0.13322676296E-14  0.88817841970E-15  0.00000000000E+00  0.91188000000E+02  0.91188000000E+02 0.  0.
    9900012    2    3    3    0    0 -0.18130966356E+01  0.78443249706E+01 -0.35929939501E+02  0.54367064295E+02  0.39999954673E+02 0.  0.
         12    1    3    3    0    0  0.18130966356E+01 -0.78443249706E+01  0.35929939501E+02  0.36820935705E+02  0.00000000000E+00 0. -1.
         11    1    4    4    0    0 -0.51071933016E+01  0.59332653609E+01 -0.86065390619E+01  0.11634413442E+02  0.51100000000E-03 0. -1.
        -11    1    4    4    0    0  0.13718037568E+02  0.72445472854E+01 -0.26855320370E+02  0.31014129885E+02  0.51100000000E-03 0.  1.
         12    1    4    4    0    0 -0.10423940902E+02 -0.53334876757E+01 -0.46808006956E+00  0.11718520968E+02  0.00000000000E+00 0. -1.
</event>
<event>
 8    1  0.1238315E-006  0.9118800E+02  0.7816164E-02  0.1184000E+00
        -11   -1    0    0    0    0  0.00000000000E+00  0.00000000000E+00  0.45593999997E+02  0.45594000000E+02  0.51100000000E-03 0. -1.
         11   -1    0    0    0    0 -0.00000000000E+00 -0.00000000000E+00 -0.45593999997E+02  0.45594000000E+02  0.51100000000E-03 0.  1.
         23    2    1    2    0    0 -0.35527136788E-14  0.00000000000E+00  0.00000000000E+00  0.91188000000E+02  0.91188000000E+02 0.  0.
    9900012    2    3    3    0    0 -0.31383383404E+02 -0.18716371107E+02  0.45343968899E+01  0.54367081266E+02  0.39999993361E+02 0.  0.
         12    1    3    3    0    0  0.31383383404E+02  0.18716371107E+02 -0.45343968899E+01  0.36820918734E+02  0.00000000000E+00 0. -1.
         11    1    4    4    0    0  0.39368102107E+01 -0.50146382852E+00 -0.43415518453E+01  0.58820925947E+01  0.51100000000E-03 0. -1.
        -11    1    4    4    0    0 -0.38886865667E+02 -0.12409429740E+02  0.82354220589E+01  0.41641378995E+02  0.51100000000E-03 0.  1.
        -12    1    4    4    0    0  0.35666720522E+01 -0.58054775381E+01  0.64052667630E+00  0.68436096759E+01  0.00000000000E+00 0.  1.
</event>
<event>
 8    1  0.1238315E-006  0.9118800E+02  0.7816164E-02  0.1184000E+00
        -11   -1    0    0    0    0  0.00000000000E+00  0.00000000000E+00  0.45593999997E+02  0.45594000000E+02  0.51100000000E-03 0. -1.
         11   -1    0    0    0    0 -0.00000000000E+00 -0.00000000000E+00 -0.45593999997E+02  0.45594000000E+02  0.51100000000E-03 0.  1.
         23    2    1    2    0    0  0.00000000000E+00  0.00000000000E+00  0.00000000000E+00  0.91188000000E+02  0.91188000000E+02 0.  0.
    9900012    2    3    3    0    0 -0.31350800294E+02 -0.17748787825E+02  0.76083725220E+01  0.54367089082E+02  0.40000011181E+02 0.  0.
        -12    1    3    3    0    0  0.31350800294E+02  0.17748787825E+02 -0.76083725220E+01  0.36820910918E+02  0.00000000000E+00 0.  1.
         11    1    4    4    0    0 -0.11899578491E+02 -0.17715615347E+01 -0.14474334588E+02  0.18821391037E+02  0.51100000000E-03 0. -1.
        -11    1    4    4    0    0 -0.28306559204E+01 -0.78457184050E+01  0.27428706939E+01  0.87801623069E+01  0.51100000000E-03 0.  1.
         12    1    4    4    0    0 -0.16620565883E+02 -0.81315078856E+01  0.19339836416E+02  0.26765535738E+02  0.00000000000E+00 0. -1.
</event>
<event>
 8    1  0.1238315E-006  0.9118800E+02  0.7816164E-02  0.1184000E+00
        -11   -1    0    0    0    0  0.00000000000E+00  0.00000000000E+00  0.45593999997E+02  0.45594000000E+02  0.51100000000E-03 0. -1.
         11   -1    0    0    0    0 -0.00000000000E+00 -0.00000000000E+00 -0.45593999997E+02  0.45594000000E+02  0.51100000000E-03 0.  1.
         23    2    1    2    0    0  0.00000000000E+00  0.00000000000E+00  0.00000000000E+00  0.91188000000E+02  0.91188000000E+02 0.  0.
    9900012    2    3    3    0    0 -0.11381254779E+02  0.83885710049E+01 -0.33998230798E+02  0.54367071424E+02  0.39999970924E+02 0.  0.
         12    1    3    3    0    0  0.11381254779E+02 -0.83885710049E+01  0.33998230798E+02  0.36820928576E+02  0.00000000000E+00 0. -1.
         11    1    4    4    0    0  0.54638896984E+01  0.15701875828E+02 -0.20516575232E+02  0.26407060697E+02  0.51100000000E-03 0. -1.
        -11    1    4    4    0    0 -0.13947833797E+02  0.28272589939E+00 -0.14063753833E+02  0.19809370855E+02  0.51100000000E-03 0.  1.
         12    1    4    4    0    0 -0.28973106805E+01 -0.75960307222E+01  0.58209826717E+00  0.81506398709E+01  0.00000000000E+00 0. -1.
</event>
<event>
 8    1  0.1238315E-006  0.9118800E+02  0.7816164E-02  0.1184000E+00
        -11   -1    0    0    0    0  0.00000000000E+00  0.00000000000E+00  0.45593999997E+02  0.45594000000E+02  0.51100000000E-03 0. -1.
         11   -1    0    0    0    0 -0.00000000000E+00 -0.00000000000E+00 -0.45593999997E+02  0.45594000000E+02  0.51100000000E-03 0.  1.
         23    2    1    2    0    0  0.88817841970E-15  0.00000000000E+00  0.00000000000E+00  0.91188000000E+02  0.91188000000E+02 0.  0.
    9900012    2    3    3    0    0 -0.73205788436E+01 -0.21787950973E+01 -0.36020101328E+02  0.54367004327E+02  0.39999817964E+02 0.  0.
         12    1    3    3    0    0  0.73205788436E+01  0.21787950973E+01  0.36020101328E+02  0.36820995673E+02  0.00000000000E+00 0. -1.
         11    1    4    4    0    0  0.59817475598E+01  0.92662231173E+00 -0.57325847563E+01  0.83368136016E+01  0.51100000000E-03 0. -1.
        -11    1    4    4    0    0  0.59094491182E+01 -0.17558637763E+01  0.35367439053E+01  0.71072641849E+01  0.51100000000E-03 0.  1.
        -12    1    4    4    0    0 -0.19211775522E+02 -0.13495536327E+01 -0.33824260477E+02  0.38922926541E+02  0.00000000000E+00 0.  1.
</event>
<event>
 8    1  0.1238315E-006  0.9118800E+02  0.7816164E-02  0.1184000E+00
        -11   -1    0    0    0    0  0.00000000000E+00  0.00000000000E+00  0.45593999997E+02  0.45594000000E+02  0.51100000000E-03 0.  1.
         11   -1    0    0    0    0 -0.00000000000E+00 -0.00000000000E+00 -0.45593999997E+02  0.45594000000E+02  0.51100000000E-03 0. -1.
         23    2    1    2    0    0  0.00000000000E+00  0.00000000000E+00  0.61062266354E-15  0.91188000000E+02  0.91188000000E+02 0.  0.
    9900012    2    3    3    0    0  0.22207554278E+02  0.29367142783E+02 -0.41824778688E+00  0.54367089182E+02  0.40000011407E+02 0.  0.
        -12    1    3    3    0    0 -0.22207554278E+02 -0.29367142783E+02  0.41824778688E+00  0.36820910818E+02  0.00000000000E+00 0.  1.
         11    1    4    4    0    0  0.15391641721E+02  0.12949846228E+02  0.22130527285E+00  0.20115917292E+02  0.51100000000E-03 0. -1.
        -11    1    4    4    0    0  0.11747548641E+02 -0.14640727802E+01 -0.80077005556E+01  0.14292364277E+02  0.51100000000E-03 0.  1.
        -12    1    4    4    0    0 -0.49316360843E+01  0.17881369336E+02  0.73681474958E+01  0.19958807612E+02  0.00000000000E+00 0.  1.
</event>
<event>
 8    1  0.1238315E-006  0.9118800E+02  0.7816164E-02  0.1184000E+00
        -11   -1    0    0    0    0  0.00000000000E+00  0.00000000000E+00  0.45593999997E+02  0.45594000000E+02  0.51100000000E-03 0. -1.
         11   -1    0    0    0    0 -0.00000000000E+00 -0.00000000000E+00 -0.45593999997E+02  0.45594000000E+02  0.51100000000E-03 0.  1.
         23    2    1    2    0    0  0.00000000000E+00 -0.35527136788E-14  0.17763568394E-14  0.91188000000E+02  0.91188000000E+02 0.  0.
    9900012    2    3    3    0    0  0.26459475312E+02 -0.23335353366E+02  0.10542176948E+02  0.54367081417E+02  0.39999993705E+02 0.  0.
        -12    1    3    3    0    0 -0.26459475312E+02  0.23335353366E+02 -0.10542176948E+02  0.36820918583E+02  0.00000000000E+00 0.  1.
         11    1    4    4    0    0 -0.20664312028E+01 -0.85058738551E+01  0.48795006032E+01  0.10021454702E+02  0.51100000000E-03 0.  1.
        -11    1    4    4    0    0  0.90839263354E+01 -0.13766902619E+02  0.15408846920E+02  0.22571616890E+02  0.51100000000E-03 0. -1.
        -12    1    4    4    0    0  0.19441980179E+02 -0.10625768924E+01 -0.97461705744E+01  0.21774009824E+02  0.00000000000E+00 0.  1.
</event>
<event>
 8    1  0.1238315E-006  0.9118800E+02  0.7816164E-02  0.1184000E+00
        -11   -1    0    0    0    0  0.00000000000E+00  0.00000000000E+00  0.45593999997E+02  0.45594000000E+02  0.51100000000E-03 0. -1.
         11   -1    0    0    0    0 -0.00000000000E+00 -0.00000000000E+00 -0.45593999997E+02  0.45594000000E+02  0.51100000000E-03 0.  1.
         23    2    1    2    0    0  0.00000000000E+00  0.88817841970E-15  0.88817841970E-15  0.91188000000E+02  0.91188000000E+02 0.  0.
    9900012    2    3    3    0    0 -0.35357243141E+02 -0.67457231583E+01  0.77545761564E+01  0.54367178787E+02  0.40000215680E+02 0.  0.
         12    1    3    3    0    0  0.35357243141E+02  0.67457231583E+01 -0.77545761564E+01  0.36820821213E+02  0.00000000000E+00 0. -1.
         11    1    4    4    0    0 -0.87761684024E+01  0.14684413356E+02  0.19299015635E+01  0.17215622200E+02  0.51100000000E-03 0. -1.
        -11    1    4    4    0    0 -0.19287780001E+02 -0.72892287444E+01  0.50135846914E+01  0.21219975136E+02  0.51100000000E-03 0.  1.
        -12    1    4    4    0    0 -0.72932947374E+01 -0.14140907770E+02  0.81108990147E+00  0.15931581451E+02  0.00000000000E+00 0.  1.
</event>
<event>
 8    1  0.1238315E-006  0.9118800E+02  0.7816164E-02  0.1184000E+00
        -11   -1    0    0    0    0  0.00000000000E+00  0.00000000000E+00  0.45593999997E+02  0.45594000000E+02  0.51100000000E-03 0. -1.
         11   -1    0    0    0    0 -0.00000000000E+00 -0.00000000000E+00 -0.45593999997E+02  0.45594000000E+02  0.51100000000E-03 0.  1.
         23    2    1    2    0    0 -0.17763568394E-14  0.35527136788E-14  0.00000000000E+00  0.91188000000E+02  0.91188000000E+02 0.  0.
    9900012    2    3    3    0    0 -0.10441384058E+02  0.27714325606E+02 -0.21878604229E+02  0.54367086543E+02  0.40000005391E+02 0.  0.
        -12    1    3    3    0    0  0.10441384058E+02 -0.27714325606E+02  0.21878604229E+02  0.36820913457E+02  0.00000000000E+00 0.  1.
         11    1    4    4    0    0  0.46255107587E+01  0.21800553670E+02 -0.49626612325E+01  0.22831721286E+02  0.51100000000E-03 0. -1.
        -11    1    4    4    0    0  0.44842155549E+01 -0.25075083746E+01 -0.48535733138E+01  0.70677409096E+01  0.51100000000E-03 0.  1.
        -12    1    4    4    0    0 -0.19551110372E+02  0.84212803099E+01 -0.12062369683E+02  0.24467624347E+02  0.00000000000E+00 0.  1.
</event>
<event>
 8    1  0.1238315E-006  0.9118800E+02  0.7816164E-02  0.1184000E+00
        -11   -1    0    0    0    0  0.00000000000E+00  0.00000000000E+00  0.45593999997E+02  0.45594000000E+02  0.51100000000E-03 0. -1.
         11   -1    0    0    0    0 -0.00000000000E+00 -0.00000000000E+00 -0.45593999997E+02  0.45594000000E+02  0.51100000000E-03 0.  1.
         23    2    1    2    0    0  0.00000000000E+00  0.00000000000E+00 -0.35527136788E-14  0.91188000000E+02  0.91188000000E+02 0.  0.
    9900012    2    3    3    0    0 -0.22374952161E+02  0.34352346488E+01 -0.29040326414E+02  0.54367083668E+02  0.39999998837E+02 0.  0.
         12    1    3    3    0    0  0.22374952161E+02 -0.34352346488E+01  0.29040326414E+02  0.36820916332E+02  0.00000000000E+00 0. -1.
         11    1    4    4    0    0 -0.58499481968E+01 -0.70572603104E+01  0.38945251356E+00  0.91748836786E+01  0.51100000000E-03 0. -1.
        -11    1    4    4    0    0 -0.90711677064E+01  0.65775119062E+01  0.30713774064E+01  0.11618223008E+02  0.51100000000E-03 0.  1.
        -12    1    4    4    0    0 -0.74538362579E+01  0.39149830529E+01 -0.32501156334E+02  0.33573976981E+02  0.00000000000E+00 0.  1.
</event>
<event>
 8    1  0.1238315E-006  0.9118800E+02  0.7816164E-02  0.1184000E+00
        -11   -1    0    0    0    0  0.00000000000E+00  0.00000000000E+00  0.45593999997E+02  0.45594000000E+02  0.51100000000E-03 0.  1.
         11   -1    0    0    0    0 -0.00000000000E+00 -0.00000000000E+00 -0.45593999997E+02  0.45594000000E+02  0.51100000000E-03 0. -1.
         23    2    1    2    0    0  0.00000000000E+00  0.00000000000E+00  0.71054273576E-14  0.91188000000E+02  0.91188000000E+02 0.  0.
    9900012    2    3    3    0    0  0.22913329674E+02 -0.10388472721E+02 -0.26885665636E+02  0.54367081232E+02  0.39999993286E+02 0.  0.
        -12    1    3    3    0    0 -0.22913329674E+02  0.10388472721E+02  0.26885665636E+02  0.36820918768E+02  0.00000000000E+00 0.  1.
         11    1    4    4    0    0 -0.90116908355E+01 -0.30580302913E+01 -0.99260797947E+01  0.13750970196E+02  0.51100000000E-03 0.  1.
        -11    1    4    4    0    0  0.22334487394E+02 -0.12905736258E+02 -0.12428019917E+02  0.28632901265E+02  0.51100000000E-03 0. -1.
         12    1    4    4    0    0  0.95905331154E+01  0.55752938285E+01 -0.45315659240E+01  0.11983209772E+02  0.00000000000E+00 0. -1.
</event>
<event>
 8    1  0.1238315E-006  0.9118800E+02  0.7816164E-02  0.1184000E+00
        -11   -1    0    0    0    0  0.00000000000E+00  0.00000000000E+00  0.45593999997E+02  0.45594000000E+02  0.51100000000E-03 0. -1.
         11   -1    0    0    0    0 -0.00000000000E+00 -0.00000000000E+00 -0.45593999997E+02  0.45594000000E+02  0.51100000000E-03 0.  1.
         23    2    1    2    0    0  0.17763568394E-14 -0.17763568394E-14  0.00000000000E+00  0.91188000000E+02  0.91188000000E+02 0.  0.
    9900012    2    3    3    0    0  0.13877794044E+02 -0.12327418379E+02 -0.31799703762E+02  0.54367087861E+02  0.40000008396E+02 0.  0.
         12    1    3    3    0    0 -0.13877794044E+02  0.12327418379E+02  0.31799703762E+02  0.36820912139E+02  0.00000000000E+00 0. -1.
         11    1    4    4    0    0  0.20834676787E+02 -0.81586719297E+01 -0.22664920283E+02  0.31848803685E+02  0.51100000000E-03 0. -1.
        -11    1    4    4    0    0 -0.10086235175E+02  0.19553162129E+01  0.94334412321E+00  0.10317233152E+02  0.51100000000E-03 0.  1.
        -12    1    4    4    0    0  0.31293524327E+01 -0.61240626617E+01 -0.10078127602E+02  0.12201051024E+02  0.00000000000E+00 0.  1.
</event>
<event>
 8    1  0.1238315E-006  0.9118800E+02  0.7816164E-02  0.1184000E+00
        -11   -1    0    0    0    0  0.00000000000E+00  0.00000000000E+00  0.45593999997E+02  0.45594000000E+02  0.51100000000E-03 0.  1.
         11   -1    0    0    0    0 -0.00000000000E+00 -0.00000000000E+00 -0.45593999997E+02  0.45594000000E+02  0.51100000000E-03 0. -1.
         23    2    1    2    0    0  0.13322676296E-14 -0.71054273576E-14  0.00000000000E+00  0.91188000000E+02  0.91188000000E+02 0.  0.
    9900012    2    3    3    0    0 -0.32664644110E+01  0.36333835637E+02  0.49961929720E+01  0.54367090913E+02  0.40000015353E+02 0.  0.
         12    1    3    3    0    0  0.32664644110E+01 -0.36333835637E+02 -0.49961929720E+01  0.36820909087E+02  0.00000000000E+00 0. -1.
         11    1    4    4    0    0  0.75161054552E+01  0.50415485155E+01 -0.13698478491E+01  0.91534439441E+01  0.51100000000E-03 0. -1.
        -11    1    4    4    0    0  0.43332386239E+01  0.11489304113E+02 -0.96321763818E+01  0.15606405354E+02  0.51100000000E-03 0.  1.
        -12    1    4    4    0    0 -0.15115808490E+02  0.19802983008E+02  0.15998217203E+02  0.29607241614E+02  0.00000000000E+00 0.  1.
</event>
<event>
 8    1  0.1238315E-006  0.9118800E+02  0.7816164E-02  0.1184000E+00
        -11   -1    0    0    0    0  0.00000000000E+00  0.00000000000E+00  0.45593999997E+02  0.45594000000E+02  0.51100000000E-03 0. -1.
         11   -1    0    0    0    0 -0.00000000000E+00 -0.00000000000E+00 -0.45593999997E+02  0.45594000000E+02  0.51100000000E-03 0.  1.
         23    2    1    2    0    0  0.00000000000E+00  0.00000000000E+00 -0.44408920985E-15  0.91188000000E+02  0.91188000000E+02 0.  0.
    9900012    2    3    3    0    0 -0.92036356948E+01  0.35604648983E+02 -0.18405900367E+01  0.54367004483E+02  0.39999818319E+02 0.  0.
         12    1    3    3    0    0  0.92036356948E+01 -0.35604648983E+02  0.18405900367E+01  0.36820995517E+02  0.00000000000E+00 0. -1.
         11    1    4    4    0    0 -0.17086508572E+02  0.22523761331E+02 -0.50436951841E+01  0.28717720331E+02  0.51100000000E-03 0.  1.
        -11    1    4    4    0    0  0.48579618887E+01 -0.43715444884E+01  0.44283331995E+01  0.78943226507E+01  0.51100000000E-03 0. -1.
         12    1    4    4    0    0  0.30249109884E+01  0.17452432141E+02 -0.12252280522E+01  0.17754961501E+02  0.00000000000E+00 0. -1.
</event>
<event>
 8    1  0.1238315E-006  0.9118800E+02  0.7816164E-02  0.1184000E+00
        -11   -1    0    0    0    0  0.00000000000E+00  0.00000000000E+00  0.45593999997E+02  0.45594000000E+02  0.51100000000E-03 0.  1.
         11   -1    0    0    0    0 -0.00000000000E+00 -0.00000000000E+00 -0.45593999997E+02  0.45594000000E+02  0.51100000000E-03 0. -1.
         23    2    1    2    0    0  0.00000000000E+00  0.17763568394E-14 -0.35527136788E-14  0.91188000000E+02  0.91188000000E+02 0.  0.
    9900012    2    3    3    0    0 -0.14574189755E+02  0.13705622442E+02 -0.30911629180E+02  0.54367083226E+02  0.39999997830E+02 0.  0.
        -12    1    3    3    0    0  0.14574189755E+02 -0.13705622442E+02  0.30911629180E+02  0.36820916774E+02  0.00000000000E+00 0.  1.
         11    1    4    4    0    0 -0.16551312448E+02  0.14967307352E+02 -0.24223816696E+02  0.32935687767E+02  0.51100000000E-03 0. -1.
        -11    1    4    4    0    0  0.34489477719E+00  0.90299544559E+01  0.24092699068E-01  0.90365707324E+01  0.51100000000E-03 0.  1.
        -12    1    4    4    0    0  0.16322279165E+01 -0.10291639366E+02 -0.67119051831E+01  0.12394824726E+02  0.00000000000E+00 0.  1.
</event>
<event>
 8    1  0.1238315E-006  0.9118800E+02  0.7816164E-02  0.1184000E+00
        -11   -1    0    0    0    0  0.00000000000E+00  0.00000000000E+00  0.45593999997E+02  0.45594000000E+02  0.51100000000E-03 0. -1.
         11   -1    0    0    0    0 -0.00000000000E+00 -0.00000000000E+00 -0.45593999997E+02  0.45594000000E+02  0.51100000000E-03 0.  1.
         23    2    1    2    0    0 -0.88817841970E-15  0.00000000000E+00 -0.35527136788E-14  0.91188000000E+02  0.91188000000E+02 0.  0.
    9900012    2    3    3    0    0 -0.61330448586E+01 -0.34791624097E+02  0.10378170965E+02  0.54367112190E+02  0.40000063859E+02 0.  0.
        -12    1    3    3    0    0  0.61330448586E+01  0.34791624097E+02 -0.10378170965E+02  0.36820887810E+02  0.00000000000E+00 0.  1.
         11    1    4    4    0    0 -0.60137250940E+01 -0.17171850564E+02  0.98728589360E+01  0.20700499635E+02  0.51100000000E-03 0. -1.
        -11    1    4    4    0    0 -0.89632755233E+01  0.10659817271E+01 -0.72594888202E+01  0.11583471127E+02  0.51100000000E-03 0.  1.
        -12    1    4    4    0    0  0.88439557587E+01 -0.18685755260E+02  0.77648008489E+01  0.22083141428E+02  0.00000000000E+00 0.  1.
</event>
<event>
 8    1  0.1238315E-006  0.9118800E+02  0.7816164E-02  0.1184000E+00
        -11   -1    0    0    0    0  0.00000000000E+00  0.00000000000E+00  0.45593999997E+02  0.45594000000E+02  0.51100000000E-03 0. -1.
         11   -1    0    0    0    0 -0.00000000000E+00 -0.00000000000E+00 -0.45593999997E+02  0.45594000000E+02  0.51100000000E-03 0.  1.
         23    2    1    2    0    0 -0.35527136788E-14  0.00000000000E+00 -0.14432899320E-14  0.91188000000E+02  0.91188000000E+02 0.  0.
    9900012    2    3    3    0    0  0.28429639347E+02  0.23383176995E+02  0.87420692297E+00  0.54367060339E+02  0.39999945654E+02 0.  0.
         12    1    3    3    0    0 -0.28429639347E+02 -0.23383176995E+02 -0.87420692297E+00  0.36820939661E+02  0.00000000000E+00 0. -1.
         11    1    4    4    0    0 -0.40498183809E+01  0.11968920218E+02  0.43542930799E+01  0.13364727778E+02  0.51100000000E-03 0. -1.
        -11    1    4    4    0    0  0.17847788517E+02  0.46507493309E+01 -0.12736771596E+02  0.22414244918E+02  0.51100000000E-03 0.  1.
        -12    1    4    4    0    0  0.14631669212E+02  0.67635074459E+01  0.92566854392E+01  0.18588087643E+02  0.00000000000E+00 0.  1.
</event>
<event>
 8    1  0.1238315E-006  0.9118800E+02  0.7816164E-02  0.1184000E+00
        -11   -1    0    0    0    0  0.00000000000E+00  0.00000000000E+00  0.45593999997E+02  0.45594000000E+02  0.51100000000E-03 0.  1.
         11   -1    0    0    0    0 -0.00000000000E+00 -0.00000000000E+00 -0.45593999997E+02  0.45594000000E+02  0.51100000000E-03 0. -1.
         23    2    1    2    0    0  0.35527136788E-14  0.17763568394E-14  0.35527136788E-14  0.91188000000E+02  0.91188000000E+02 0.  0.
    9900012    2    3    3    0    0  0.29132175427E+02  0.12419911647E+02  0.18784107902E+02  0.54367074426E+02  0.39999977770E+02 0.  0.
         12    1    3    3    0    0 -0.29132175427E+02 -0.12419911647E+02 -0.18784107902E+02  0.36820925574E+02  0.00000000000E+00 0. -1.
         11    1    4    4    0    0  0.27834710294E+02  0.15618319907E+02  0.12647233750E+02  0.34331553063E+02  0.51100000000E-03 0. -1.
        -11    1    4    4    0    0  0.94858788306E+01 -0.23389517931E+01  0.65979727124E+01  0.11789225456E+02  0.51100000000E-03 0.  1.
         12    1    4    4    0    0 -0.81884136983E+01 -0.85945646696E+00 -0.46109856094E+00  0.82462959076E+01  0.00000000000E+00 0. -1.
</event>
<event>
 8    1  0.1238315E-006  0.9118800E+02  0.7816164E-02  0.1184000E+00
        -11   -1    0    0    0    0  0.00000000000E+00  0.00000000000E+00  0.45593999997E+02  0.45594000000E+02  0.51100000000E-03 0.  1.
         11   -1    0    0    0    0 -0.00000000000E+00 -0.00000000000E+00 -0.45593999997E+02  0.45594000000E+02  0.51100000000E-03 0. -1.
         23    2    1    2    0    0  0.00000000000E+00  0.00000000000E+00 -0.35527136788E-14  0.91188000000E+02  0.91188000000E+02 0.  0.
    9900012    2    3    3    0    0 -0.44677490357E+01 -0.18278852739E+02 -0.31649693040E+02  0.54367077844E+02  0.39999985561E+02 0.  0.
        -12    1    3    3    0    0  0.44677490357E+01  0.18278852739E+02  0.31649693040E+02  0.36820922156E+02  0.00000000000E+00 0.  1.
         11    1    4    4    0    0 -0.74192207466E+01 -0.16197603274E+02 -0.72228983654E+01  0.19224397243E+02  0.51100000000E-03 0. -1.
        -11    1    4    4    0    0 -0.40516845487E+01  0.11838482630E+01 -0.26744578907E+02  0.27075637492E+02  0.51100000000E-03 0.  1.
        -12    1    4    4    0    0  0.70031562596E+01 -0.32650977285E+01  0.23177842332E+01  0.80670431092E+01  0.00000000000E+00 0.  1.
</event>
<event>
 8    1  0.1238315E-006  0.9118800E+02  0.7816164E-02  0.1184000E+00
        -11   -1    0    0    0    0  0.00000000000E+00  0.00000000000E+00  0.45593999997E+02  0.45594000000E+02  0.51100000000E-03 0. -1.
         11   -1    0    0    0    0 -0.00000000000E+00 -0.00000000000E+00 -0.45593999997E+02  0.45594000000E+02  0.51100000000E-03 0.  1.
         23    2    1    2    0    0  0.00000000000E+00  0.00000000000E+00  0.00000000000E+00  0.91188000000E+02  0.91188000000E+02 0.  0.
    9900012    2    3    3    0    0  0.33538957636E+02 -0.11316812757E+02 -0.10140970326E+02  0.54367201402E+02  0.40000267235E+02 0.  0.
         12    1    3    3    0    0 -0.33538957636E+02  0.11316812757E+02  0.10140970326E+02  0.36820798598E+02  0.00000000000E+00 0. -1.
         11    1    4    4    0    0  0.42826015865E+00 -0.34595282463E+01  0.16106457393E+01  0.38400419801E+01  0.51100000000E-03 0. -1.
        -11    1    4    4    0    0  0.26494293289E+02 -0.21307966841E+02 -0.99725870932E+01  0.35432040886E+02  0.51100000000E-03 0.  1.
        -12    1    4    4    0    0  0.66164041884E+01  0.13450682330E+02 -0.17790289716E+01  0.15095118536E+02  0.00000000000E+00 0.  1.
</event>
<event>
 8    1  0.1238315E-006  0.9118800E+02  0.7816164E-02  0.1184000E+00
        -11   -1    0    0    0    0  0.00000000000E+00  0.00000000000E+00  0.45593999997E+02  0.45594000000E+02  0.51100000000E-03 0. -1.
         11   -1    0    0    0    0 -0.00000000000E+00 -0.00000000000E+00 -0.45593999997E+02  0.45594000000E+02  0.51100000000E-03 0.  1.
         23    2    1    2    0    0  0.00000000000E+00  0.17763568394E-14  0.35527136788E-14  0.91188000000E+02  0.91188000000E+02 0.  0.
    9900012    2    3    3    0    0  0.14918695678E+02  0.10995764881E+02 -0.31816750704E+02  0.54367082692E+02  0.39999996613E+02 0.  0.
         12    1    3    3    0    0 -0.14918695678E+02 -0.10995764881E+02  0.31816750704E+02  0.36820917308E+02  0.00000000000E+00 0. -1.
         11    1    4    4    0    0  0.83931784505E+01 -0.88490659959E+01 -0.21347301709E+01  0.12381780432E+02  0.51100000000E-03 0. -1.
        -11    1    4    4    0    0 -0.55179902926E+01 -0.95310364613E+00 -0.67026146599E+01  0.87339376554E+01  0.51100000000E-03 0.  1.
        -12    1    4    4    0    0  0.12043507520E+02  0.20797934523E+02 -0.22979405873E+02  0.33251364605E+02  0.00000000000E+00 0.  1.
</event>
<event>
 8    1  0.1238315E-006  0.9118800E+02  0.7816164E-02  0.1184000E+00
        -11   -1    0    0    0    0  0.00000000000E+00  0.00000000000E+00  0.45593999997E+02  0.45594000000E+02  0.51100000000E-03 0. -1.
         11   -1    0    0    0    0 -0.00000000000E+00 -0.00000000000E+00 -0.45593999997E+02  0.45594000000E+02  0.51100000000E-03 0.  1.
         23    2    1    2    0    0 -0.17763568394E-14  0.71054273576E-14  0.35527136788E-14  0.91188000000E+02  0.91188000000E+02 0.  0.
    9900012    2    3    3    0    0  0.13894363988E+02 -0.23802908441E+02 -0.24416124528E+02  0.54367096456E+02  0.40000027990E+02 0.  0.
         12    1    3    3    0    0 -0.13894363988E+02  0.23802908441E+02  0.24416124528E+02  0.36820903544E+02  0.00000000000E+00 0. -1.
         11    1    4    4    0    0  0.37609070141E+01 -0.80705004051E+01  0.45751626904E+01  0.10010470132E+02  0.51100000000E-03 0. -1.
        -11    1    4    4    0    0  0.69965908632E+01  0.74250227571E+01 -0.87942639600E+01  0.13469310506E+02  0.51100000000E-03 0.  1.
        -12    1    4    4    0    0  0.31368661103E+01 -0.23157430793E+02 -0.20197023259E+02  0.30887315818E+02  0.00000000000E+00 0.  1.
</event>
<event>
 8    1  0.1238315E-006  0.9118800E+02  0.7816164E-02  0.1184000E+00
        -11   -1    0    0    0    0  0.00000000000E+00  0.00000000000E+00  0.45593999997E+02  0.45594000000E+02  0.51100000000E-03 0.  1.
         11   -1    0    0    0    0 -0.00000000000E+00 -0.00000000000E+00 -0.45593999997E+02  0.45594000000E+02  0.51100000000E-03 0. -1.
         23    2    1    2    0    0  0.17763568394E-14  0.00000000000E+00 -0.71054273576E-14  0.91188000000E+02  0.91188000000E+02 0.  0.
    9900012    2    3    3    0    0 -0.12754289021E+02  0.12359643242E+02  0.32254422094E+02  0.54367076409E+02  0.39999982289E+02 0.  0.
         12    1    3    3    0    0  0.12754289021E+02 -0.12359643242E+02 -0.32254422094E+02  0.36820923591E+02  0.00000000000E+00 0. -1.
         11    1    4    4    0    0 -0.47302517244E+01  0.30447780891E+01 -0.77166347625E+01  0.95494715722E+01  0.51100000000E-03 0. -1.
        -11    1    4    4    0    0 -0.87970443111E+01 -0.18158716462E+01  0.15322305085E+02  0.17761148944E+02  0.51100000000E-03 0.  1.
         12    1    4    4    0    0  0.77300701456E+00  0.11130736799E+02  0.24648751772E+02  0.27056455892E+02  0.00000000000E+00 0. -1.
</event>
<event>
 8    1  0.1238315E-006  0.9118800E+02  0.7816164E-02  0.1184000E+00
        -11   -1    0    0    0    0  0.00000000000E+00  0.00000000000E+00  0.45593999997E+02  0.45594000000E+02  0.51100000000E-03 0.  1.
         11   -1    0    0    0    0 -0.00000000000E+00 -0.00000000000E+00 -0.45593999997E+02  0.45594000000E+02  0.51100000000E-03 0. -1.
         23    2    1    2    0    0 -0.71054273576E-14  0.11102230246E-14  0.35527136788E-14  0.91188000000E+02  0.91188000000E+02 0.  0.
    9900012    2    3    3    0    0 -0.29273919778E+02 -0.17148587160E+01  0.22268296625E+02  0.54367079939E+02  0.39999990337E+02 0.  0.
         12    1    3    3    0    0  0.29273919778E+02  0.17148587160E+01 -0.22268296625E+02  0.36820920061E+02  0.00000000000E+00 0. -1.
         11    1    4    4    0    0  0.43322622384E+00  0.13304974320E+02  0.23260532439E+00  0.13314057688E+02  0.51100000000E-03 0. -1.
        -11    1    4    4    0    0 -0.22785601811E+01 -0.45507443527E+01  0.18089946119E+01  0.54012565602E+01  0.51100000000E-03 0.  1.
        -12    1    4    4    0    0 -0.27428585820E+02 -0.10469088683E+02  0.20226696689E+02  0.35651765691E+02  0.00000000000E+00 0.  1.
</event>
<event>
 8    1  0.1238315E-006  0.9118800E+02  0.7816164E-02  0.1184000E+00
        -11   -1    0    0    0    0  0.00000000000E+00  0.00000000000E+00  0.45593999997E+02  0.45594000000E+02  0.51100000000E-03 0. -1.
         11   -1    0    0    0    0 -0.00000000000E+00 -0.00000000000E+00 -0.45593999997E+02  0.45594000000E+02  0.51100000000E-03 0.  1.
         23    2    1    2    0    0 -0.35527136788E-14  0.00000000000E+00  0.35527136788E-14  0.91188000000E+02  0.91188000000E+02 0.  0.
    9900012    2    3    3    0    0  0.23567935142E+02  0.80045887607E+01 -0.27134109554E+02  0.54367069684E+02  0.39999966958E+02 0.  0.
         12    1    3    3    0    0 -0.23567935142E+02 -0.80045887607E+01  0.27134109554E+02  0.36820930316E+02  0.00000000000E+00 0. -1.
         11    1    4    4    0    0  0.59856106991E+01 -0.11303506828E+01 -0.17176260267E+02  0.18224410693E+02  0.51100000000E-03 0. -1.
        -11    1    4    4    0    0  0.75680345325E+01  0.14867787106E+02 -0.16001586921E+02  0.23116596297E+02  0.51100000000E-03 0.  1.
         12    1    4    4    0    0  0.10014289910E+02 -0.57328476621E+01  0.60437376337E+01  0.13026062694E+02  0.00000000000E+00 0. -1.
</event>
<event>
 8    1  0.1238315E-006  0.9118800E+02  0.7816164E-02  0.1184000E+00
        -11   -1    0    0    0    0  0.00000000000E+00  0.00000000000E+00  0.45593999997E+02  0.45594000000E+02  0.51100000000E-03 0. -1.
         11   -1    0    0    0    0 -0.00000000000E+00 -0.00000000000E+00 -0.45593999997E+02  0.45594000000E+02  0.51100000000E-03 0.  1.
         23    2    1    2    0    0 -0.71054273576E-14 -0.17763568394E-14  0.35527136788E-14  0.91188000000E+02  0.91188000000E+02 0.  0.
    9900012    2    3    3    0    0  0.31695750740E+02  0.14040415333E+02 -0.12410712095E+02  0.54367086753E+02  0.40000005870E+02 0.  0.
         12    1    3    3    0    0 -0.31695750740E+02 -0.14040415333E+02  0.12410712095E+02  0.36820913247E+02  0.00000000000E+00 0. -1.
         11    1    4    4    0    0  0.20832539056E+02 -0.92530025302E+01 -0.50747583388E+01  0.23353070715E+02  0.51100000000E-03 0. -1.
        -11    1    4    4    0    0 -0.34601420132E+01  0.28107196347E+01 -0.36256531703E+01  0.57461368579E+01  0.51100000000E-03 0.  1.
         12    1    4    4    0    0  0.14323353696E+02  0.20482698228E+02 -0.37103005861E+01  0.25267879180E+02  0.00000000000E+00 0. -1.
</event>
<event>
 8    1  0.1238315E-006  0.9118800E+02  0.7816164E-02  0.1184000E+00
        -11   -1    0    0    0    0  0.00000000000E+00  0.00000000000E+00  0.45593999997E+02  0.45594000000E+02  0.51100000000E-03 0. -1.
         11   -1    0    0    0    0 -0.00000000000E+00 -0.00000000000E+00 -0.45593999997E+02  0.45594000000E+02  0.51100000000E-03 0.  1.
         23    2    1    2    0    0  0.00000000000E+00 -0.35527136788E-14  0.00000000000E+00  0.91188000000E+02  0.91188000000E+02 0.  0.
    9900012    2    3    3    0    0 -0.24222262387E+01  0.19403762083E+02 -0.31199439642E+02  0.54367106516E+02  0.40000050925E+02 0.  0.
         12    1    3    3    0    0  0.24222262387E+01 -0.19403762083E+02  0.31199439642E+02  0.36820893484E+02  0.00000000000E+00 0. -1.
         11    1    4    4    0    0  0.47116935526E+01 -0.26540439600E+01 -0.17648254704E+02  0.18458193298E+02  0.51100000000E-03 0. -1.
        -11    1    4    4    0    0 -0.13686908337E+02  0.10182856068E+02 -0.14392739241E+02  0.22319788544E+02  0.51100000000E-03 0.  1.
         12    1    4    4    0    0  0.65529885452E+01  0.11874949975E+02  0.84155430230E+00  0.13589124675E+02  0.00000000000E+00 0. -1.
</event>
<event>
 8    1  0.1238315E-006  0.9118800E+02  0.7816164E-02  0.1184000E+00
        -11   -1    0    0    0    0  0.00000000000E+00  0.00000000000E+00  0.45593999997E+02  0.45594000000E+02  0.51100000000E-03 0. -1.
         11   -1    0    0    0    0 -0.00000000000E+00 -0.00000000000E+00 -0.45593999997E+02  0.45594000000E+02  0.51100000000E-03 0.  1.
         23    2    1    2    0    0 -0.35527136788E-14  0.35527136788E-14  0.00000000000E+00  0.91188000000E+02  0.91188000000E+02 0.  0.
    9900012    2    3    3    0    0  0.19965325590E+02 -0.30792522759E+02 -0.29976449897E+01  0.54367088017E+02  0.40000008752E+02 0.  0.
         12    1    3    3    0    0 -0.19965325590E+02  0.30792522759E+02  0.29976449897E+01  0.36820911983E+02  0.00000000000E+00 0. -1.
         11    1    4    4    0    0 -0.33870025088E+01 -0.86522616847E+01 -0.68113794157E+01  0.11520777233E+02  0.51100000000E-03 0.  1.
        -11    1    4    4    0    0  0.11335160669E+02 -0.82359685664E+01  0.15635291162E+02  0.20994746381E+02  0.51100000000E-03 0. -1.
         12    1    4    4    0    0  0.12017167430E+02 -0.13904292508E+02 -0.11821556736E+02  0.21851564403E+02  0.00000000000E+00 0. -1.
</event>
<event>
 8    1  0.1238315E-006  0.9118800E+02  0.7816164E-02  0.1184000E+00
        -11   -1    0    0    0    0  0.00000000000E+00  0.00000000000E+00  0.45593999997E+02  0.45594000000E+02  0.51100000000E-03 0. -1.
         11   -1    0    0    0    0 -0.00000000000E+00 -0.00000000000E+00 -0.45593999997E+02  0.45594000000E+02  0.51100000000E-03 0.  1.
         23    2    1    2    0    0  0.88817841970E-15  0.35527136788E-14 -0.71054273576E-14  0.91188000000E+02  0.91188000000E+02 0.  0.
    9900012    2    3    3    0    0 -0.55103393044E+01  0.22955952820E+02 -0.28256656276E+02  0.54367106026E+02  0.40000049807E+02 0.  0.
         12    1    3    3    0    0  0.55103393044E+01 -0.22955952820E+02  0.28256656276E+02  0.36820893974E+02  0.00000000000E+00 0. -1.
         11    1    4    4    0    0  0.16499325109E+01  0.13091096513E+02 -0.30759753668E+02  0.33470308203E+02  0.51100000000E-03 0.  1.
        -11    1    4    4    0    0 -0.64228780508E+01  0.49020748855E+00  0.77904601161E+01  0.10108656435E+02  0.51100000000E-03 0. -1.
        -12    1    4    4    0    0 -0.73739376443E+00  0.93746488187E+01 -0.52873627245E+01  0.10788141388E+02  0.00000000000E+00 0.  1.
</event>
<event>
 8    1  0.1238315E-006  0.9118800E+02  0.7816164E-02  0.1184000E+00
        -11   -1    0    0    0    0  0.00000000000E+00  0.00000000000E+00  0.45593999997E+02  0.45594000000E+02  0.51100000000E-03 0. -1.
         11   -1    0    0    0    0 -0.00000000000E+00 -0.00000000000E+00 -0.45593999997E+02  0.45594000000E+02  0.51100000000E-03 0.  1.
         23    2    1    2    0    0  0.00000000000E+00 -0.35527136788E-14  0.35527136788E-14  0.91188000000E+02  0.91188000000E+02 0.  0.
    9900012    2    3    3    0    0  0.45506497119E+01  0.26069613121E+02 -0.25601699456E+02  0.54367079912E+02  0.39999990275E+02 0.  0.
         12    1    3    3    0    0 -0.45506497119E+01 -0.26069613121E+02  0.25601699456E+02  0.36820920088E+02  0.00000000000E+00 0. -1.
         11    1    4    4    0    0  0.46921473224E+01  0.13436293552E+02 -0.32280516699E+01  0.14593510501E+02  0.51100000000E-03 0. -1.
        -11    1    4    4    0    0  0.10079519413E+01  0.18018177986E+02 -0.14127834833E+01  0.18101565194E+02  0.51100000000E-03 0.  1.
        -12    1    4    4    0    0 -0.11494495518E+01 -0.53848584166E+01 -0.20960864303E+02  0.21672004217E+02  0.00000000000E+00 0.  1.
</event>
<event>
 8    1  0.1238315E-006  0.9118800E+02  0.7816164E-02  0.1184000E+00
        -11   -1    0    0    0    0  0.00000000000E+00  0.00000000000E+00  0.45593999997E+02  0.45594000000E+02  0.51100000000E-03 0.  1.
         11   -1    0    0    0    0 -0.00000000000E+00 -0.00000000000E+00 -0.45593999997E+02  0.45594000000E+02  0.51100000000E-03 0. -1.
         23    2    1    2    0    0 -0.35527136788E-14  0.00000000000E+00 -0.35527136788E-14  0.91188000000E+02  0.91188000000E+02 0.  0.
    9900012    2    3    3    0    0 -0.21197820325E+02 -0.55461480223E+01 -0.29591753505E+02  0.54367092625E+02  0.40000019258E+02 0.  0.
        -12    1    3    3    0    0  0.21197820325E+02  0.55461480223E+01  0.29591753505E+02  0.36820907375E+02  0.00000000000E+00 0.  1.
         11    1    4    4    0    0 -0.91747225003E+01 -0.37951413524E+01 -0.37191875004E+02  0.38494339810E+02  0.51100000000E-03 0. -1.
        -11    1    4    4    0    0 -0.25001223997E+01 -0.30942540158E+01  0.38922602090E+01  0.55654927655E+01  0.51100000000E-03 0.  1.
         12    1    4    4    0    0 -0.95229754249E+01  0.13432473458E+01  0.37078612907E+01  0.10307260049E+02  0.00000000000E+00 0. -1.
</event>
<event>
 8    1  0.1238315E-006  0.9118800E+02  0.7816164E-02  0.1184000E+00
        -11   -1    0    0    0    0  0.00000000000E+00  0.00000000000E+00  0.45593999997E+02  0.45594000000E+02  0.51100000000E-03 0. -1.
         11   -1    0    0    0    0 -0.00000000000E+00 -0.00000000000E+00 -0.45593999997E+02  0.45594000000E+02  0.51100000000E-03 0.  1.
         23    2    1    2    0    0  0.71054273576E-14  0.00000000000E+00 -0.42188474936E-14  0.91188000000E+02  0.91188000000E+02 0.  0.
    9900012    2    3    3    0    0 -0.33472881778E+02 -0.15314819835E+02  0.89583650790E+00  0.54367081433E+02  0.39999993743E+02 0.  0.
        -12    1    3    3    0    0  0.33472881778E+02  0.15314819835E+02 -0.89583650790E+00  0.36820918567E+02  0.00000000000E+00 0.  1.
         11    1    4    4    0    0 -0.27120306146E+02 -0.17606739911E+01  0.17239023736E+02  0.32183767927E+02  0.51100000000E-03 0. -1.
        -11    1    4    4    0    0 -0.19770758264E+01 -0.43104185633E+01 -0.45287284762E+01  0.65572798390E+01  0.51100000000E-03 0.  1.
         12    1    4    4    0    0 -0.43754998054E+01 -0.92437272803E+01 -0.11814458751E+02  0.15626033667E+02  0.00000000000E+00 0. -1.
</event>
<event>
 8    1  0.1238315E-006  0.9118800E+02  0.7816164E-02  0.1184000E+00
        -11   -1    0    0    0    0  0.00000000000E+00  0.00000000000E+00  0.45593999997E+02  0.45594000000E+02  0.51100000000E-03 0. -1.
         11   -1    0    0    0    0 -0.00000000000E+00 -0.00000000000E+00 -0.45593999997E+02  0.45594000000E+02  0.51100000000E-03 0.  1.
         23    2    1    2    0    0  0.71054273576E-14 -0.17763568394E-14 -0.35527136788E-14  0.91188000000E+02  0.91188000000E+02 0.  0.
    9900012    2    3    3    0    0  0.33677104840E+02 -0.86061736206E+01 -0.12147770940E+02  0.54367055504E+02  0.39999934632E+02 0.  0.
        -12    1    3    3    0    0 -0.33677104840E+02  0.86061736206E+01  0.12147770940E+02  0.36820944496E+02  0.00000000000E+00 0.  1.
         11    1    4    4    0    0  0.48670946918E+01 -0.72572415981E+01  0.96735399003E+01  0.13035855968E+02  0.51100000000E-03 0. -1.
        -11    1    4    4    0    0 -0.28366653802E+01 -0.18689961401E+01 -0.14663304511E+01  0.36999922032E+01  0.51100000000E-03 0.  1.
         12    1    4    4    0    0  0.31646675528E+02  0.52006411762E+00 -0.20354980390E+02  0.37631207333E+02  0.00000000000E+00 0. -1.
</event>
<event>
 8    1  0.1238315E-006  0.9118800E+02  0.7816164E-02  0.1184000E+00
        -11   -1    0    0    0    0  0.00000000000E+00  0.00000000000E+00  0.45593999997E+02  0.45594000000E+02  0.51100000000E-03 0. -1.
         11   -1    0    0    0    0 -0.00000000000E+00 -0.00000000000E+00 -0.45593999997E+02  0.45594000000E+02  0.51100000000E-03 0.  1.
         23    2    1    2    0    0 -0.35527136788E-14  0.35527136788E-14  0.35527136788E-14  0.91188000000E+02  0.91188000000E+02 0.  0.
    9900012    2    3    3    0    0 -0.24482685698E+02  0.18927033314E+02  0.19953551544E+02  0.54367099573E+02  0.40000035096E+02 0.  0.
        -12    1    3    3    0    0  0.24482685698E+02 -0.18927033314E+02 -0.19953551544E+02  0.36820900427E+02  0.00000000000E+00 0.  1.
         11    1    4    4    0    0 -0.20932837977E+02  0.12604143904E+02  0.10049342366E+02  0.26420398021E+02  0.51100000000E-03 0. -1.
        -11    1    4    4    0    0  0.98113051074E-01 -0.34993927877E+01 -0.71328058613E+01  0.79455834128E+01  0.51100000000E-03 0.  1.
        -12    1    4    4    0    0 -0.36479607721E+01  0.98222821978E+01  0.17037015039E+02  0.20001118139E+02  0.00000000000E+00 0.  1.
</event>
<event>
 8    1  0.1238315E-006  0.9118800E+02  0.7816164E-02  0.1184000E+00
        -11   -1    0    0    0    0  0.00000000000E+00  0.00000000000E+00  0.45593999997E+02  0.45594000000E+02  0.51100000000E-03 0.  1.
         11   -1    0    0    0    0 -0.00000000000E+00 -0.00000000000E+00 -0.45593999997E+02  0.45594000000E+02  0.51100000000E-03 0. -1.
         23    2    1    2    0    0  0.00000000000E+00 -0.10547118734E-14  0.00000000000E+00  0.91188000000E+02  0.91188000000E+02 0.  0.
    9900012    2    3    3    0    0  0.26719828119E+02  0.41535944512E+00 -0.25330996353E+02  0.54367066900E+02  0.39999960611E+02 0.  0.
        -12    1    3    3    0    0 -0.26719828119E+02 -0.41535944512E+00  0.25330996353E+02  0.36820933100E+02  0.00000000000E+00 0.  1.
         11    1    4    4    0    0  0.14925054199E+02  0.86348419192E+01 -0.20601884684E+02  0.26865505590E+02  0.51100000000E-03 0. -1.
        -11    1    4    4    0    0  0.15137396968E+01 -0.12927208932E+02 -0.85421851008E+01  0.15568335338E+02  0.51100000000E-03 0.  1.
        -12    1    4    4    0    0  0.10281034223E+02  0.47077264579E+01  0.38130734320E+01  0.11933225972E+02  0.00000000000E+00 0.  1.
</event>
<event>
 8    1  0.1238315E-006  0.9118800E+02  0.7816164E-02  0.1184000E+00
        -11   -1    0    0    0    0  0.00000000000E+00  0.00000000000E+00  0.45593999997E+02  0.45594000000E+02  0.51100000000E-03 0. -1.
         11   -1    0    0    0    0 -0.00000000000E+00 -0.00000000000E+00 -0.45593999997E+02  0.45594000000E+02  0.51100000000E-03 0.  1.
         23    2    1    2    0    0 -0.88817841970E-15  0.35527136788E-14 -0.35527136788E-14  0.91188000000E+02  0.91188000000E+02 0.  0.
    9900012    2    3    3    0    0 -0.67056593291E+01  0.29787290934E+02 -0.20579864210E+02  0.54367090463E+02  0.40000014328E+02 0.  0.
         12    1    3    3    0    0  0.67056593291E+01 -0.29787290934E+02  0.20579864210E+02  0.36820909537E+02  0.00000000000E+00 0. -1.
         11    1    4    4    0    0  0.80948590235E+01  0.46911812163E+01 -0.43219195690E+01  0.10305964915E+02  0.51100000000E-03 0. -1.
        -11    1    4    4    0    0 -0.19476003113E+02  0.22713402603E+02 -0.21344211605E+02  0.36753077753E+02  0.51100000000E-03 0.  1.
         12    1    4    4    0    0  0.46754847599E+01  0.23827071146E+01  0.50862669639E+01  0.73080477941E+01  0.00000000000E+00 0. -1.
</event>
<event>
 8    1  0.1238315E-006  0.9118800E+02  0.7816164E-02  0.1184000E+00
        -11   -1    0    0    0    0  0.00000000000E+00  0.00000000000E+00  0.45593999997E+02  0.45594000000E+02  0.51100000000E-03 0.  1.
         11   -1    0    0    0    0 -0.00000000000E+00 -0.00000000000E+00 -0.45593999997E+02  0.45594000000E+02  0.51100000000E-03 0. -1.
         23    2    1    2    0    0  0.00000000000E+00 -0.35527136788E-14 -0.35527136788E-14  0.91188000000E+02  0.91188000000E+02 0.  0.
    9900012    2    3    3    0    0 -0.16395725401E+02  0.22807109887E+02  0.23807436021E+02  0.54367108067E+02  0.40000054461E+02 0.  0.
         12    1    3    3    0    0  0.16395725401E+02 -0.22807109887E+02 -0.23807436021E+02  0.36820891933E+02  0.00000000000E+00 0. -1.
         11    1    4    4    0    0 -0.25751383647E+01 -0.49245766876E+01  0.10648438267E+02  0.12011329275E+02  0.51100000000E-03 0.  1.
        -11    1    4    4    0    0 -0.41141832400E+01 -0.47928633001E+01  0.21890814755E+01  0.66850669640E+01  0.51100000000E-03 0. -1.
        -12    1    4    4    0    0 -0.97064037959E+01  0.32524549875E+02  0.10969916279E+02  0.35670711829E+02  0.00000000000E+00 0.  1.
</event>
<event>
 8    1  0.1238315E-006  0.9118800E+02  0.7816164E-02  0.1184000E+00
        -11   -1    0    0    0    0  0.00000000000E+00  0.00000000000E+00  0.45593999997E+02  0.45594000000E+02  0.51100000000E-03 0. -1.
         11   -1    0    0    0    0 -0.00000000000E+00 -0.00000000000E+00 -0.45593999997E+02  0.45594000000E+02  0.51100000000E-03 0.  1.
         23    2    1    2    0    0  0.35527136788E-14  0.00000000000E+00 -0.35527136788E-14  0.91188000000E+02  0.91188000000E+02 0.  0.
    9900012    2    3    3    0    0 -0.17822884740E+02  0.13659232057E+02  0.29181371048E+02  0.54367051383E+02  0.39999925238E+02 0.  0.
        -12    1    3    3    0    0  0.17822884740E+02 -0.13659232057E+02 -0.29181371048E+02  0.36820948617E+02  0.00000000000E+00 0.  1.
         11    1    4    4    0    0 -0.16594065889E+02  0.18808522791E+02  0.45387301621E+01  0.25489676813E+02  0.51100000000E-03 0. -1.
        -11    1    4    4    0    0  0.28985911422E+01  0.53394408279E+00 -0.30192488552E+00  0.29627834532E+01  0.51100000000E-03 0.  1.
        -12    1    4    4    0    0 -0.41274099934E+01 -0.56832348167E+01  0.24944565771E+02  0.25914591117E+02  0.00000000000E+00 0.  1.
</event>
<event>
 8    1  0.1238315E-006  0.9118800E+02  0.7816164E-02  0.1184000E+00
        -11   -1    0    0    0    0  0.00000000000E+00  0.00000000000E+00  0.45593999997E+02  0.45594000000E+02  0.51100000000E-03 0.  1.
         11   -1    0    0    0    0 -0.00000000000E+00 -0.00000000000E+00 -0.45593999997E+02  0.45594000000E+02  0.51100000000E-03 0. -1.
         23    2    1    2    0    0  0.00000000000E+00  0.00000000000E+00  0.71054273576E-14  0.91188000000E+02  0.91188000000E+02 0.  0.
    9900012    2    3    3    0    0  0.12649486238E+02  0.53556475763E+01 -0.34162646169E+02  0.54367097562E+02  0.40000030512E+02 0.  0.
        -12    1    3    3    0    0 -0.12649486238E+02 -0.53556475763E+01  0.34162646169E+02  0.36820902438E+02  0.00000000000E+00 0.  1.
         11    1    4    4    0    0  0.13962754856E+02  0.35502599799E+01 -0.38297660378E+02  0.40917889239E+02  0.51100000000E-03 0. -1.
        -11    1    4    4    0    0 -0.13140845676E+01  0.66902940245E+01 -0.33696908349E+00  0.68264486235E+01  0.51100000000E-03 0.  1.
         12    1    4    4    0    0  0.81594993899E-03 -0.48849064281E+01  0.44719832919E+01  0.66227596998E+01  0.00000000000E+00 0. -1.
</event>
<event>
 8    1  0.1238315E-006  0.9118800E+02  0.7816164E-02  0.1184000E+00
        -11   -1    0    0    0    0  0.00000000000E+00  0.00000000000E+00  0.45593999997E+02  0.45594000000E+02  0.51100000000E-03 0. -1.
         11   -1    0    0    0    0 -0.00000000000E+00 -0.00000000000E+00 -0.45593999997E+02  0.45594000000E+02  0.51100000000E-03 0.  1.
         23    2    1    2    0    0  0.35527136788E-14  0.17763568394E-14  0.00000000000E+00  0.91188000000E+02  0.91188000000E+02 0.  0.
    9900012    2    3    3    0    0  0.24776139366E+02 -0.12508208110E+02 -0.24196443266E+02  0.54367079061E+02  0.39999988336E+02 0.  0.
         12    1    3    3    0    0 -0.24776139366E+02  0.12508208110E+02  0.24196443266E+02  0.36820920939E+02  0.00000000000E+00 0. -1.
         11    1    4    4    0    0  0.11468332113E+02  0.83293183764E+01 -0.46569033647E+01  0.14919347683E+02  0.51100000000E-03 0.  1.
        -11    1    4    4    0    0  0.20789647923E+01  0.25118978862E+01 -0.12041954445E+02  0.12475591878E+02  0.51100000000E-03 0. -1.
         12    1    4    4    0    0  0.11228842461E+02 -0.23349424373E+02 -0.74975854565E+01  0.26972139501E+02  0.00000000000E+00 0. -1.
</event>
<event>
 8    1  0.1238315E-006  0.9118800E+02  0.7816164E-02  0.1184000E+00
        -11   -1    0    0    0    0  0.00000000000E+00  0.00000000000E+00  0.45593999997E+02  0.45594000000E+02  0.51100000000E-03 0.  1.
         11   -1    0    0    0    0 -0.00000000000E+00 -0.00000000000E+00 -0.45593999997E+02  0.45594000000E+02  0.51100000000E-03 0. -1.
         23    2    1    2    0    0  0.17763568394E-14  0.00000000000E+00  0.00000000000E+00  0.91188000000E+02  0.91188000000E+02 0.  0.
    9900012    2    3    3    0    0  0.95351209180E+01 -0.32746688586E+02  0.13874957724E+02  0.54367101096E+02  0.40000038567E+02 0.  0.
         12    1    3    3    0    0 -0.95351209180E+01  0.32746688586E+02 -0.13874957724E+02  0.36820898904E+02  0.00000000000E+00 0. -1.
         11    1    4    4    0    0 -0.19726289484E+01 -0.35316329444E+01 -0.37292877535E+01  0.55019345354E+01  0.51100000000E-03 0. -1.
        -11    1    4    4    0    0 -0.87868288645E+01 -0.13398657711E+02 -0.24942543690E+01  0.16215847035E+02  0.51100000000E-03 0.  1.
        -12    1    4    4    0    0  0.20294578731E+02 -0.15816397931E+02  0.20098499846E+02  0.32649319525E+02  0.00000000000E+00 0.  1.
</event>
<event>
 8    1  0.1238315E-006  0.9118800E+02  0.7816164E-02  0.1184000E+00
        -11   -1    0    0    0    0  0.00000000000E+00  0.00000000000E+00  0.45593999997E+02  0.45594000000E+02  0.51100000000E-03 0. -1.
         11   -1    0    0    0    0 -0.00000000000E+00 -0.00000000000E+00 -0.45593999997E+02  0.45594000000E+02  0.51100000000E-03 0.  1.
         23    2    1    2    0    0  0.00000000000E+00  0.00000000000E+00  0.00000000000E+00  0.91188000000E+02  0.91188000000E+02 0.  0.
    9900012    2    3    3    0    0 -0.16786252254E+02 -0.31630325939E+02 -0.85746188570E+01  0.54367083766E+02  0.39999999062E+02 0.  0.
         12    1    3    3    0    0  0.16786252254E+02  0.31630325939E+02  0.85746188570E+01  0.36820916234E+02  0.00000000000E+00 0. -1.
         11    1    4    4    0    0 -0.26832690338E+02 -0.14934727424E+02  0.38295406743E+01  0.30946804941E+02  0.51100000000E-03 0. -1.
        -11    1    4    4    0    0  0.53506487632E+01 -0.61223767209E+01 -0.66239557482E+01  0.10487598816E+02  0.51100000000E-03 0.  1.
         12    1    4    4    0    0  0.46957893211E+01 -0.10573221794E+02 -0.57802037831E+01  0.12932680009E+02  0.00000000000E+00 0. -1.
</event>
<event>
 8    1  0.1238315E-006  0.9118800E+02  0.7816164E-02  0.1184000E+00
        -11   -1    0    0    0    0  0.00000000000E+00  0.00000000000E+00  0.45593999997E+02  0.45594000000E+02  0.51100000000E-03 0. -1.
         11   -1    0    0    0    0 -0.00000000000E+00 -0.00000000000E+00 -0.45593999997E+02  0.45594000000E+02  0.51100000000E-03 0.  1.
         23    2    1    2    0    0 -0.71054273576E-14  0.00000000000E+00  0.00000000000E+00  0.91188000000E+02  0.91188000000E+02 0.  0.
    9900012    2    3    3    0    0 -0.32983902299E+02 -0.15199255178E+01 -0.16295031472E+02  0.54367135873E+02  0.40000117849E+02 0.  0.
         12    1    3    3    0    0  0.32983902299E+02  0.15199255178E+01  0.16295031472E+02  0.36820864127E+02  0.00000000000E+00 0. -1.
         11    1    4    4    0    0 -0.22718464617E+01  0.13234088141E+02  0.24033612677E+01  0.13641060110E+02  0.51100000000E-03 0. -1.
        -11    1    4    4    0    0 -0.50415676040E+00 -0.29449467890E+01 -0.43085540390E+01  0.52431406425E+01  0.51100000000E-03 0.  1.
        -12    1    4    4    0    0 -0.30207899076E+02 -0.11809066870E+02 -0.14389838700E+02  0.35482935121E+02  0.00000000000E+00 0.  1.
</event>
<event>
 8    1  0.1238315E-006  0.9118800E+02  0.7816164E-02  0.1184000E+00
        -11   -1    0    0    0    0  0.00000000000E+00  0.00000000000E+00  0.45593999997E+02  0.45594000000E+02  0.51100000000E-03 0.  1.
         11   -1    0    0    0    0 -0.00000000000E+00 -0.00000000000E+00 -0.45593999997E+02  0.45594000000E+02  0.51100000000E-03 0. -1.
         23    2    1    2    0    0 -0.35527136788E-14  0.88817841970E-15  0.00000000000E+00  0.91188000000E+02  0.91188000000E+02 0.  0.
    9900012    2    3    3    0    0 -0.31112368814E+02  0.68554857379E+01  0.18460831141E+02  0.54367089306E+02  0.40000011692E+02 0.  0.
        -12    1    3    3    0    0  0.31112368814E+02 -0.68554857379E+01 -0.18460831141E+02  0.36820910694E+02  0.00000000000E+00 0.  1.
         11    1    4    4    0    0 -0.64775993549E+01  0.17611717294E+00  0.17636497558E+02  0.18789261748E+02  0.51100000000E-03 0. -1.
        -11    1    4    4    0    0  0.45991967605E+01 -0.17778829029E+00 -0.27131060086E+01  0.53427674470E+01  0.51100000000E-03 0.  1.
         12    1    4    4    0    0 -0.29233966219E+02  0.68571568553E+01  0.35374395911E+01  0.30235060111E+02  0.00000000000E+00 0. -1.
</event>
<event>
 8    1  0.1238315E-006  0.9118800E+02  0.7816164E-02  0.1184000E+00
        -11   -1    0    0    0    0  0.00000000000E+00  0.00000000000E+00  0.45593999997E+02  0.45594000000E+02  0.51100000000E-03 0.  1.
         11   -1    0    0    0    0 -0.00000000000E+00 -0.00000000000E+00 -0.45593999997E+02  0.45594000000E+02  0.51100000000E-03 0. -1.
         23    2    1    2    0    0 -0.35527136788E-14 -0.13322676296E-14  0.35527136788E-14  0.91188000000E+02  0.91188000000E+02 0.  0.
    9900012    2    3    3    0    0 -0.26713504187E+02 -0.30370360309E+01  0.25158398564E+02  0.54367083225E+02  0.39999997829E+02 0.  0.
         12    1    3    3    0    0  0.26713504187E+02  0.30370360309E+01 -0.25158398564E+02  0.36820916775E+02  0.00000000000E+00 0. -1.
         11    1    4    4    0    0  0.16295067437E+00 -0.91301475384E+01  0.11147594742E+02  0.14410239963E+02  0.51100000000E-03 0.  1.
        -11    1    4    4    0    0 -0.12028761688E+02  0.44538374598E+01 -0.66605084422E+01  0.14453032513E+02  0.51100000000E-03 0. -1.
        -12    1    4    4    0    0 -0.14847693174E+02  0.16392740478E+01  0.20671312265E+02  0.25503810749E+02  0.00000000000E+00 0.  1.
</event>
<event>
 8    1  0.1238315E-006  0.9118800E+02  0.7816164E-02  0.1184000E+00
        -11   -1    0    0    0    0  0.00000000000E+00  0.00000000000E+00  0.45593999997E+02  0.45594000000E+02  0.51100000000E-03 0.  1.
         11   -1    0    0    0    0 -0.00000000000E+00 -0.00000000000E+00 -0.45593999997E+02  0.45594000000E+02  0.51100000000E-03 0. -1.
         23    2    1    2    0    0  0.44408920985E-15  0.00000000000E+00  0.53290705182E-14  0.91188000000E+02  0.91188000000E+02 0.  0.
    9900012    2    3    3    0    0 -0.39653790278E+01 -0.33622034082E+02 -0.14478102927E+02  0.54367070204E+02  0.39999968145E+02 0.  0.
        -12    1    3    3    0    0  0.39653790278E+01  0.33622034082E+02  0.14478102927E+02  0.36820929796E+02  0.00000000000E+00 0.  1.
         11    1    4    4    0    0 -0.27011260393E+01 -0.12740400697E+02  0.50536572297E+01  0.13969729541E+02  0.51100000000E-03 0. -1.
        -11    1    4    4    0    0  0.20742438979E+01 -0.11034321698E+02  0.60709167435E+01  0.12763807169E+02  0.51100000000E-03 0.  1.
         12    1    4    4    0    0 -0.33384968864E+01 -0.98473116874E+01 -0.25602676900E+02  0.27633533495E+02  0.00000000000E+00 0. -1.
</event>
<event>
 8    1  0.1238315E-006  0.9118800E+02  0.7816164E-02  0.1184000E+00
        -11   -1    0    0    0    0  0.00000000000E+00  0.00000000000E+00  0.45593999997E+02  0.45594000000E+02  0.51100000000E-03 0. -1.
         11   -1    0    0    0    0 -0.00000000000E+00 -0.00000000000E+00 -0.45593999997E+02  0.45594000000E+02  0.51100000000E-03 0.  1.
         23    2    1    2    0    0  0.00000000000E+00  0.00000000000E+00 -0.35527136788E-14  0.91188000000E+02  0.91188000000E+02 0.  0.
    9900012    2    3    3    0    0  0.12850524109E+02  0.15380261723E+02  0.30888346848E+02  0.54367103874E+02  0.40000044902E+02 0.  0.
        -12    1    3    3    0    0 -0.12850524109E+02 -0.15380261723E+02 -0.30888346848E+02  0.36820896126E+02  0.00000000000E+00 0.  1.
         11    1    4    4    0    0  0.82843981342E+01  0.57043192153E+01  0.12436165078E+02  0.15994646363E+02  0.51100000000E-03 0. -1.
        -11    1    4    4    0    0  0.78586200161E+01  0.13462607873E+02  0.25400037325E+02  0.29802040461E+02  0.51100000000E-03 0.  1.
        -12    1    4    4    0    0 -0.32924940418E+01 -0.37866653653E+01 -0.69478555550E+01  0.85704170504E+01  0.00000000000E+00 0.  1.
</event>
<event>
 8    1  0.1238315E-006  0.9118800E+02  0.7816164E-02  0.1184000E+00
        -11   -1    0    0    0    0  0.00000000000E+00  0.00000000000E+00  0.45593999997E+02  0.45594000000E+02  0.51100000000E-03 0. -1.
         11   -1    0    0    0    0 -0.00000000000E+00 -0.00000000000E+00 -0.45593999997E+02  0.45594000000E+02  0.51100000000E-03 0.  1.
         23    2    1    2    0    0  0.17763568394E-14 -0.35527136788E-14 -0.71054273576E-14  0.91188000000E+02  0.91188000000E+02 0.  0.
    9900012    2    3    3    0    0  0.12827787613E+02 -0.17632105619E+02 -0.29670461367E+02  0.54367087989E+02  0.40000008688E+02 0.  0.
         12    1    3    3    0    0 -0.12827787613E+02  0.17632105619E+02  0.29670461367E+02  0.36820912011E+02  0.00000000000E+00 0. -1.
         11    1    4    4    0    0 -0.47447282259E+01 -0.12988712240E+02 -0.61045032926E+01  0.15115688945E+02  0.51100000000E-03 0. -1.
        -11    1    4    4    0    0 -0.46895078492E+01 -0.52283679992E+01 -0.12606829653E+02  0.14431197801E+02  0.51100000000E-03 0.  1.
         12    1    4    4    0    0  0.22262023688E+02  0.58497461967E+00 -0.10959128422E+02  0.24820201243E+02  0.00000000000E+00 0. -1.
</event>
<event>
 8    1  0.1238315E-006  0.9118800E+02  0.7816164E-02  0.1184000E+00
        -11   -1    0    0    0    0  0.00000000000E+00  0.00000000000E+00  0.45593999997E+02  0.45594000000E+02  0.51100000000E-03 0.  1.
         11   -1    0    0    0    0 -0.00000000000E+00 -0.00000000000E+00 -0.45593999997E+02  0.45594000000E+02  0.51100000000E-03 0. -1.
         23    2    1    2    0    0  0.00000000000E+00  0.35527136788E-14 -0.17763568394E-14  0.91188000000E+02  0.91188000000E+02 0.  0.
    9900012    2    3    3    0    0 -0.27703476322E+02 -0.19060912229E+02 -0.14999297075E+02  0.54367083552E+02  0.39999998574E+02 0.  0.
        -12    1    3    3    0    0  0.27703476322E+02  0.19060912229E+02  0.14999297075E+02  0.36820916448E+02  0.00000000000E+00 0.  1.
         11    1    4    4    0    0  0.13947829717E+01 -0.52404120226E+00 -0.99956853290E+01  0.10106125082E+02  0.51100000000E-03 0. -1.
        -11    1    4    4    0    0 -0.37100288919E+01 -0.14079390019E+02  0.66084965499E+01  0.15989551732E+02  0.51100000000E-03 0.  1.
        -12    1    4    4    0    0 -0.25388230402E+02 -0.44574810083E+01 -0.11612108296E+02  0.28271406738E+02  0.00000000000E+00 0.  1.
</event>
<event>
 8    1  0.1238315E-006  0.9118800E+02  0.7816164E-02  0.1184000E+00
        -11   -1    0    0    0    0  0.00000000000E+00  0.00000000000E+00  0.45593999997E+02  0.45594000000E+02  0.51100000000E-03 0.  1.
         11   -1    0    0    0    0 -0.00000000000E+00 -0.00000000000E+00 -0.45593999997E+02  0.45594000000E+02  0.51100000000E-03 0. -1.
         23    2    1    2    0    0  0.17763568394E-14 -0.35527136788E-14 -0.35527136788E-14  0.91188000000E+02  0.91188000000E+02 0.  0.
    9900012    2    3    3    0    0  0.87644772417E+01 -0.20670683003E+02 -0.29183677401E+02  0.54367078994E+02  0.39999988182E+02 0.  0.
        -12    1    3    3    0    0 -0.87644772417E+01  0.20670683003E+02  0.29183677401E+02  0.36820921006E+02  0.00000000000E+00 0.  1.
         11    1    4    4    0    0  0.11701048264E+02 -0.44346621825E+01 -0.20955107995E+02  0.24406911122E+02  0.51100000000E-03 0. -1.
        -11    1    4    4    0    0  0.49115401023E+01 -0.97898914937E+01 -0.14387777273E+02  0.18082404065E+02  0.51100000000E-03 0.  1.
        -12    1    4    4    0    0 -0.78481111242E+01 -0.64461293264E+01  0.61592078673E+01  0.11877763807E+02  0.00000000000E+00 0.  1.
</event>
<event>
 8    1  0.1238315E-006  0.9118800E+02  0.7816164E-02  0.1184000E+00
        -11   -1    0    0    0    0  0.00000000000E+00  0.00000000000E+00  0.45593999997E+02  0.45594000000E+02  0.51100000000E-03 0. -1.
         11   -1    0    0    0    0 -0.00000000000E+00 -0.00000000000E+00 -0.45593999997E+02  0.45594000000E+02  0.51100000000E-03 0.  1.
         23    2    1    2    0    0 -0.17763568394E-14  0.00000000000E+00  0.00000000000E+00  0.91188000000E+02  0.91188000000E+02 0.  0.
    9900012    2    3    3    0    0  0.54487273387E+01 -0.30176463672E+02 -0.20383127621E+02  0.54367089080E+02  0.40000011176E+02 0.  0.
         12    1    3    3    0    0 -0.54487273387E+01  0.30176463672E+02  0.20383127621E+02  0.36820910920E+02  0.00000000000E+00 0. -1.
         11    1    4    4    0    0 -0.82998385352E+01  0.13259089533E+01  0.61608355987E+01  0.10421192340E+02  0.51100000000E-03 0. -1.
        -11    1    4    4    0    0  0.78796358348E+01 -0.11745249791E+02 -0.81650910380E+01  0.16331205267E+02  0.51100000000E-03 0.  1.
        -12    1    4    4    0    0  0.58689300391E+01 -0.19757122834E+02 -0.18378872182E+02  0.27614691473E+02  0.00000000000E+00 0.  1.
</event>
<event>
 8    1  0.1238315E-006  0.9118800E+02  0.7816164E-02  0.1184000E+00
        -11   -1    0    0    0    0  0.00000000000E+00  0.00000000000E+00  0.45593999997E+02  0.45594000000E+02  0.51100000000E-03 0. -1.
         11   -1    0    0    0    0 -0.00000000000E+00 -0.00000000000E+00 -0.45593999997E+02  0.45594000000E+02  0.51100000000E-03 0.  1.
         23    2    1    2    0    0  0.00000000000E+00  0.17763568394E-14  0.00000000000E+00  0.91188000000E+02  0.91188000000E+02 0.  0.
    9900012    2    3    3    0    0  0.27159924318E+02 -0.10570496691E+02 -0.22502942611E+02  0.54367091328E+02  0.40000016301E+02 0.  0.
         12    1    3    3    0    0 -0.27159924318E+02  0.10570496691E+02  0.22502942611E+02  0.36820908672E+02  0.00000000000E+00 0. -1.
         11    1    4    4    0    0  0.12764672243E+02 -0.23425686527E+02 -0.61263921668E+01  0.27372108578E+02  0.51100000000E-03 0. -1.
        -11    1    4    4    0    0  0.13150922327E+01 -0.13313180445E+01 -0.33392114242E+00  0.19008889780E+01  0.51100000000E-03 0.  1.
        -12    1    4    4    0    0  0.13080159842E+02  0.14186507881E+02 -0.16042629302E+02  0.25094093772E+02  0.00000000000E+00 0.  1.
</event>
<event>
 8    1  0.1238315E-006  0.9118800E+02  0.7816164E-02  0.1184000E+00
        -11   -1    0    0    0    0  0.00000000000E+00  0.00000000000E+00  0.45593999997E+02  0.45594000000E+02  0.51100000000E-03 0. -1.
         11   -1    0    0    0    0 -0.00000000000E+00 -0.00000000000E+00 -0.45593999997E+02  0.45594000000E+02  0.51100000000E-03 0.  1.
         23    2    1    2    0    0  0.00000000000E+00 -0.17763568394E-14 -0.35527136788E-14  0.91188000000E+02  0.91188000000E+02 0.  0.
    9900012    2    3    3    0    0 -0.17972123871E+02  0.93458504196E+01  0.30747959591E+02  0.54367093228E+02  0.40000020631E+02 0.  0.
        -12    1    3    3    0    0  0.17972123871E+02 -0.93458504196E+01 -0.30747959591E+02  0.36820906772E+02  0.00000000000E+00 0.  1.
         11    1    4    4    0    0  0.28813698734E+01 -0.20815318923E+01  0.56483358433E+01  0.66737369911E+01  0.51100000000E-03 0. -1.
        -11    1    4    4    0    0 -0.28753541904E+02  0.89455938203E+01  0.12473699575E+02  0.32594217312E+02  0.51100000000E-03 0.  1.
        -12    1    4    4    0    0  0.79000481594E+01  0.24817884916E+01  0.12625924173E+02  0.15099138925E+02  0.00000000000E+00 0.  1.
</event>
<event>
 8    1  0.1238315E-006  0.9118800E+02  0.7816164E-02  0.1184000E+00
        -11   -1    0    0    0    0  0.00000000000E+00  0.00000000000E+00  0.45593999997E+02  0.45594000000E+02  0.51100000000E-03 0. -1.
         11   -1    0    0    0    0 -0.00000000000E+00 -0.00000000000E+00 -0.45593999997E+02  0.45594000000E+02  0.51100000000E-03 0.  1.
         23    2    1    2    0    0  0.22204460493E-15 -0.71054273576E-14 -0.66613381478E-15  0.91188000000E+02  0.91188000000E+02 0.  0.
    9900012    2    3    3    0    0  0.14340281438E+01 -0.36768312100E+02 -0.13466590612E+01  0.54367099658E+02  0.40000035290E+02 0.  0.
         12    1    3    3    0    0 -0.14340281438E+01  0.36768312100E+02  0.13466590612E+01  0.36820900342E+02  0.00000000000E+00 0. -1.
         11    1    4    4    0    0  0.70087809621E+00 -0.35238772957E+01 -0.50730338946E+01  0.62164792654E+01  0.51100000000E-03 0. -1.
        -11    1    4    4    0    0  0.13092280890E+02 -0.94238205444E+01 -0.89758456385E+01  0.18460282169E+02  0.51100000000E-03 0.  1.
         12    1    4    4    0    0 -0.12359130843E+02 -0.23820614260E+02  0.12702220472E+02  0.29690338223E+02  0.00000000000E+00 0. -1.
</event>
<event>
 8    1  0.1238315E-006  0.9118800E+02  0.7816164E-02  0.1184000E+00
        -11   -1    0    0    0    0  0.00000000000E+00  0.00000000000E+00  0.45593999997E+02  0.45594000000E+02  0.51100000000E-03 0.  1.
         11   -1    0    0    0    0 -0.00000000000E+00 -0.00000000000E+00 -0.45593999997E+02  0.45594000000E+02  0.51100000000E-03 0. -1.
         23    2    1    2    0    0  0.71054273576E-14  0.00000000000E+00  0.00000000000E+00  0.91188000000E+02  0.91188000000E+02 0.  0.
    9900012    2    3    3    0    0 -0.16517653235E+02 -0.31323769711E+02  0.10087716859E+02  0.54367170993E+02  0.40000197913E+02 0.  0.
        -12    1    3    3    0    0  0.16517653235E+02  0.31323769711E+02 -0.10087716859E+02  0.36820829007E+02  0.00000000000E+00 0.  1.
         11    1    4    4    0    0  0.53017913125E+00 -0.10086719745E+02  0.53042981112E+01  0.11408706493E+02  0.51100000000E-03 0. -1.
        -11    1    4    4    0    0  0.10695359479E+01 -0.23337297129E+02  0.74609986541E+01  0.24524270541E+02  0.51100000000E-03 0.  1.
         12    1    4    4    0    0 -0.18117368314E+02  0.21002471623E+01 -0.26775799060E+01  0.18434193959E+02  0.00000000000E+00 0. -1.
</event>
<event>
 8    1  0.1238315E-006  0.9118800E+02  0.7816164E-02  0.1184000E+00
        -11   -1    0    0    0    0  0.00000000000E+00  0.00000000000E+00  0.45593999997E+02  0.45594000000E+02  0.51100000000E-03 0.  1.
         11   -1    0    0    0    0 -0.00000000000E+00 -0.00000000000E+00 -0.45593999997E+02  0.45594000000E+02  0.51100000000E-03 0. -1.
         23    2    1    2    0    0  0.00000000000E+00 -0.35527136788E-14  0.35527136788E-14  0.91188000000E+02  0.91188000000E+02 0.  0.
    9900012    2    3    3    0    0  0.19625693074E+02 -0.26023597755E+02 -0.17128461366E+02  0.54367086683E+02  0.40000005711E+02 0.  0.
        -12    1    3    3    0    0 -0.19625693074E+02  0.26023597755E+02  0.17128461366E+02  0.36820913317E+02  0.00000000000E+00 0.  1.
         11    1    4    4    0    0  0.17580708012E+02 -0.35405183394E+01  0.30026443298E+01  0.18183301063E+02  0.51100000000E-03 0. -1.
        -11    1    4    4    0    0 -0.56264604097E+00 -0.20795558574E+02 -0.59084867550E+01  0.21625957619E+02  0.51100000000E-03 0.  1.
         12    1    4    4    0    0  0.26076311027E+01 -0.16875208417E+01 -0.14222618941E+02  0.14557828001E+02  0.00000000000E+00 0. -1.
</event>
<event>
 8    1  0.1238315E-006  0.9118800E+02  0.7816164E-02  0.1184000E+00
        -11   -1    0    0    0    0  0.00000000000E+00  0.00000000000E+00  0.45593999997E+02  0.45594000000E+02  0.51100000000E-03 0.  1.
         11   -1    0    0    0    0 -0.00000000000E+00 -0.00000000000E+00 -0.45593999997E+02  0.45594000000E+02  0.51100000000E-03 0. -1.
         23    2    1    2    0    0  0.00000000000E+00  0.44408920985E-15  0.00000000000E+00  0.91188000000E+02  0.91188000000E+02 0.  0.
    9900012    2    3    3    0    0 -0.14015585584E+02 -0.29114862608E+01  0.33924427422E+02  0.54367079759E+02  0.39999989926E+02 0.  0.
         12    1    3    3    0    0  0.14015585584E+02  0.29114862608E+01 -0.33924427422E+02  0.36820920241E+02  0.00000000000E+00 0. -1.
         11    1    4    4    0    0 -0.30794986306E+01 -0.32445998184E+01 -0.74320368133E+01  0.86744401117E+01  0.51100000000E-03 0. -1.
        -11    1    4    4    0    0 -0.88417979205E+01  0.49782204808E+01  0.38575570855E+02  0.39887776783E+02  0.51100000000E-03 0.  1.
        -12    1    4    4    0    0 -0.20942890331E+01 -0.46451069233E+01  0.27808933803E+01  0.58048628644E+01  0.00000000000E+00 0.  1.
</event>
<event>
 8    1  0.1238315E-006  0.9118800E+02  0.7816164E-02  0.1184000E+00
        -11   -1    0    0    0    0  0.00000000000E+00  0.00000000000E+00  0.45593999997E+02  0.45594000000E+02  0.51100000000E-03 0. -1.
         11   -1    0    0    0    0 -0.00000000000E+00 -0.00000000000E+00 -0.45593999997E+02  0.45594000000E+02  0.51100000000E-03 0.  1.
         23    2    1    2    0    0  0.88817841970E-15  0.00000000000E+00 -0.35527136788E-14  0.91188000000E+02  0.91188000000E+02 0.  0.
    9900012    2    3    3    0    0  0.59584580717E+01 -0.18754580850E+02  0.31121382630E+02  0.54367109431E+02  0.40000057570E+02 0.  0.
        -12    1    3    3    0    0 -0.59584580717E+01  0.18754580850E+02 -0.31121382630E+02  0.36820890569E+02  0.00000000000E+00 0.  1.
         11    1    4    4    0    0  0.13109272370E+01 -0.12872419970E+02  0.12562732618E+02  0.18034410919E+02  0.51100000000E-03 0. -1.
        -11    1    4    4    0    0  0.88536664268E+01 -0.15119014503E+02  0.30289070337E+01  0.17780502996E+02  0.51100000000E-03 0.  1.
         12    1    4    4    0    0 -0.42061355921E+01  0.92368536226E+01  0.15529742979E+02  0.18552195516E+02  0.00000000000E+00 0. -1.
</event>
<event>
 8    1  0.1238315E-006  0.9118800E+02  0.7816164E-02  0.1184000E+00
        -11   -1    0    0    0    0  0.00000000000E+00  0.00000000000E+00  0.45593999997E+02  0.45594000000E+02  0.51100000000E-03 0. -1.
         11   -1    0    0    0    0 -0.00000000000E+00 -0.00000000000E+00 -0.45593999997E+02  0.45594000000E+02  0.51100000000E-03 0.  1.
         23    2    1    2    0    0 -0.13877787808E-15 -0.17763568394E-14  0.00000000000E+00  0.91188000000E+02  0.91188000000E+02 0.  0.
    9900012    2    3    3    0    0 -0.23078085482E+00 -0.10120688502E+02 -0.35401937732E+02  0.54367098453E+02  0.40000032543E+02 0.  0.
         12    1    3    3    0    0  0.23078085482E+00  0.10120688502E+02  0.35401937732E+02  0.36820901547E+02  0.00000000000E+00 0. -1.
         11    1    4    4    0    0  0.46342537267E+01  0.61520407022E+01 -0.21143641771E+02  0.22502833155E+02  0.51100000000E-03 0. -1.
        -11    1    4    4    0    0  0.15815658825E+01 -0.10583862895E+02  0.42044980861E+01  0.11497708852E+02  0.51100000000E-03 0.  1.
        -12    1    4    4    0    0 -0.64466004640E+01 -0.56888663085E+01 -0.18462794048E+02  0.20366556446E+02  0.00000000000E+00 0.  1.
</event>
<event>
 8    1  0.1238315E-006  0.9118800E+02  0.7816164E-02  0.1184000E+00
        -11   -1    0    0    0    0  0.00000000000E+00  0.00000000000E+00  0.45593999997E+02  0.45594000000E+02  0.51100000000E-03 0.  1.
         11   -1    0    0    0    0 -0.00000000000E+00 -0.00000000000E+00 -0.45593999997E+02  0.45594000000E+02  0.51100000000E-03 0. -1.
         23    2    1    2    0    0  0.35527136788E-14  0.35527136788E-14  0.35527136788E-14  0.91188000000E+02  0.91188000000E+02 0.  0.
    9900012    2    3    3    0    0 -0.17483467059E+02 -0.26522250477E+02 -0.18619417261E+02  0.54367026494E+02  0.39999868498E+02 0.  0.
        -12    1    3    3    0    0  0.17483467059E+02  0.26522250477E+02  0.18619417261E+02  0.36820973506E+02  0.00000000000E+00 0.  1.
         11    1    4    4    0    0 -0.18125824385E+02 -0.24106468749E+02 -0.80624619230E+01  0.31219715529E+02  0.51100000000E-03 0. -1.
        -11    1    4    4    0    0  0.40413005460E+01 -0.98375374292E+01 -0.10555521141E+02  0.14984267736E+02  0.51100000000E-03 0.  1.
         12    1    4    4    0    0 -0.33989432195E+01  0.74217557011E+01 -0.14341972857E-02  0.81630432287E+01  0.00000000000E+00 0. -1.
</event>
<event>
 8    1  0.1238315E-006  0.9118800E+02  0.7816164E-02  0.1184000E+00
        -11   -1    0    0    0    0  0.00000000000E+00  0.00000000000E+00  0.45593999997E+02  0.45594000000E+02  0.51100000000E-03 0.  1.
         11   -1    0    0    0    0 -0.00000000000E+00 -0.00000000000E+00 -0.45593999997E+02  0.45594000000E+02  0.51100000000E-03 0. -1.
         23    2    1    2    0    0  0.71054273576E-14  0.88817841970E-15  0.00000000000E+00  0.91188000000E+02  0.91188000000E+02 0.  0.
    9900012    2    3    3    0    0 -0.36061990131E+02  0.55497355443E+01  0.49511820827E+01  0.54367069799E+02  0.39999967221E+02 0.  0.
         12    1    3    3    0    0  0.36061990131E+02 -0.55497355443E+01 -0.49511820827E+01  0.36820930201E+02  0.00000000000E+00 0. -1.
         11    1    4    4    0    0 -0.14321953369E+02  0.13273089270E+02  0.13681795297E+02  0.23842918653E+02  0.51100000000E-03 0. -1.
        -11    1    4    4    0    0 -0.15168207780E+02  0.40598393563E+01 -0.56262217433E+01  0.16679664092E+02  0.51100000000E-03 0.  1.
         12    1    4    4    0    0 -0.65718289822E+01 -0.11783193082E+02 -0.31043914710E+01  0.13844487054E+02  0.00000000000E+00 0. -1.
</event>
<event>
 8    1  0.1238315E-006  0.9118800E+02  0.7816164E-02  0.1184000E+00
        -11   -1    0    0    0    0  0.00000000000E+00  0.00000000000E+00  0.45593999997E+02  0.45594000000E+02  0.51100000000E-03 0.  1.
         11   -1    0    0    0    0 -0.00000000000E+00 -0.00000000000E+00 -0.45593999997E+02  0.45594000000E+02  0.51100000000E-03 0. -1.
         23    2    1    2    0    0 -0.17763568394E-14  0.00000000000E+00  0.00000000000E+00  0.91188000000E+02  0.91188000000E+02 0.  0.
    9900012    2    3    3    0    0  0.13361848354E+02  0.34210878464E+02  0.26184945838E+01  0.54367085962E+02  0.40000004068E+02 0.  0.
        -12    1    3    3    0    0 -0.13361848354E+02 -0.34210878464E+02 -0.26184945838E+01  0.36820914038E+02  0.00000000000E+00 0.  1.
         11    1    4    4    0    0  0.22075679422E+02  0.17064647167E+02  0.27742625068E+01  0.28039870499E+02  0.51100000000E-03 0. -1.
        -11    1    4    4    0    0 -0.11947771544E+02  0.75002089473E+01 -0.51196874593E+01  0.15007117613E+02  0.51100000000E-03 0.  1.
         12    1    4    4    0    0  0.32339404757E+01  0.96460223496E+01  0.49639195363E+01  0.11320097850E+02  0.00000000000E+00 0. -1.
</event>
<event>
 8    1  0.1238315E-006  0.9118800E+02  0.7816164E-02  0.1184000E+00
        -11   -1    0    0    0    0  0.00000000000E+00  0.00000000000E+00  0.45593999997E+02  0.45594000000E+02  0.51100000000E-03 0. -1.
         11   -1    0    0    0    0 -0.00000000000E+00 -0.00000000000E+00 -0.45593999997E+02  0.45594000000E+02  0.51100000000E-03 0.  1.
         23    2    1    2    0    0 -0.17763568394E-14  0.00000000000E+00  0.00000000000E+00  0.91188000000E+02  0.91188000000E+02 0.  0.
    9900012    2    3    3    0    0 -0.13377332060E+02 -0.25607231546E+02 -0.22827535007E+02  0.54367086445E+02  0.40000005169E+02 0.  0.
         12    1    3    3    0    0  0.13377332060E+02  0.25607231546E+02  0.22827535007E+02  0.36820913555E+02  0.00000000000E+00 0. -1.
         11    1    4    4    0    0 -0.91742490414E+01 -0.31399328484E+01 -0.49395648720E+01  0.10882340059E+02  0.51100000000E-03 0. -1.
        -11    1    4    4    0    0 -0.12169353351E+01 -0.17213187926E+02  0.64390024831E+01  0.18418347467E+02  0.51100000000E-03 0.  1.
        -12    1    4    4    0    0 -0.29861476832E+01 -0.52541107723E+01 -0.24326972619E+02  0.25066398919E+02  0.00000000000E+00 0.  1.
</event>
<event>
 8    1  0.1238315E-006  0.9118800E+02  0.7816164E-02  0.1184000E+00
        -11   -1    0    0    0    0  0.00000000000E+00  0.00000000000E+00  0.45593999997E+02  0.45594000000E+02  0.51100000000E-03 0. -1.
         11   -1    0    0    0    0 -0.00000000000E+00 -0.00000000000E+00 -0.45593999997E+02  0.45594000000E+02  0.51100000000E-03 0.  1.
         23    2    1    2    0    0  0.19428902931E-15  0.00000000000E+00  0.71054273576E-14  0.91188000000E+02  0.91188000000E+02 0.  0.
    9900012    2    3    3    0    0  0.22266287379E+00  0.16690226085E+02  0.32820231771E+02  0.54367070638E+02  0.39999969134E+02 0.  0.
        -12    1    3    3    0    0 -0.22266287379E+00 -0.16690226085E+02 -0.32820231771E+02  0.36820929362E+02  0.00000000000E+00 0.  1.
         11    1    4    4    0    0  0.75932574682E+01  0.14743147650E+02  0.23455080254E+02  0.28725576610E+02  0.51100000000E-03 0. -1.
        -11    1    4    4    0    0 -0.27022013588E+01  0.74586869308E+01 -0.51293974357E+01  0.94469371348E+01  0.51100000000E-03 0.  1.
         12    1    4    4    0    0 -0.46683932356E+01 -0.55116084955E+01  0.14494548953E+02  0.16194556893E+02  0.00000000000E+00 0. -1.
</event>
<event>
 8    1  0.1238315E-006  0.9118800E+02  0.7816164E-02  0.1184000E+00
        -11   -1    0    0    0    0  0.00000000000E+00  0.00000000000E+00  0.45593999997E+02  0.45594000000E+02  0.51100000000E-03 0.  1.
         11   -1    0    0    0    0 -0.00000000000E+00 -0.00000000000E+00 -0.45593999997E+02  0.45594000000E+02  0.51100000000E-03 0. -1.
         23    2    1    2    0    0 -0.35527136788E-14  0.00000000000E+00  0.35527136788E-14  0.91188000000E+02  0.91188000000E+02 0.  0.
    9900012    2    3    3    0    0  0.26975808351E+02  0.97567786161E+01 -0.23084472929E+02  0.54367056835E+02  0.39999937668E+02 0.  0.
         12    1    3    3    0    0 -0.26975808351E+02 -0.97567786161E+01  0.23084472929E+02  0.36820943165E+02  0.00000000000E+00 0. -1.
         11    1    4    4    0    0  0.23257187759E+01 -0.10154877805E+02 -0.10953765048E+02  0.15116728483E+02  0.51100000000E-03 0.  1.
        -11    1    4    4    0    0 -0.60718317940E+00  0.11244831528E+01  0.37722910775E+01  0.39828776040E+01  0.51100000000E-03 0. -1.
         12    1    4    4    0    0  0.25257272754E+02  0.18787173268E+02 -0.15902998958E+02  0.35267450748E+02  0.00000000000E+00 0. -1.
</event>
<event>
 8    1  0.1238315E-006  0.9118800E+02  0.7816164E-02  0.1184000E+00
        -11   -1    0    0    0    0  0.00000000000E+00  0.00000000000E+00  0.45593999997E+02  0.45594000000E+02  0.51100000000E-03 0.  1.
         11   -1    0    0    0    0 -0.00000000000E+00 -0.00000000000E+00 -0.45593999997E+02  0.45594000000E+02  0.51100000000E-03 0. -1.
         23    2    1    2    0    0 -0.17763568394E-14  0.35527136788E-14  0.00000000000E+00  0.91188000000E+02  0.91188000000E+02 0.  0.
    9900012    2    3    3    0    0  0.12068664461E+02 -0.18151469445E+02  0.29675734401E+02  0.54367113032E+02  0.40000065779E+02 0.  0.
         12    1    3    3    0    0 -0.12068664461E+02  0.18151469445E+02 -0.29675734401E+02  0.36820886968E+02  0.00000000000E+00 0. -1.
         11    1    4    4    0    0  0.54522328422E+01  0.20947731325E+01 -0.30015969861E+01  0.65669248641E+01  0.51100000000E-03 0. -1.
        -11    1    4    4    0    0 -0.89080029655E+01 -0.32159472107E+00  0.45909835180E+01  0.10026618070E+02  0.51100000000E-03 0.  1.
         12    1    4    4    0    0  0.15524434584E+02 -0.19924647857E+02  0.28086347869E+02  0.37773570098E+02  0.00000000000E+00 0. -1.
</event>
<event>
 8    1  0.1238315E-006  0.9118800E+02  0.7816164E-02  0.1184000E+00
        -11   -1    0    0    0    0  0.00000000000E+00  0.00000000000E+00  0.45593999997E+02  0.45594000000E+02  0.51100000000E-03 0.  1.
         11   -1    0    0    0    0 -0.00000000000E+00 -0.00000000000E+00 -0.45593999997E+02  0.45594000000E+02  0.51100000000E-03 0. -1.
         23    2    1    2    0    0 -0.35527136788E-14  0.35527136788E-14  0.47184478547E-15  0.91188000000E+02  0.91188000000E+02 0.  0.
    9900012    2    3    3    0    0 -0.27417368083E+02  0.24577032108E+02 -0.19300097326E+00  0.54367084351E+02  0.40000000396E+02 0.  0.
         12    1    3    3    0    0  0.27417368083E+02 -0.24577032108E+02  0.19300097326E+00  0.36820915649E+02  0.00000000000E+00 0. -1.
         11    1    4    4    0    0 -0.23804755372E+02 -0.12805052668E+01 -0.42526994460E+01  0.24215522396E+02  0.51100000000E-03 0. -1.
        -11    1    4    4    0    0  0.45762927929E+01  0.10536278530E+02 -0.21807385814E+01  0.11692358274E+02  0.51100000000E-03 0.  1.
        -12    1    4    4    0    0 -0.81889055038E+01  0.15321258845E+02  0.62404370541E+01  0.18459203682E+02  0.00000000000E+00 0.  1.
</event>
<event>
 8    1  0.1238315E-006  0.9118800E+02  0.7816164E-02  0.1184000E+00
        -11   -1    0    0    0    0  0.00000000000E+00  0.00000000000E+00  0.45593999997E+02  0.45594000000E+02  0.51100000000E-03 0.  1.
         11   -1    0    0    0    0 -0.00000000000E+00 -0.00000000000E+00 -0.45593999997E+02  0.45594000000E+02  0.51100000000E-03 0. -1.
         23    2    1    2    0    0  0.17763568394E-14 -0.35527136788E-14  0.71054273576E-14  0.91188000000E+02  0.91188000000E+02 0.  0.
    9900012    2    3    3    0    0 -0.71985091778E+01 -0.25462860091E+02  0.25604753061E+02  0.54367093470E+02  0.40000021183E+02 0.  0.
         12    1    3    3    0    0  0.71985091778E+01  0.25462860091E+02 -0.25604753061E+02  0.36820906530E+02  0.00000000000E+00 0. -1.
         11    1    4    4    0    0  0.89925111819E+01  0.42900842599E+01  0.31530493242E+00  0.99684250398E+01  0.51100000000E-03 0. -1.
        -11    1    4    4    0    0 -0.20319359905E+00 -0.83715316792E+00 -0.15876285702E+01  0.18062884054E+01  0.51100000000E-03 0.  1.
        -12    1    4    4    0    0 -0.15987826761E+02 -0.28915791183E+02  0.26877076699E+02  0.42592380024E+02  0.00000000000E+00 0.  1.
</event>
<event>
 8    1  0.1238315E-006  0.9118800E+02  0.7816164E-02  0.1184000E+00
        -11   -1    0    0    0    0  0.00000000000E+00  0.00000000000E+00  0.45593999997E+02  0.45594000000E+02  0.51100000000E-03 0.  1.
         11   -1    0    0    0    0 -0.00000000000E+00 -0.00000000000E+00 -0.45593999997E+02  0.45594000000E+02  0.51100000000E-03 0. -1.
         23    2    1    2    0    0  0.00000000000E+00 -0.26645352591E-14  0.33306690739E-15  0.91188000000E+02  0.91188000000E+02 0.  0.
    9900012    2    3    3    0    0 -0.36710852337E+02  0.27169966600E+01 -0.84419803846E+00  0.54367062743E+02  0.39999951135E+02 0.  0.
        -12    1    3    3    0    0  0.36710852337E+02 -0.27169966600E+01  0.84419803846E+00  0.36820937257E+02  0.00000000000E+00 0.  1.
         11    1    4    4    0    0 -0.19001124544E+02  0.97707210790E+01 -0.50281869994E+01  0.21949769682E+02  0.51100000000E-03 0. -1.
        -11    1    4    4    0    0 -0.45883535669E+01 -0.11927057367E+02 -0.69364701464E+01  0.14540368091E+02  0.51100000000E-03 0.  1.
        -12    1    4    4    0    0 -0.13121374226E+02  0.48733329477E+01  0.11120459107E+02  0.17876924969E+02  0.00000000000E+00 0.  1.
</event>
<event>
 8    1  0.1238315E-006  0.9118800E+02  0.7816164E-02  0.1184000E+00
        -11   -1    0    0    0    0  0.00000000000E+00  0.00000000000E+00  0.45593999997E+02  0.45594000000E+02  0.51100000000E-03 0.  1.
         11   -1    0    0    0    0 -0.00000000000E+00 -0.00000000000E+00 -0.45593999997E+02  0.45594000000E+02  0.51100000000E-03 0. -1.
         23    2    1    2    0    0 -0.35527136788E-14 -0.35527136788E-14 -0.35527136788E-14  0.91188000000E+02  0.91188000000E+02 0.  0.
    9900012    2    3    3    0    0  0.11864685418E+02  0.26422949315E+02  0.22734005865E+02  0.54367108740E+02  0.40000055993E+02 0.  0.
         12    1    3    3    0    0 -0.11864685418E+02 -0.26422949315E+02 -0.22734005865E+02  0.36820891260E+02  0.00000000000E+00 0. -1.
         11    1    4    4    0    0  0.65078938948E+01  0.56125996772E+01 -0.12353501664E+01  0.86821684145E+01  0.51100000000E-03 0. -1.
        -11    1    4    4    0    0  0.17598838943E+01  0.10182725266E+02  0.30842275170E+02  0.32527388814E+02  0.51100000000E-03 0.  1.
         12    1    4    4    0    0  0.35969076289E+01  0.10627624371E+02 -0.68729191388E+01  0.13157551511E+02  0.00000000000E+00 0. -1.
</event>
<event>
 8    1  0.1238315E-006  0.9118800E+02  0.7816164E-02  0.1184000E+00
        -11   -1    0    0    0    0  0.00000000000E+00  0.00000000000E+00  0.45593999997E+02  0.45594000000E+02  0.51100000000E-03 0.  1.
         11   -1    0    0    0    0 -0.00000000000E+00 -0.00000000000E+00 -0.45593999997E+02  0.45594000000E+02  0.51100000000E-03 0. -1.
         23    2    1    2    0    0  0.00000000000E+00  0.00000000000E+00 -0.35527136788E-14  0.91188000000E+02  0.91188000000E+02 0.  0.
    9900012    2    3    3    0    0  0.60665751413E+01 -0.20256482395E+02 -0.30143842774E+02  0.54367086511E+02  0.40000005319E+02 0.  0.
        -12    1    3    3    0    0 -0.60665751413E+01  0.20256482395E+02  0.30143842774E+02  0.36820913489E+02  0.00000000000E+00 0.  1.
         11    1    4    4    0    0  0.38566449043E+00  0.60148849918E+00 -0.15822814626E+02  0.15838938995E+02  0.51100000000E-03 0. -1.
        -11    1    4    4    0    0 -0.55207006484E+01 -0.23245070116E+02 -0.68520568257E+01  0.24854820525E+02  0.51100000000E-03 0.  1.
        -12    1    4    4    0    0  0.11201611299E+02  0.23870992215E+01 -0.74689713224E+01  0.13673326991E+02  0.00000000000E+00 0.  1.
</event>
<event>
 8    1  0.1238315E-006  0.9118800E+02  0.7816164E-02  0.1184000E+00
        -11   -1    0    0    0    0  0.00000000000E+00  0.00000000000E+00  0.45593999997E+02  0.45594000000E+02  0.51100000000E-03 0. -1.
         11   -1    0    0    0    0 -0.00000000000E+00 -0.00000000000E+00 -0.45593999997E+02  0.45594000000E+02  0.51100000000E-03 0.  1.
         23    2    1    2    0    0  0.00000000000E+00  0.17763568394E-14  0.17763568394E-14  0.91188000000E+02  0.91188000000E+02 0.  0.
    9900012    2    3    3    0    0  0.33696601036E+02 -0.37092955124E+01 -0.14372181789E+02  0.54367090126E+02  0.40000013560E+02 0.  0.
         12    1    3    3    0    0 -0.33696601036E+02  0.37092955124E+01  0.14372181789E+02  0.36820909874E+02  0.00000000000E+00 0. -1.
         11    1    4    4    0    0  0.12478086648E+02  0.83010707557E+01 -0.21335826525E+02  0.26073509849E+02  0.51100000000E-03 0. -1.
        -11    1    4    4    0    0  0.62906316022E+01 -0.75559957057E+01 -0.23962991259E+01  0.10119652505E+02  0.51100000000E-03 0.  1.
         12    1    4    4    0    0  0.14927882786E+02 -0.44543705623E+01  0.93599438616E+01  0.18173927772E+02  0.00000000000E+00 0. -1.
</event>
<event>
 8    1  0.1238315E-006  0.9118800E+02  0.7816164E-02  0.1184000E+00
        -11   -1    0    0    0    0  0.00000000000E+00  0.00000000000E+00  0.45593999997E+02  0.45594000000E+02  0.51100000000E-03 0. -1.
         11   -1    0    0    0    0 -0.00000000000E+00 -0.00000000000E+00 -0.45593999997E+02  0.45594000000E+02  0.51100000000E-03 0.  1.
         23    2    1    2    0    0  0.35527136788E-14  0.00000000000E+00  0.00000000000E+00  0.91188000000E+02  0.91188000000E+02 0.  0.
    9900012    2    3    3    0    0  0.15665992558E+02  0.27112329984E+02 -0.19372078284E+02  0.54367093207E+02  0.40000020585E+02 0.  0.
         12    1    3    3    0    0 -0.15665992558E+02 -0.27112329984E+02  0.19372078284E+02  0.36820906793E+02  0.00000000000E+00 0. -1.
         11    1    4    4    0    0 -0.25763182574E+00  0.21138852142E+01 -0.41625890326E+01  0.46756852516E+01  0.51100000000E-03 0. -1.
        -11    1    4    4    0    0  0.21514350253E+02  0.30640269274E+02 -0.17637787199E+02  0.41385805605E+02  0.51100000000E-03 0.  1.
        -12    1    4    4    0    0 -0.55907258697E+01 -0.56418245046E+01  0.24282979474E+01  0.83056023510E+01  0.00000000000E+00 0.  1.
</event>
<event>
 8    1  0.1238315E-006  0.9118800E+02  0.7816164E-02  0.1184000E+00
        -11   -1    0    0    0    0  0.00000000000E+00  0.00000000000E+00  0.45593999997E+02  0.45594000000E+02  0.51100000000E-03 0. -1.
         11   -1    0    0    0    0 -0.00000000000E+00 -0.00000000000E+00 -0.45593999997E+02  0.45594000000E+02  0.51100000000E-03 0.  1.
         23    2    1    2    0    0  0.00000000000E+00  0.00000000000E+00  0.88817841970E-15  0.91188000000E+02  0.91188000000E+02 0.  0.
    9900012    2    3    3    0    0  0.31312888166E+02 -0.18646009104E+02 -0.52541296632E+01  0.54367129569E+02  0.40000103478E+02 0.  0.
         12    1    3    3    0    0 -0.31312888166E+02  0.18646009104E+02  0.52541296632E+01  0.36820870431E+02  0.00000000000E+00 0. -1.
         11    1    4    4    0    0  0.21537518749E+02 -0.97082485918E+01  0.16068656757E+01  0.23679037610E+02  0.51100000000E-03 0. -1.
        -11    1    4    4    0    0  0.18001795819E+02 -0.39483834769E+01  0.71278944359E+00  0.18443493537E+02  0.51100000000E-03 0.  1.
        -12    1    4    4    0    0 -0.82264264029E+01 -0.49893770353E+01 -0.75737847825E+01  0.12244598421E+02  0.00000000000E+00 0.  1.
</event>
<event>
 8    1  0.1238315E-006  0.9118800E+02  0.7816164E-02  0.1184000E+00
        -11   -1    0    0    0    0  0.00000000000E+00  0.00000000000E+00  0.45593999997E+02  0.45594000000E+02  0.51100000000E-03 0. -1.
         11   -1    0    0    0    0 -0.00000000000E+00 -0.00000000000E+00 -0.45593999997E+02  0.45594000000E+02  0.51100000000E-03 0.  1.
         23    2    1    2    0    0  0.00000000000E+00  0.00000000000E+00  0.44408920985E-15  0.91188000000E+02  0.91188000000E+02 0.  0.
    9900012    2    3    3    0    0 -0.19252712287E+02 -0.31287355462E+02 -0.24926686257E+01  0.54367096439E+02  0.40000027952E+02 0.  0.
         12    1    3    3    0    0  0.19252712287E+02  0.31287355462E+02  0.24926686257E+01  0.36820903561E+02  0.00000000000E+00 0. -1.
         11    1    4    4    0    0  0.49447994278E+01 -0.27770871145E+02 -0.14884957257E+00  0.28208057040E+02  0.51100000000E-03 0. -1.
        -11    1    4    4    0    0 -0.15940396676E+02 -0.52197739269E+01 -0.46733988692E+01  0.17412149301E+02  0.51100000000E-03 0.  1.
         12    1    4    4    0    0 -0.82571150391E+01  0.17032896104E+01  0.23295798160E+01  0.87468900979E+01  0.00000000000E+00 0. -1.
</event>
<event>
 8    1  0.1238315E-006  0.9118800E+02  0.7816164E-02  0.1184000E+00
        -11   -1    0    0    0    0  0.00000000000E+00  0.00000000000E+00  0.45593999997E+02  0.45594000000E+02  0.51100000000E-03 0.  1.
         11   -1    0    0    0    0 -0.00000000000E+00 -0.00000000000E+00 -0.45593999997E+02  0.45594000000E+02  0.51100000000E-03 0. -1.
         23    2    1    2    0    0  0.00000000000E+00  0.17763568394E-14  0.35527136788E-14  0.91188000000E+02  0.91188000000E+02 0.  0.
    9900012    2    3    3    0    0  0.18338381035E+02  0.10066802327E+02  0.30300887982E+02  0.54367074692E+02  0.39999978374E+02 0.  0.
         12    1    3    3    0    0 -0.18338381035E+02 -0.10066802327E+02 -0.30300887982E+02  0.36820925308E+02  0.00000000000E+00 0. -1.
         11    1    4    4    0    0  0.12005500208E+02 -0.11471933747E+02  0.43618815058E+01  0.17168672333E+02  0.51100000000E-03 0. -1.
        -11    1    4    4    0    0  0.21005064440E+00  0.25221316058E+01  0.13343311830E+02  0.13581209076E+02  0.51100000000E-03 0.  1.
         12    1    4    4    0    0  0.61228301830E+01  0.19016604468E+02  0.12595694646E+02  0.23617193283E+02  0.00000000000E+00 0. -1.
</event>
<event>
 8    1  0.1238315E-006  0.9118800E+02  0.7816164E-02  0.1184000E+00
        -11   -1    0    0    0    0  0.00000000000E+00  0.00000000000E+00  0.45593999997E+02  0.45594000000E+02  0.51100000000E-03 0.  1.
         11   -1    0    0    0    0 -0.00000000000E+00 -0.00000000000E+00 -0.45593999997E+02  0.45594000000E+02  0.51100000000E-03 0. -1.
         23    2    1    2    0    0  0.71054273576E-14  0.17763568394E-14 -0.17763568394E-14  0.91188000000E+02  0.91188000000E+02 0.  0.
    9900012    2    3    3    0    0 -0.32287643457E+02  0.87524397579E+01 -0.15384495591E+02  0.54367084391E+02  0.40000000486E+02 0.  0.
        -12    1    3    3    0    0  0.32287643457E+02 -0.87524397579E+01  0.15384495591E+02  0.36820915609E+02  0.00000000000E+00 0.  1.
         11    1    4    4    0    0 -0.15162853738E+02  0.16357408862E+02 -0.19426751235E+01  0.22388634283E+02  0.51100000000E-03 0. -1.
        -11    1    4    4    0    0  0.38722462408E+01  0.86461492221E+00 -0.76356487603E+01  0.86049394051E+01  0.51100000000E-03 0.  1.
         12    1    4    4    0    0 -0.20997035960E+02 -0.84695840265E+01 -0.58061717069E+01  0.23373510702E+02  0.00000000000E+00 0. -1.
</event>
<event>
 8    1  0.1238315E-006  0.9118800E+02  0.7816164E-02  0.1184000E+00
        -11   -1    0    0    0    0  0.00000000000E+00  0.00000000000E+00  0.45593999997E+02  0.45594000000E+02  0.51100000000E-03 0.  1.
         11   -1    0    0    0    0 -0.00000000000E+00 -0.00000000000E+00 -0.45593999997E+02  0.45594000000E+02  0.51100000000E-03 0. -1.
         23    2    1    2    0    0  0.88817841970E-15 -0.17763568394E-14  0.00000000000E+00  0.91188000000E+02  0.91188000000E+02 0.  0.
    9900012    2    3    3    0    0 -0.58593016757E+01  0.88397508195E+01 -0.35260672884E+02  0.54366977976E+02  0.39999757891E+02 0.  0.
        -12    1    3    3    0    0  0.58593016757E+01 -0.88397508195E+01  0.35260672884E+02  0.36821022024E+02  0.00000000000E+00 0.  1.
         11    1    4    4    0    0  0.29859333708E+01  0.33476974077E-01 -0.34604603358E+02  0.34733204468E+02  0.51100000000E-03 0. -1.
        -11    1    4    4    0    0 -0.93182250865E+01 -0.76004361525E+00  0.22661692614E+01  0.96199016857E+01  0.51100000000E-03 0.  1.
         12    1    4    4    0    0  0.47299004004E+00  0.95663174607E+01 -0.29222387873E+01  0.10013871822E+02  0.00000000000E+00 0. -1.
</event>
<event>
 8    1  0.1238315E-006  0.9118800E+02  0.7816164E-02  0.1184000E+00
        -11   -1    0    0    0    0  0.00000000000E+00  0.00000000000E+00  0.45593999997E+02  0.45594000000E+02  0.51100000000E-03 0.  1.
         11   -1    0    0    0    0 -0.00000000000E+00 -0.00000000000E+00 -0.45593999997E+02  0.45594000000E+02  0.51100000000E-03 0. -1.
         23    2    1    2    0    0 -0.35527136788E-14  0.11102230246E-14  0.00000000000E+00  0.91188000000E+02  0.91188000000E+02 0.  0.
    9900012    2    3    3    0    0 -0.17713185070E+02  0.18812906977E+01 -0.32225502020E+02  0.54367093433E+02  0.40000021098E+02 0.  0.
        -12    1    3    3    0    0  0.17713185070E+02 -0.18812906977E+01  0.32225502020E+02  0.36820906567E+02  0.00000000000E+00 0.  1.
         11    1    4    4    0    0 -0.13272172522E+02 -0.16941579709E+02 -0.13565074475E+02  0.25439711717E+02  0.51100000000E-03 0. -1.
        -11    1    4    4    0    0  0.83389726541E+00  0.28139309678E+01 -0.90730525341E+01  0.95359254763E+01  0.51100000000E-03 0.  1.
         12    1    4    4    0    0 -0.52749098130E+01  0.16008939439E+02 -0.95873750108E+01  0.19391456239E+02  0.00000000000E+00 0. -1.
</event>
<event>
 8    1  0.1238315E-006  0.9118800E+02  0.7816164E-02  0.1184000E+00
        -11   -1    0    0    0    0  0.00000000000E+00  0.00000000000E+00  0.45593999997E+02  0.45594000000E+02  0.51100000000E-03 0.  1.
         11   -1    0    0    0    0 -0.00000000000E+00 -0.00000000000E+00 -0.45593999997E+02  0.45594000000E+02  0.51100000000E-03 0. -1.
         23    2    1    2    0    0  0.35527136788E-14  0.00000000000E+00  0.00000000000E+00  0.91188000000E+02  0.91188000000E+02 0.  0.
    9900012    2    3    3    0    0  0.31372446819E+02  0.49760361050E+01  0.18622176921E+02  0.54367125105E+02  0.40000093302E+02 0.  0.
         12    1    3    3    0    0 -0.31372446819E+02 -0.49760361050E+01 -0.18622176921E+02  0.36820874895E+02  0.00000000000E+00 0. -1.
         11    1    4    4    0    0  0.17427749433E+02 -0.22196201580E+01  0.17046117640E+02  0.24479037783E+02  0.51100000000E-03 0. -1.
        -11    1    4    4    0    0  0.21103466674E+02  0.52682495516E+01 -0.16273604267E+01  0.21811901825E+02  0.51100000000E-03 0.  1.
         12    1    4    4    0    0 -0.71587692880E+01  0.19274067114E+01  0.32034197075E+01  0.80761854964E+01  0.00000000000E+00 0. -1.
</event>
<event>
 8    1  0.1238315E-006  0.9118800E+02  0.7816164E-02  0.1184000E+00
        -11   -1    0    0    0    0  0.00000000000E+00  0.00000000000E+00  0.45593999997E+02  0.45594000000E+02  0.51100000000E-03 0. -1.
         11   -1    0    0    0    0 -0.00000000000E+00 -0.00000000000E+00 -0.45593999997E+02  0.45594000000E+02  0.51100000000E-03 0.  1.
         23    2    1    2    0    0 -0.35527136788E-14  0.00000000000E+00 -0.35527136788E-14  0.91188000000E+02  0.91188000000E+02 0.  0.
    9900012    2    3    3    0    0 -0.18247695902E+02  0.20695968455E+02  0.24381922438E+02  0.54367086679E+02  0.40000005702E+02 0.  0.
        -12    1    3    3    0    0  0.18247695902E+02 -0.20695968455E+02 -0.24381922438E+02  0.36820913321E+02  0.00000000000E+00 0.  1.
         11    1    4    4    0    0  0.92882848166E+00  0.12216504272E+02  0.23946431467E+02  0.26898648279E+02  0.51100000000E-03 0. -1.
        -11    1    4    4    0    0 -0.37774477183E+01 -0.41618823423E+01 -0.41958932579E+01  0.70139786419E+01  0.51100000000E-03 0.  1.
        -12    1    4    4    0    0 -0.15399076665E+02  0.12641346525E+02  0.46313842285E+01  0.20454459758E+02  0.00000000000E+00 0.  1.
</event>
<event>
 8    1  0.1238315E-006  0.9118800E+02  0.7816164E-02  0.1184000E+00
        -11   -1    0    0    0    0  0.00000000000E+00  0.00000000000E+00  0.45593999997E+02  0.45594000000E+02  0.51100000000E-03 0.  1.
         11   -1    0    0    0    0 -0.00000000000E+00 -0.00000000000E+00 -0.45593999997E+02  0.45594000000E+02  0.51100000000E-03 0. -1.
         23    2    1    2    0    0  0.13322676296E-14 -0.71054273576E-14 -0.35527136788E-14  0.91188000000E+02  0.91188000000E+02 0.  0.
    9900012    2    3    3    0    0 -0.37257230123E+01  0.29918318688E+02  0.21137481277E+02  0.54367083121E+02  0.39999997590E+02 0.  0.
         12    1    3    3    0    0  0.37257230123E+01 -0.29918318688E+02 -0.21137481277E+02  0.36820916879E+02  0.00000000000E+00 0. -1.
         11    1    4    4    0    0 -0.28471617953E+01  0.34410169113E+01 -0.33022526125E+01  0.55544396883E+01  0.51100000000E-03 0. -1.
        -11    1    4    4    0    0  0.38719798231E+01 -0.68685083015E+01  0.14102043651E+01  0.80098258814E+01  0.51100000000E-03 0.  1.
        -12    1    4    4    0    0 -0.47505410402E+01  0.33345810078E+02  0.23029529525E+02  0.40802817551E+02  0.00000000000E+00 0.  1.
</event>
<event>
 8    1  0.1238315E-006  0.9118800E+02  0.7816164E-02  0.1184000E+00
        -11   -1    0    0    0    0  0.00000000000E+00  0.00000000000E+00  0.45593999997E+02  0.45594000000E+02  0.51100000000E-03 0.  1.
         11   -1    0    0    0    0 -0.00000000000E+00 -0.00000000000E+00 -0.45593999997E+02  0.45594000000E+02  0.51100000000E-03 0. -1.
         23    2    1    2    0    0 -0.22204460493E-15  0.35527136788E-14  0.00000000000E+00  0.91188000000E+02  0.91188000000E+02 0.  0.
    9900012    2    3    3    0    0  0.17093160665E+00  0.28145311742E+02 -0.23740045834E+02  0.54367115072E+02  0.40000070429E+02 0.  0.
         12    1    3    3    0    0 -0.17093160665E+00 -0.28145311742E+02  0.23740045834E+02  0.36820884928E+02  0.00000000000E+00 0. -1.
         11    1    4    4    0    0  0.34346464488E+01  0.69629536945E+01  0.94131270533E+01  0.12201904833E+02  0.51100000000E-03 0.  1.
        -11    1    4    4    0    0 -0.90752451194E+01  0.14314332140E+02 -0.19792079298E+02  0.26057370969E+02  0.51100000000E-03 0. -1.
        -12    1    4    4    0    0  0.58115302773E+01  0.68680259082E+01 -0.13361093589E+02  0.16107839270E+02  0.00000000000E+00 0.  1.
</event>
<event>
 8    1  0.1238315E-006  0.9118800E+02  0.7816164E-02  0.1184000E+00
        -11   -1    0    0    0    0  0.00000000000E+00  0.00000000000E+00  0.45593999997E+02  0.45594000000E+02  0.51100000000E-03 0. -1.
         11   -1    0    0    0    0 -0.00000000000E+00 -0.00000000000E+00 -0.45593999997E+02  0.45594000000E+02  0.51100000000E-03 0.  1.
         23    2    1    2    0    0  0.35527136788E-14 -0.35527136788E-14  0.00000000000E+00  0.91188000000E+02  0.91188000000E+02 0.  0.
    9900012    2    3    3    0    0  0.22706239466E+02  0.21928666726E+02 -0.18956248870E+02  0.54367094167E+02  0.40000022773E+02 0.  0.
         12    1    3    3    0    0 -0.22706239466E+02 -0.21928666726E+02  0.18956248870E+02  0.36820905833E+02  0.00000000000E+00 0. -1.
         11    1    4    4    0    0  0.44677741209E+01  0.16761093990E+02 -0.49057001600E+01  0.18026679441E+02  0.51100000000E-03 0. -1.
        -11    1    4    4    0    0  0.21944138283E+02 -0.22688962029E+01 -0.26300331981E+01  0.22217339397E+02  0.51100000000E-03 0.  1.
        -12    1    4    4    0    0 -0.37056729378E+01  0.74364689389E+01 -0.11420515512E+02  0.14123075330E+02  0.00000000000E+00 0.  1.
</event>
<event>
 8    1  0.1238315E-006  0.9118800E+02  0.7816164E-02  0.1184000E+00
        -11   -1    0    0    0    0  0.00000000000E+00  0.00000000000E+00  0.45593999997E+02  0.45594000000E+02  0.51100000000E-03 0.  1.
         11   -1    0    0    0    0 -0.00000000000E+00 -0.00000000000E+00 -0.45593999997E+02  0.45594000000E+02  0.51100000000E-03 0. -1.
         23    2    1    2    0    0  0.35527136788E-14  0.00000000000E+00  0.35527136788E-14  0.91188000000E+02  0.91188000000E+02 0.  0.
    9900012    2    3    3    0    0 -0.12370249232E+02  0.18491055932E+02  0.29340031694E+02  0.54367086441E+02  0.40000005160E+02 0.  0.
         12    1    3    3    0    0  0.12370249232E+02 -0.18491055932E+02 -0.29340031694E+02  0.36820913559E+02  0.00000000000E+00 0. -1.
         11    1    4    4    0    0  0.86377788215E+01  0.42261770192E+01  0.78066982529E+01  0.12386134709E+02  0.51100000000E-03 0. -1.
        -11    1    4    4    0    0 -0.24706968337E+02  0.83602226803E+01  0.23097513070E+02  0.34839958639E+02  0.51100000000E-03 0.  1.
         12    1    4    4    0    0  0.36989402840E+01  0.59046562321E+01 -0.15641796287E+01  0.71409930930E+01  0.00000000000E+00 0. -1.
</event>
<event>
 8    1  0.1238315E-006  0.9118800E+02  0.7816164E-02  0.1184000E+00
        -11   -1    0    0    0    0  0.00000000000E+00  0.00000000000E+00  0.45593999997E+02  0.45594000000E+02  0.51100000000E-03 0. -1.
         11   -1    0    0    0    0 -0.00000000000E+00 -0.00000000000E+00 -0.45593999997E+02  0.45594000000E+02  0.51100000000E-03 0.  1.
         23    2    1    2    0    0 -0.35527136788E-14  0.35527136788E-14  0.10658141036E-13  0.91188000000E+02  0.91188000000E+02 0.  0.
    9900012    2    3    3    0    0 -0.19249811862E+02  0.10264352057E+02  0.29662544527E+02  0.54367099309E+02  0.40000034495E+02 0.  0.
        -12    1    3    3    0    0  0.19249811862E+02 -0.10264352057E+02 -0.29662544527E+02  0.36820900691E+02  0.00000000000E+00 0.  1.
         11    1    4    4    0    0 -0.57865925030E+01 -0.34946862358E+01  0.18167823595E+02  0.19384718185E+02  0.51100000000E-03 0. -1.
        -11    1    4    4    0    0 -0.25141939306E+01 -0.81597495328E+01  0.29021672103E+01  0.90180518039E+01  0.51100000000E-03 0.  1.
        -12    1    4    4    0    0 -0.10949025428E+02  0.21918787825E+02  0.85925537223E+01  0.25964329320E+02  0.00000000000E+00 0.  1.
</event>
<event>
 8    1  0.1238315E-006  0.9118800E+02  0.7816164E-02  0.1184000E+00
        -11   -1    0    0    0    0  0.00000000000E+00  0.00000000000E+00  0.45593999997E+02  0.45594000000E+02  0.51100000000E-03 0.  1.
         11   -1    0    0    0    0 -0.00000000000E+00 -0.00000000000E+00 -0.45593999997E+02  0.45594000000E+02  0.51100000000E-03 0. -1.
         23    2    1    2    0    0  0.88817841970E-15  0.22204460493E-15  0.00000000000E+00  0.91188000000E+02  0.91188000000E+02 0.  0.
    9900012    2    3    3    0    0 -0.55936610687E+01  0.14448514477E+00 -0.36393255684E+02  0.54367095892E+02  0.40000026704E+02 0.  0.
        -12    1    3    3    0    0  0.55936610687E+01 -0.14448514477E+00  0.36393255684E+02  0.36820904108E+02  0.00000000000E+00 0.  1.
         11    1    4    4    0    0 -0.46016954255E+01  0.15297057001E+02 -0.19750853873E+01  0.16095854008E+02  0.51100000000E-03 0. -1.
        -11    1    4    4    0    0  0.28432732235E+01 -0.60426560182E+01 -0.16640097765E+02  0.17930163085E+02  0.51100000000E-03 0.  1.
         12    1    4    4    0    0 -0.38352388666E+01 -0.91099158385E+01 -0.17778072532E+02  0.20341078799E+02  0.00000000000E+00 0. -1.
</event>
<event>
 8    1  0.1238315E-006  0.9118800E+02  0.7816164E-02  0.1184000E+00
        -11   -1    0    0    0    0  0.00000000000E+00  0.00000000000E+00  0.45593999997E+02  0.45594000000E+02  0.51100000000E-03 0. -1.
         11   -1    0    0    0    0 -0.00000000000E+00 -0.00000000000E+00 -0.45593999997E+02  0.45594000000E+02  0.51100000000E-03 0.  1.
         23    2    1    2    0    0  0.35527136788E-14  0.00000000000E+00 -0.35527136788E-14  0.91188000000E+02  0.91188000000E+02 0.  0.
    9900012    2    3    3    0    0  0.27188430132E+02 -0.86887603235E+01  0.23260960499E+02  0.54367114998E+02  0.40000070260E+02 0.  0.
        -12    1    3    3    0    0 -0.27188430132E+02  0.86887603235E+01 -0.23260960499E+02  0.36820885002E+02  0.00000000000E+00 0.  1.
         11    1    4    4    0    0  0.23423373068E+01  0.73530875098E+01 -0.34198103911E+01  0.84409444588E+01  0.51100000000E-03 0. -1.
        -11    1    4    4    0    0  0.69787513082E+01 -0.10881101110E+02  0.23831227123E+02  0.27111413051E+02  0.51100000000E-03 0.  1.
         12    1    4    4    0    0  0.17867341517E+02 -0.51607467236E+01  0.28495437671E+01  0.18814757488E+02  0.00000000000E+00 0. -1.
</event>
<event>
 8    1  0.1238315E-006  0.9118800E+02  0.7816164E-02  0.1184000E+00
        -11   -1    0    0    0    0  0.00000000000E+00  0.00000000000E+00  0.45593999997E+02  0.45594000000E+02  0.51100000000E-03 0. -1.
         11   -1    0    0    0    0 -0.00000000000E+00 -0.00000000000E+00 -0.45593999997E+02  0.45594000000E+02  0.51100000000E-03 0.  1.
         23    2    1    2    0    0  0.17763568394E-14 -0.71054273576E-14 -0.88817841970E-15  0.91188000000E+02  0.91188000000E+02 0.  0.
    9900012    2    3    3    0    0  0.10876744929E+02  0.34452806577E+02 -0.71049608269E+01  0.54367082987E+02  0.39999997286E+02 0.  0.
         12    1    3    3    0    0 -0.10876744929E+02 -0.34452806577E+02  0.71049608269E+01  0.36820917013E+02  0.00000000000E+00 0. -1.
         11    1    4    4    0    0 -0.11085616557E+01  0.12398080546E+02  0.56554052230E+01  0.13672048810E+02  0.51100000000E-03 0. -1.
        -11    1    4    4    0    0  0.16163905972E+02  0.15439012475E+02  0.35236624423E+01  0.22628547451E+02  0.51100000000E-03 0.  1.
        -12    1    4    4    0    0 -0.41785993872E+01  0.66157135565E+01 -0.16284028492E+02  0.18066486726E+02  0.00000000000E+00 0.  1.
</event>
<event>
 8    1  0.1238315E-006  0.9118800E+02  0.7816164E-02  0.1184000E+00
        -11   -1    0    0    0    0  0.00000000000E+00  0.00000000000E+00  0.45593999997E+02  0.45594000000E+02  0.51100000000E-03 0.  1.
         11   -1    0    0    0    0 -0.00000000000E+00 -0.00000000000E+00 -0.45593999997E+02  0.45594000000E+02  0.51100000000E-03 0. -1.
         23    2    1    2    0    0  0.00000000000E+00  0.00000000000E+00  0.00000000000E+00  0.91188000000E+02  0.91188000000E+02 0.  0.
    9900012    2    3    3    0    0  0.89084053669E+01  0.30053192987E+02  0.19319028742E+02  0.54367096067E+02  0.40000027104E+02 0.  0.
         12    1    3    3    0    0 -0.89084053669E+01 -0.30053192987E+02 -0.19319028742E+02  0.36820903933E+02  0.00000000000E+00 0. -1.
         11    1    4    4    0    0  0.18147910556E+01 -0.50418412504E+01  0.16454144146E+02  0.17304695595E+02  0.51100000000E-03 0. -1.
        -11    1    4    4    0    0  0.87289781730E+01  0.30627128992E+02  0.41957860767E+01  0.32121966180E+02  0.51100000000E-03 0.  1.
        -12    1    4    4    0    0 -0.16353638617E+01  0.44679052456E+01 -0.13309014811E+01  0.49404342923E+01  0.00000000000E+00 0.  1.
</event>
<event>
 8    1  0.1238315E-006  0.9118800E+02  0.7816164E-02  0.1184000E+00
        -11   -1    0    0    0    0  0.00000000000E+00  0.00000000000E+00  0.45593999997E+02  0.45594000000E+02  0.51100000000E-03 0.  1.
         11   -1    0    0    0    0 -0.00000000000E+00 -0.00000000000E+00 -0.45593999997E+02  0.45594000000E+02  0.51100000000E-03 0. -1.
         23    2    1    2    0    0 -0.13322676296E-14  0.00000000000E+00  0.35527136788E-14  0.91188000000E+02  0.91188000000E+02 0.  0.
    9900012    2    3    3    0    0  0.35721456243E+01 -0.25948460849E+02  0.25878508679E+02  0.54367081268E+02  0.39999993367E+02 0.  0.
         12    1    3    3    0    0 -0.35721456243E+01  0.25948460849E+02 -0.25878508679E+02  0.36820918732E+02  0.00000000000E+00 0. -1.
         11    1    4    4    0    0 -0.44578383557E+01 -0.13731061437E+02 -0.73533057303E+01  0.16201403532E+02  0.51100000000E-03 0. -1.
        -11    1    4    4    0    0  0.68963495275E+00 -0.11027271173E+02  0.16522111370E+02  0.19876027527E+02  0.51100000000E-03 0.  1.
         12    1    4    4    0    0  0.73403490273E+01 -0.11901282394E+01  0.16709703040E+02  0.18289650209E+02  0.00000000000E+00 0. -1.
</event>
<event>
 8    1  0.1238315E-006  0.9118800E+02  0.7816164E-02  0.1184000E+00
        -11   -1    0    0    0    0  0.00000000000E+00  0.00000000000E+00  0.45593999997E+02  0.45594000000E+02  0.51100000000E-03 0.  1.
         11   -1    0    0    0    0 -0.00000000000E+00 -0.00000000000E+00 -0.45593999997E+02  0.45594000000E+02  0.51100000000E-03 0. -1.
         23    2    1    2    0    0 -0.26645352591E-14  0.71054273576E-14  0.44408920985E-15  0.91188000000E+02  0.91188000000E+02 0.  0.
    9900012    2    3    3    0    0 -0.33142813244E+01  0.36627443572E+02  0.17958136474E+01  0.54367095204E+02  0.40000025137E+02 0.  0.
         12    1    3    3    0    0  0.33142813244E+01 -0.36627443572E+02 -0.17958136474E+01  0.36820904796E+02  0.00000000000E+00 0. -1.
         11    1    4    4    0    0  0.15487946466E+02  0.63567763219E+01 -0.31056395125E+01  0.17027333555E+02  0.51100000000E-03 0. -1.
        -11    1    4    4    0    0 -0.57352637083E+01  0.14141549732E+02  0.63556320701E+01  0.16530902513E+02  0.51100000000E-03 0.  1.
         12    1    4    4    0    0 -0.13066964082E+02  0.16129117518E+02 -0.14541789102E+01  0.20808859136E+02  0.00000000000E+00 0. -1.
</event>
<event>
 8    1  0.1238315E-006  0.9118800E+02  0.7816164E-02  0.1184000E+00
        -11   -1    0    0    0    0  0.00000000000E+00  0.00000000000E+00  0.45593999997E+02  0.45594000000E+02  0.51100000000E-03 0. -1.
         11   -1    0    0    0    0 -0.00000000000E+00 -0.00000000000E+00 -0.45593999997E+02  0.45594000000E+02  0.51100000000E-03 0.  1.
         23    2    1    2    0    0  0.00000000000E+00  0.71054273576E-14  0.00000000000E+00  0.91188000000E+02  0.91188000000E+02 0.  0.
    9900012    2    3    3    0    0 -0.11806592170E+02 -0.33122602779E+02 -0.10921463759E+02  0.54367071112E+02  0.39999970215E+02 0.  0.
         12    1    3    3    0    0  0.11806592170E+02  0.33122602779E+02  0.10921463759E+02  0.36820928888E+02  0.00000000000E+00 0. -1.
         11    1    4    4    0    0 -0.62688862989E+01 -0.30167874670E+02  0.48734848406E+00  0.30816182540E+02  0.51100000000E-03 0. -1.
        -11    1    4    4    0    0  0.23897829439E+01  0.74462960565E-01  0.47394706499E+01  0.53084074405E+01  0.51100000000E-03 0.  1.
        -12    1    4    4    0    0 -0.79274888153E+01 -0.30291910693E+01 -0.16148282893E+02  0.18242481132E+02  0.00000000000E+00 0.  1.
</event>
<event>
 8    1  0.1238315E-006  0.9118800E+02  0.7816164E-02  0.1184000E+00
        -11   -1    0    0    0    0  0.00000000000E+00  0.00000000000E+00  0.45593999997E+02  0.45594000000E+02  0.51100000000E-03 0.  1.
         11   -1    0    0    0    0 -0.00000000000E+00 -0.00000000000E+00 -0.45593999997E+02  0.45594000000E+02  0.51100000000E-03 0. -1.
         23    2    1    2    0    0  0.00000000000E+00  0.00000000000E+00  0.00000000000E+00  0.91188000000E+02  0.91188000000E+02 0.  0.
    9900012    2    3    3    0    0 -0.36302359664E+02 -0.25274668108E+01  0.56152769275E+01  0.54367071975E+02  0.39999972182E+02 0.  0.
         12    1    3    3    0    0  0.36302359664E+02  0.25274668108E+01 -0.56152769275E+01  0.36820928025E+02  0.00000000000E+00 0. -1.
         11    1    4    4    0    0 -0.12656113616E+02 -0.25779183066E+01 -0.95923015552E+01  0.16088353677E+02  0.51100000000E-03 0. -1.
        -11    1    4    4    0    0  0.14692580495E+00  0.70464388319E+01  0.11088165642E+02  0.13138542726E+02  0.51100000000E-03 0.  1.
        -12    1    4    4    0    0 -0.23793171853E+02 -0.69959873361E+01  0.41194128408E+01  0.25140175572E+02  0.00000000000E+00 0.  1.
</event>
<event>
 8    1  0.1238315E-006  0.9118800E+02  0.7816164E-02  0.1184000E+00
        -11   -1    0    0    0    0  0.00000000000E+00  0.00000000000E+00  0.45593999997E+02  0.45594000000E+02  0.51100000000E-03 0. -1.
         11   -1    0    0    0    0 -0.00000000000E+00 -0.00000000000E+00 -0.45593999997E+02  0.45594000000E+02  0.51100000000E-03 0.  1.
         23    2    1    2    0    0 -0.35527136788E-14  0.00000000000E+00  0.17763568394E-14  0.91188000000E+02  0.91188000000E+02 0.  0.
    9900012    2    3    3    0    0  0.13078368480E+02 -0.33883837274E+02 -0.60515198561E+01  0.54367095026E+02  0.40000024731E+02 0.  0.
         12    1    3    3    0    0 -0.13078368480E+02  0.33883837274E+02  0.60515198561E+01  0.36820904974E+02  0.00000000000E+00 0. -1.
         11    1    4    4    0    0  0.16962071295E+02 -0.16810907774E+02 -0.18189229616E+02  0.30019436322E+02  0.51100000000E-03 0. -1.
        -11    1    4    4    0    0  0.20081028706E+01 -0.26926233037E+01 -0.14934893206E+01  0.36760315568E+01  0.51100000000E-03 0.  1.
        -12    1    4    4    0    0 -0.58918056856E+01 -0.14380306196E+02  0.13631199081E+02  0.20671627147E+02  0.00000000000E+00 0.  1.
</event>
<event>
 8    1  0.1238315E-006  0.9118800E+02  0.7816164E-02  0.1184000E+00
        -11   -1    0    0    0    0  0.00000000000E+00  0.00000000000E+00  0.45593999997E+02  0.45594000000E+02  0.51100000000E-03 0.  1.
         11   -1    0    0    0    0 -0.00000000000E+00 -0.00000000000E+00 -0.45593999997E+02  0.45594000000E+02  0.51100000000E-03 0. -1.
         23    2    1    2    0    0  0.35527136788E-14 -0.17763568394E-14 -0.35527136788E-14  0.91188000000E+02  0.91188000000E+02 0.  0.
    9900012    2    3    3    0    0 -0.29329056474E+02  0.14901308523E+02 -0.16538986467E+02  0.54367073576E+02  0.39999975831E+02 0.  0.
         12    1    3    3    0    0  0.29329056474E+02 -0.14901308523E+02  0.16538986467E+02  0.36820926424E+02  0.00000000000E+00 0. -1.
         11    1    4    4    0    0  0.37202756994E+01 -0.59719712883E+01 -0.14087890255E+01  0.71756239539E+01  0.51100000000E-03 0.  1.
        -11    1    4    4    0    0 -0.26606787085E+02  0.95341009827E+01 -0.18426738660E+02  0.33739663579E+02  0.51100000000E-03 0. -1.
         12    1    4    4    0    0 -0.64425450885E+01  0.11339178829E+02  0.32965412188E+01  0.13451786043E+02  0.00000000000E+00 0. -1.
</event>
<event>
 8    1  0.1238315E-006  0.9118800E+02  0.7816164E-02  0.1184000E+00
        -11   -1    0    0    0    0  0.00000000000E+00  0.00000000000E+00  0.45593999997E+02  0.45594000000E+02  0.51100000000E-03 0.  1.
         11   -1    0    0    0    0 -0.00000000000E+00 -0.00000000000E+00 -0.45593999997E+02  0.45594000000E+02  0.51100000000E-03 0. -1.
         23    2    1    2    0    0  0.00000000000E+00  0.00000000000E+00 -0.35527136788E-14  0.91188000000E+02  0.91188000000E+02 0.  0.
    9900012    2    3    3    0    0 -0.16752825504E+02  0.27412263764E+02  0.17991394602E+02  0.54367086829E+02  0.40000006043E+02 0.  0.
         12    1    3    3    0    0  0.16752825504E+02 -0.27412263764E+02 -0.17991394602E+02  0.36820913171E+02  0.00000000000E+00 0. -1.
         11    1    4    4    0    0 -0.11130734962E+02 -0.16368119923E+01 -0.87162662429E+01  0.14231855528E+02  0.51100000000E-03 0. -1.
        -11    1    4    4    0    0 -0.12705015207E+01  0.51754971296E+01  0.74275332436E+01  0.91415641440E+01  0.51100000000E-03 0.  1.
         12    1    4    4    0    0 -0.43515890207E+01  0.23873578627E+02  0.19280127601E+02  0.30993667156E+02  0.00000000000E+00 0. -1.
</event>
<event>
 8    1  0.1238315E-006  0.9118800E+02  0.7816164E-02  0.1184000E+00
        -11   -1    0    0    0    0  0.00000000000E+00  0.00000000000E+00  0.45593999997E+02  0.45594000000E+02  0.51100000000E-03 0.  1.
         11   -1    0    0    0    0 -0.00000000000E+00 -0.00000000000E+00 -0.45593999997E+02  0.45594000000E+02  0.51100000000E-03 0. -1.
         23    2    1    2    0    0  0.71054273576E-14 -0.17763568394E-14  0.00000000000E+00  0.91188000000E+02  0.91188000000E+02 0.  0.
    9900012    2    3    3    0    0  0.30241424671E+02  0.13526503770E+02 -0.16070913536E+02  0.54367023203E+02  0.39999860996E+02 0.  0.
        -12    1    3    3    0    0 -0.30241424671E+02 -0.13526503770E+02  0.16070913536E+02  0.36820976797E+02  0.00000000000E+00 0.  1.
         11    1    4    4    0    0 -0.64881452821E+01  0.59512129225E+01  0.13027471363E+00  0.88051085293E+01  0.51100000000E-03 0. -1.
        -11    1    4    4    0    0  0.17331604789E+02  0.67412038137E+01  0.23055848814E+01  0.18738838687E+02  0.51100000000E-03 0.  1.
         12    1    4    4    0    0  0.19397965164E+02  0.83408703372E+00 -0.18506773131E+02  0.26823075987E+02  0.00000000000E+00 0. -1.
</event>
<event>
 8    1  0.1238315E-006  0.9118800E+02  0.7816164E-02  0.1184000E+00
        -11   -1    0    0    0    0  0.00000000000E+00  0.00000000000E+00  0.45593999997E+02  0.45594000000E+02  0.51100000000E-03 0.  1.
         11   -1    0    0    0    0 -0.00000000000E+00 -0.00000000000E+00 -0.45593999997E+02  0.45594000000E+02  0.51100000000E-03 0. -1.
         23    2    1    2    0    0 -0.66613381478E-15  0.00000000000E+00  0.00000000000E+00  0.91188000000E+02  0.91188000000E+02 0.  0.
    9900012    2    3    3    0    0  0.18882451347E+01  0.35252465158E+02  0.10463121574E+02  0.54367099923E+02  0.40000035895E+02 0.  0.
         12    1    3    3    0    0 -0.18882451347E+01 -0.35252465158E+02 -0.10463121574E+02  0.36820900077E+02  0.00000000000E+00 0. -1.
         11    1    4    4    0    0 -0.88265176343E+01  0.36242700714E+01 -0.17322091508E+01  0.96975922735E+01  0.51100000000E-03 0. -1.
        -11    1    4    4    0    0 -0.60102021112E+01  0.10099080750E+02 -0.46321863070E+01  0.12632145964E+02  0.51100000000E-03 0.  1.
        -12    1    4    4    0    0  0.16724964880E+02  0.21529114336E+02  0.16827517032E+02  0.32037361686E+02  0.00000000000E+00 0.  1.
</event>
<event>
 8    1  0.1238315E-006  0.9118800E+02  0.7816164E-02  0.1184000E+00
        -11   -1    0    0    0    0  0.00000000000E+00  0.00000000000E+00  0.45593999997E+02  0.45594000000E+02  0.51100000000E-03 0. -1.
         11   -1    0    0    0    0 -0.00000000000E+00 -0.00000000000E+00 -0.45593999997E+02  0.45594000000E+02  0.51100000000E-03 0.  1.
         23    2    1    2    0    0  0.35527136788E-14  0.35527136788E-14 -0.17763568394E-14  0.91188000000E+02  0.91188000000E+02 0.  0.
    9900012    2    3    3    0    0  0.27959897468E+02  0.22037967594E+02 -0.93995508835E+01  0.54367089651E+02  0.40000012477E+02 0.  0.
         12    1    3    3    0    0 -0.27959897468E+02 -0.22037967594E+02  0.93995508835E+01  0.36820910349E+02  0.00000000000E+00 0. -1.
         11    1    4    4    0    0  0.20727561466E+02 -0.22626174943E+01 -0.75746998423E+00  0.20864443517E+02  0.51100000000E-03 0. -1.
        -11    1    4    4    0    0  0.12761357452E+02  0.80038427201E+01 -0.27487343702E+01  0.15312389860E+02  0.51100000000E-03 0.  1.
        -12    1    4    4    0    0 -0.55290214498E+01  0.16296742368E+02 -0.58933465291E+01  0.18190256274E+02  0.00000000000E+00 0.  1.
</event>
<event>
 8    1  0.1238315E-006  0.9118800E+02  0.7816164E-02  0.1184000E+00
        -11   -1    0    0    0    0  0.00000000000E+00  0.00000000000E+00  0.45593999997E+02  0.45594000000E+02  0.51100000000E-03 0. -1.
         11   -1    0    0    0    0 -0.00000000000E+00 -0.00000000000E+00 -0.45593999997E+02  0.45594000000E+02  0.51100000000E-03 0.  1.
         23    2    1    2    0    0 -0.35527136788E-14  0.00000000000E+00  0.00000000000E+00  0.91188000000E+02  0.91188000000E+02 0.  0.
    9900012    2    3    3    0    0  0.22610880422E+02  0.26561543942E+02  0.11790330987E+02  0.54367089707E+02  0.40000012604E+02 0.  0.
        -12    1    3    3    0    0 -0.22610880422E+02 -0.26561543942E+02 -0.11790330987E+02  0.36820910293E+02  0.00000000000E+00 0.  1.
         11    1    4    4    0    0 -0.12773743317E+01 -0.58481841189E+01  0.90691127574E+01  0.10866542649E+02  0.51100000000E-03 0. -1.
        -11    1    4    4    0    0 -0.21718133271E+01  0.41658950486E+01  0.18840737538E+01  0.50617377307E+01  0.51100000000E-03 0.  1.
         12    1    4    4    0    0  0.26060068081E+02  0.28243833013E+02  0.83714447561E+00  0.38438809327E+02  0.00000000000E+00 0. -1.
</event>
<event>
 8    1  0.1238315E-006  0.9118800E+02  0.7816164E-02  0.1184000E+00
        -11   -1    0    0    0    0  0.00000000000E+00  0.00000000000E+00  0.45593999997E+02  0.45594000000E+02  0.51100000000E-03 0.  1.
         11   -1    0    0    0    0 -0.00000000000E+00 -0.00000000000E+00 -0.45593999997E+02  0.45594000000E+02  0.51100000000E-03 0. -1.
         23    2    1    2    0    0  0.88817841970E-15  0.00000000000E+00  0.00000000000E+00  0.91188000000E+02  0.91188000000E+02 0.  0.
    9900012    2    3    3    0    0 -0.36730845820E+01 -0.37517021011E+01  0.36444638888E+02  0.54367102093E+02  0.40000040842E+02 0.  0.
         12    1    3    3    0    0  0.36730845820E+01  0.37517021011E+01 -0.36444638888E+02  0.36820897907E+02  0.00000000000E+00 0. -1.
         11    1    4    4    0    0 -0.97677096628E+01  0.72471407963E+01  0.19312915354E+01  0.12314994480E+02  0.51100000000E-03 0. -1.
        -11    1    4    4    0    0  0.17343298129E+01 -0.21829145134E+01  0.31699993887E+02  0.31822360510E+02  0.51100000000E-03 0.  1.
        -12    1    4    4    0    0  0.43602952680E+01 -0.88159283840E+01  0.28133534648E+01  0.10229747104E+02  0.00000000000E+00 0.  1.
</event>
<event>
 8    1  0.1238315E-006  0.9118800E+02  0.7816164E-02  0.1184000E+00
        -11   -1    0    0    0    0  0.00000000000E+00  0.00000000000E+00  0.45593999997E+02  0.45594000000E+02  0.51100000000E-03 0.  1.
         11   -1    0    0    0    0 -0.00000000000E+00 -0.00000000000E+00 -0.45593999997E+02  0.45594000000E+02  0.51100000000E-03 0. -1.
         23    2    1    2    0    0  0.00000000000E+00  0.00000000000E+00  0.00000000000E+00  0.91188000000E+02  0.91188000000E+02 0.  0.
    9900012    2    3    3    0    0 -0.22372200346E+02  0.11237553772E+02 -0.26999704862E+02  0.54367054524E+02  0.39999932397E+02 0.  0.
         12    1    3    3    0    0  0.22372200346E+02 -0.11237553772E+02  0.26999704862E+02  0.36820945476E+02  0.00000000000E+00 0. -1.
         11    1    4    4    0    0 -0.21269216233E+02  0.67330770503E+01  0.12433959922E+01  0.22344124945E+02  0.51100000000E-03 0.  1.
        -11    1    4    4    0    0  0.60806758329E+01 -0.83775184525E+00 -0.11771407992E+02  0.13275635319E+02  0.51100000000E-03 0. -1.
         12    1    4    4    0    0 -0.71836599465E+01  0.53422285674E+01 -0.16471692863E+02  0.18747294260E+02  0.00000000000E+00 0. -1.
</event>
<event>
 8    1  0.1238315E-006  0.9118800E+02  0.7816164E-02  0.1184000E+00
        -11   -1    0    0    0    0  0.00000000000E+00  0.00000000000E+00  0.45593999997E+02  0.45594000000E+02  0.51100000000E-03 0. -1.
         11   -1    0    0    0    0 -0.00000000000E+00 -0.00000000000E+00 -0.45593999997E+02  0.45594000000E+02  0.51100000000E-03 0.  1.
         23    2    1    2    0    0  0.35527136788E-14  0.00000000000E+00  0.00000000000E+00  0.91188000000E+02  0.91188000000E+02 0.  0.
    9900012    2    3    3    0    0  0.18236243137E+02  0.15698868510E+02  0.27870496175E+02  0.54367087555E+02  0.40000007698E+02 0.  0.
        -12    1    3    3    0    0 -0.18236243137E+02 -0.15698868510E+02 -0.27870496175E+02  0.36820912445E+02  0.00000000000E+00 0.  1.
         11    1    4    4    0    0 -0.48941402212E+01  0.16766942529E+02  0.18554933286E+02  0.25482710213E+02  0.51100000000E-03 0. -1.
        -11    1    4    4    0    0 -0.18325215778E+01 -0.13211298216E+01  0.15520559687E+01  0.27408752853E+01  0.51100000000E-03 0.  1.
         12    1    4    4    0    0  0.24962904936E+02  0.25305580257E+00  0.77635069209E+01  0.26143502057E+02  0.00000000000E+00 0. -1.
</event>
<event>
 8    1  0.1238315E-006  0.9118800E+02  0.7816164E-02  0.1184000E+00
        -11   -1    0    0    0    0  0.00000000000E+00  0.00000000000E+00  0.45593999997E+02  0.45594000000E+02  0.51100000000E-03 0. -1.
         11   -1    0    0    0    0 -0.00000000000E+00 -0.00000000000E+00 -0.45593999997E+02  0.45594000000E+02  0.51100000000E-03 0.  1.
         23    2    1    2    0    0  0.00000000000E+00  0.00000000000E+00  0.00000000000E+00  0.91188000000E+02  0.91188000000E+02 0.  0.
    9900012    2    3    3    0    0  0.14100270362E+02 -0.86214096109E+01 -0.32903281891E+02  0.54367186766E+02  0.40000233871E+02 0.  0.
         12    1    3    3    0    0 -0.14100270362E+02  0.86214096109E+01  0.32903281891E+02  0.36820813234E+02  0.00000000000E+00 0. -1.
         11    1    4    4    0    0  0.68518756987E+01 -0.77253896736E+01  0.41167240500E+01  0.11116531085E+02  0.51100000000E-03 0. -1.
        -11    1    4    4    0    0  0.14314868576E+02 -0.30545845303E+01 -0.20876209751E+02  0.25496315083E+02  0.51100000000E-03 0.  1.
         12    1    4    4    0    0 -0.70664739121E+01  0.21585645929E+01 -0.16143796190E+02  0.17754340598E+02  0.00000000000E+00 0. -1.
</event>
<event>
 8    1  0.1238315E-006  0.9118800E+02  0.7816164E-02  0.1184000E+00
        -11   -1    0    0    0    0  0.00000000000E+00  0.00000000000E+00  0.45593999997E+02  0.45594000000E+02  0.51100000000E-03 0.  1.
         11   -1    0    0    0    0 -0.00000000000E+00 -0.00000000000E+00 -0.45593999997E+02  0.45594000000E+02  0.51100000000E-03 0. -1.
         23    2    1    2    0    0  0.00000000000E+00  0.00000000000E+00  0.00000000000E+00  0.91188000000E+02  0.91188000000E+02 0.  0.
    9900012    2    3    3    0    0 -0.31499161113E+02  0.18186888998E+02 -0.57288563291E+01  0.54367083701E+02  0.39999998913E+02 0.  0.
        -12    1    3    3    0    0  0.31499161113E+02 -0.18186888998E+02  0.57288563291E+01  0.36820916299E+02  0.00000000000E+00 0.  1.
         11    1    4    4    0    0  0.32093536606E+01  0.46023460374E+01 -0.87131998398E+01  0.10363464270E+02  0.51100000000E-03 0. -1.
        -11    1    4    4    0    0 -0.21992068188E+02  0.17249463705E+02  0.91422392449E+01  0.29407067177E+02  0.51100000000E-03 0.  1.
        -12    1    4    4    0    0 -0.12716446585E+02 -0.36649207441E+01 -0.61578957341E+01  0.14596552253E+02  0.00000000000E+00 0.  1.
</event>
<event>
 8    1  0.1238315E-006  0.9118800E+02  0.7816164E-02  0.1184000E+00
        -11   -1    0    0    0    0  0.00000000000E+00  0.00000000000E+00  0.45593999997E+02  0.45594000000E+02  0.51100000000E-03 0.  1.
         11   -1    0    0    0    0 -0.00000000000E+00 -0.00000000000E+00 -0.45593999997E+02  0.45594000000E+02  0.51100000000E-03 0. -1.
         23    2    1    2    0    0 -0.88817841970E-15  0.35527136788E-14  0.35527136788E-14  0.91188000000E+02  0.91188000000E+02 0.  0.
    9900012    2    3    3    0    0 -0.51545432235E+01  0.29464327028E+02  0.21472392992E+02  0.54367088226E+02  0.40000009228E+02 0.  0.
         12    1    3    3    0    0  0.51545432235E+01 -0.29464327028E+02 -0.21472392992E+02  0.36820911774E+02  0.00000000000E+00 0. -1.
         11    1    4    4    0    0 -0.92382471548E+01  0.54191095550E+01  0.38894013662E+01  0.11394709391E+02  0.51100000000E-03 0. -1.
        -11    1    4    4    0    0  0.82376245300E+01  0.16771637843E+02  0.25388325391E+02  0.31523219383E+02  0.51100000000E-03 0.  1.
        -12    1    4    4    0    0 -0.41539205987E+01  0.72735796299E+01 -0.78053337645E+01  0.11449159452E+02  0.00000000000E+00 0.  1.
</event>
<event>
 8    1  0.1238315E-006  0.9118800E+02  0.7816164E-02  0.1184000E+00
        -11   -1    0    0    0    0  0.00000000000E+00  0.00000000000E+00  0.45593999997E+02  0.45594000000E+02  0.51100000000E-03 0. -1.
         11   -1    0    0    0    0 -0.00000000000E+00 -0.00000000000E+00 -0.45593999997E+02  0.45594000000E+02  0.51100000000E-03 0.  1.
         23    2    1    2    0    0  0.00000000000E+00 -0.35527136788E-14  0.00000000000E+00  0.91188000000E+02  0.91188000000E+02 0.  0.
    9900012    2    3    3    0    0  0.11842151838E+02 -0.27002586612E+02  0.22054604145E+02  0.54367057483E+02  0.39999939143E+02 0.  0.
        -12    1    3    3    0    0 -0.11842151838E+02  0.27002586612E+02 -0.22054604145E+02  0.36820942517E+02  0.00000000000E+00 0.  1.
         11    1    4    4    0    0  0.62116721279E+01  0.43670840829E+01  0.41166645601E+01  0.86373156347E+01  0.51100000000E-03 0. -1.
        -11    1    4    4    0    0  0.22467694883E+01  0.89825590123E+00  0.12622534116E+02  0.12852361828E+02  0.51100000000E-03 0.  1.
        -12    1    4    4    0    0  0.33837102214E+01 -0.32267926596E+02  0.53154054693E+01  0.32877380020E+02  0.00000000000E+00 0.  1.
</event>
<event>
 8    1  0.1238315E-006  0.9118800E+02  0.7816164E-02  0.1184000E+00
        -11   -1    0    0    0    0  0.00000000000E+00  0.00000000000E+00  0.45593999997E+02  0.45594000000E+02  0.51100000000E-03 0.  1.
         11   -1    0    0    0    0 -0.00000000000E+00 -0.00000000000E+00 -0.45593999997E+02  0.45594000000E+02  0.51100000000E-03 0. -1.
         23    2    1    2    0    0  0.00000000000E+00 -0.17763568394E-14 -0.35527136788E-14  0.91188000000E+02  0.91188000000E+02 0.  0.
    9900012    2    3    3    0    0 -0.29976195885E+02 -0.44287601718E+01 -0.20918739503E+02  0.54367083406E+02  0.39999998240E+02 0.  0.
        -12    1    3    3    0    0  0.29976195885E+02  0.44287601718E+01  0.20918739503E+02  0.36820916594E+02  0.00000000000E+00 0.  1.
         11    1    4    4    0    0 -0.19787564541E+02  0.82323756024E+01 -0.68602960387E+01  0.22502963816E+02  0.51100000000E-03 0. -1.
        -11    1    4    4    0    0 -0.11851731955E+02 -0.20317390126E+01  0.23411756972E+01  0.12250412959E+02  0.51100000000E-03 0.  1.
         12    1    4    4    0    0  0.16631006104E+01 -0.10629396762E+02 -0.16399619162E+02  0.19613706631E+02  0.00000000000E+00 0. -1.
</event>
<event>
 8    1  0.1238315E-006  0.9118800E+02  0.7816164E-02  0.1184000E+00
        -11   -1    0    0    0    0  0.00000000000E+00  0.00000000000E+00  0.45593999997E+02  0.45594000000E+02  0.51100000000E-03 0.  1.
         11   -1    0    0    0    0 -0.00000000000E+00 -0.00000000000E+00 -0.45593999997E+02  0.45594000000E+02  0.51100000000E-03 0. -1.
         23    2    1    2    0    0  0.00000000000E+00  0.88817841970E-15  0.00000000000E+00  0.91188000000E+02  0.91188000000E+02 0.  0.
    9900012    2    3    3    0    0 -0.36303621670E+02  0.54633476874E+01 -0.28246835031E+01  0.54367082695E+02  0.39999996619E+02 0.  0.
         12    1    3    3    0    0  0.36303621670E+02 -0.54633476874E+01  0.28246835031E+01  0.36820917305E+02  0.00000000000E+00 0. -1.
         11    1    4    4    0    0 -0.14421221341E+02 -0.11749161639E+02 -0.77403264934E+01  0.20147632086E+02  0.51100000000E-03 0. -1.
        -11    1    4    4    0    0  0.27238595673E+01  0.25417691519E+01 -0.26709289088E+01  0.45840880076E+01  0.51100000000E-03 0.  1.
        -12    1    4    4    0    0 -0.24606259896E+02  0.14670740174E+02  0.75865718991E+01  0.29635362601E+02  0.00000000000E+00 0.  1.
</event>
<event>
 8    1  0.1238315E-006  0.9118800E+02  0.7816164E-02  0.1184000E+00
        -11   -1    0    0    0    0  0.00000000000E+00  0.00000000000E+00  0.45593999997E+02  0.45594000000E+02  0.51100000000E-03 0.  1.
         11   -1    0    0    0    0 -0.00000000000E+00 -0.00000000000E+00 -0.45593999997E+02  0.45594000000E+02  0.51100000000E-03 0. -1.
         23    2    1    2    0    0  0.00000000000E+00 -0.88817841970E-15 -0.71054273576E-14  0.91188000000E+02  0.91188000000E+02 0.  0.
    9900012    2    3    3    0    0 -0.22372410670E+01  0.46235319771E+01 -0.36460868612E+02  0.54367119573E+02  0.40000080690E+02 0.  0.
        -12    1    3    3    0    0  0.22372410670E+01 -0.46235319771E+01  0.36460868612E+02  0.36820880427E+02  0.00000000000E+00 0.  1.
         11    1    4    4    0    0  0.46687687433E+00  0.79328768436E+01 -0.14674814938E+02  0.16688280401E+02  0.51100000000E-03 0. -1.
        -11    1    4    4    0    0 -0.23987956355E+01 -0.16911652126E+02 -0.11000877312E+02  0.20316926442E+02  0.51100000000E-03 0.  1.
         12    1    4    4    0    0 -0.30532230581E+00  0.13602307259E+02 -0.10785176362E+02  0.17361912730E+02  0.00000000000E+00 0. -1.
</event>
<event>
 8    1  0.1238315E-006  0.9118800E+02  0.7816164E-02  0.1184000E+00
        -11   -1    0    0    0    0  0.00000000000E+00  0.00000000000E+00  0.45593999997E+02  0.45594000000E+02  0.51100000000E-03 0.  1.
         11   -1    0    0    0    0 -0.00000000000E+00 -0.00000000000E+00 -0.45593999997E+02  0.45594000000E+02  0.51100000000E-03 0. -1.
         23    2    1    2    0    0  0.00000000000E+00  0.00000000000E+00  0.17763568394E-14  0.91188000000E+02  0.91188000000E+02 0.  0.
    9900012    2    3    3    0    0  0.37241275395E+01 -0.35035940016E+02 -0.10695484428E+02  0.54367087384E+02  0.40000007309E+02 0.  0.
         12    1    3    3    0    0 -0.37241275395E+01  0.35035940016E+02  0.10695484428E+02  0.36820912616E+02  0.00000000000E+00 0. -1.
         11    1    4    4    0    0  0.74626963428E+00 -0.18456911280E+02 -0.17117157528E+02  0.25183557621E+02  0.51100000000E-03 0. -1.
        -11    1    4    4    0    0 -0.72395087462E+01 -0.12355217291E+01 -0.36242488960E+01  0.81897607506E+01  0.51100000000E-03 0.  1.
        -12    1    4    4    0    0  0.10217366651E+02 -0.15343507007E+02  0.10045921996E+02  0.20993769012E+02  0.00000000000E+00 0.  1.
</event>
<event>
 8    1  0.1238315E-006  0.9118800E+02  0.7816164E-02  0.1184000E+00
        -11   -1    0    0    0    0  0.00000000000E+00  0.00000000000E+00  0.45593999997E+02  0.45594000000E+02  0.51100000000E-03 0. -1.
         11   -1    0    0    0    0 -0.00000000000E+00 -0.00000000000E+00 -0.45593999997E+02  0.45594000000E+02  0.51100000000E-03 0.  1.
         23    2    1    2    0    0  0.00000000000E+00 -0.35527136788E-14  0.00000000000E+00  0.91188000000E+02  0.91188000000E+02 0.  0.
    9900012    2    3    3    0    0  0.27675993467E+02  0.23781754843E+02 -0.49242010758E+01  0.54367078854E+02  0.39999987864E+02 0.  0.
         12    1    3    3    0    0 -0.27675993467E+02 -0.23781754843E+02  0.49242010758E+01  0.36820921146E+02  0.00000000000E+00 0. -1.
         11    1    4    4    0    0  0.12265500245E+02 -0.16171710226E+01 -0.63262987940E+01  0.13895315580E+02  0.51100000000E-03 0. -1.
        -11    1    4    4    0    0  0.19518552069E+02  0.28922628524E+02  0.47747218182E-01  0.34892615203E+02  0.51100000000E-03 0.  1.
         12    1    4    4    0    0 -0.41080588473E+01 -0.35237026589E+01  0.13543505001E+01  0.55791480710E+01  0.00000000000E+00 0. -1.
</event>
<event>
 8    1  0.1238315E-006  0.9118800E+02  0.7816164E-02  0.1184000E+00
        -11   -1    0    0    0    0  0.00000000000E+00  0.00000000000E+00  0.45593999997E+02  0.45594000000E+02  0.51100000000E-03 0.  1.
         11   -1    0    0    0    0 -0.00000000000E+00 -0.00000000000E+00 -0.45593999997E+02  0.45594000000E+02  0.51100000000E-03 0. -1.
         23    2    1    2    0    0  0.00000000000E+00  0.35527136788E-14 -0.35527136788E-14  0.91188000000E+02  0.91188000000E+02 0.  0.
    9900012    2    3    3    0    0  0.17479590220E+02  0.17013537323E+02 -0.27582307142E+02  0.54367079400E+02  0.39999989109E+02 0.  0.
        -12    1    3    3    0    0 -0.17479590220E+02 -0.17013537323E+02  0.27582307142E+02  0.36820920600E+02  0.00000000000E+00 0.  1.
         11    1    4    4    0    0  0.95513512229E+01 -0.16646956291E+01 -0.65373321238E+01  0.11693426926E+02  0.51100000000E-03 0. -1.
        -11    1    4    4    0    0  0.69981751888E+01  0.12997139195E+02  0.53174708285E+01  0.15689983413E+02  0.51100000000E-03 0.  1.
        -12    1    4    4    0    0  0.93006380813E+00  0.56810937574E+01 -0.26362445847E+02  0.26983669061E+02  0.00000000000E+00 0.  1.
</event>
<event>
 8    1  0.1238315E-006  0.9118800E+02  0.7816164E-02  0.1184000E+00
        -11   -1    0    0    0    0  0.00000000000E+00  0.00000000000E+00  0.45593999997E+02  0.45594000000E+02  0.51100000000E-03 0. -1.
         11   -1    0    0    0    0 -0.00000000000E+00 -0.00000000000E+00 -0.45593999997E+02  0.45594000000E+02  0.51100000000E-03 0.  1.
         23    2    1    2    0    0 -0.17763568394E-14 -0.35527136788E-14  0.00000000000E+00  0.91188000000E+02  0.91188000000E+02 0.  0.
    9900012    2    3    3    0    0 -0.10282604662E+02  0.23184464003E+02  0.26693293669E+02  0.54367037810E+02  0.39999894295E+02 0.  0.
        -12    1    3    3    0    0  0.10282604662E+02 -0.23184464003E+02 -0.26693293669E+02  0.36820962190E+02  0.00000000000E+00 0.  1.
         11    1    4    4    0    0 -0.24356686616E+01  0.88692854358E+00  0.86640307049E+01  0.90434812095E+01  0.51100000000E-03 0. -1.
        -11    1    4    4    0    0 -0.14678682077E+02  0.27830523789E+02  0.90107940063E+01  0.32729133364E+02  0.51100000000E-03 0.  1.
        -12    1    4    4    0    0  0.68317460761E+01 -0.55329883301E+01  0.90184689573E+01  0.12594423236E+02  0.00000000000E+00 0.  1.
</event>
<event>
 8    1  0.1238315E-006  0.9118800E+02  0.7816164E-02  0.1184000E+00
        -11   -1    0    0    0    0  0.00000000000E+00  0.00000000000E+00  0.45593999997E+02  0.45594000000E+02  0.51100000000E-03 0. -1.
         11   -1    0    0    0    0 -0.00000000000E+00 -0.00000000000E+00 -0.45593999997E+02  0.45594000000E+02  0.51100000000E-03 0.  1.
         23    2    1    2    0    0 -0.17763568394E-14  0.17763568394E-14  0.00000000000E+00  0.91188000000E+02  0.91188000000E+02 0.  0.
    9900012    2    3    3    0    0  0.36344674721E+01  0.83603697860E+01 -0.35674561618E+02  0.54367089047E+02  0.40000011100E+02 0.  0.
         12    1    3    3    0    0 -0.36344674721E+01 -0.83603697860E+01  0.35674561618E+02  0.36820910953E+02  0.00000000000E+00 0. -1.
         11    1    4    4    0    0 -0.13359736019E+01 -0.65188871079E+01 -0.67130678746E+01  0.94523010501E+01  0.51100000000E-03 0. -1.
        -11    1    4    4    0    0  0.16545779727E+02  0.30954326201E+01 -0.92840518854E+01  0.19223375082E+02  0.51100000000E-03 0.  1.
        -12    1    4    4    0    0 -0.11575338653E+02  0.11783824274E+02 -0.19677441858E+02  0.25691412914E+02  0.00000000000E+00 0.  1.
</event>
<event>
 8    1  0.1238315E-006  0.9118800E+02  0.7816164E-02  0.1184000E+00
        -11   -1    0    0    0    0  0.00000000000E+00  0.00000000000E+00  0.45593999997E+02  0.45594000000E+02  0.51100000000E-03 0.  1.
         11   -1    0    0    0    0 -0.00000000000E+00 -0.00000000000E+00 -0.45593999997E+02  0.45594000000E+02  0.51100000000E-03 0. -1.
         23    2    1    2    0    0 -0.17763568394E-14 -0.35527136788E-14 -0.35527136788E-14  0.91188000000E+02  0.91188000000E+02 0.  0.
    9900012    2    3    3    0    0  0.14884370169E+02  0.26458163255E+02  0.20837518327E+02  0.54367067799E+02  0.39999962661E+02 0.  0.
         12    1    3    3    0    0 -0.14884370169E+02 -0.26458163255E+02 -0.20837518327E+02  0.36820932201E+02  0.00000000000E+00 0. -1.
         11    1    4    4    0    0  0.40568754868E+01 -0.34867670409E+01 -0.52708130991E+01  0.75098105236E+01  0.51100000000E-03 0. -1.
        -11    1    4    4    0    0  0.15606102238E+02  0.14044381509E+02  0.84852826302E+01  0.22644979589E+02  0.51100000000E-03 0.  1.
        -12    1    4    4    0    0 -0.47786075561E+01  0.15900548787E+02  0.17623048796E+02  0.24212277686E+02  0.00000000000E+00 0.  1.
</event>
<event>
 8    1  0.1238315E-006  0.9118800E+02  0.7816164E-02  0.1184000E+00
        -11   -1    0    0    0    0  0.00000000000E+00  0.00000000000E+00  0.45593999997E+02  0.45594000000E+02  0.51100000000E-03 0.  1.
         11   -1    0    0    0    0 -0.00000000000E+00 -0.00000000000E+00 -0.45593999997E+02  0.45594000000E+02  0.51100000000E-03 0. -1.
         23    2    1    2    0    0 -0.44408920985E-15  0.35527136788E-14  0.35527136788E-14  0.91188000000E+02  0.91188000000E+02 0.  0.
    9900012    2    3    3    0    0 -0.35961829011E+01  0.25410114173E+02  0.26404035952E+02  0.54367088166E+02  0.40000009092E+02 0.  0.
         12    1    3    3    0    0  0.35961829011E+01 -0.25410114173E+02 -0.26404035952E+02  0.36820911834E+02  0.00000000000E+00 0. -1.
         11    1    4    4    0    0  0.12876522371E+02  0.14404919810E+01  0.11548117306E+02  0.17356234013E+02  0.51100000000E-03 0. -1.
        -11    1    4    4    0    0 -0.21492881634E+01  0.68614593690E+01 -0.36123538672E+01  0.80466244478E+01  0.51100000000E-03 0.  1.
        -12    1    4    4    0    0 -0.14323417109E+02  0.17108162823E+02  0.18468272513E+02  0.28964229706E+02  0.00000000000E+00 0.  1.
</event>
<event>
 8    1  0.1238315E-006  0.9118800E+02  0.7816164E-02  0.1184000E+00
        -11   -1    0    0    0    0  0.00000000000E+00  0.00000000000E+00  0.45593999997E+02  0.45594000000E+02  0.51100000000E-03 0.  1.
         11   -1    0    0    0    0 -0.00000000000E+00 -0.00000000000E+00 -0.45593999997E+02  0.45594000000E+02  0.51100000000E-03 0. -1.
         23    2    1    2    0    0  0.00000000000E+00  0.44408920985E-14  0.00000000000E+00  0.91188000000E+02  0.91188000000E+02 0.  0.
    9900012    2    3    3    0    0  0.10394617654E+02  0.79549826787E+01 -0.34415818293E+02  0.54367104107E+02  0.40000045432E+02 0.  0.
        -12    1    3    3    0    0 -0.10394617654E+02 -0.79549826787E+01  0.34415818293E+02  0.36820895893E+02  0.00000000000E+00 0.  1.
         11    1    4    4    0    0 -0.41233110400E+01 -0.11914028348E+02 -0.26859027727E+01  0.12890300205E+02  0.51100000000E-03 0. -1.
        -11    1    4    4    0    0  0.51293086697E+00  0.74466971133E+01 -0.55929959346E+01  0.93272718282E+01  0.51100000000E-03 0.  1.
         12    1    4    4    0    0  0.14004997827E+02  0.12422313913E+02 -0.26136919586E+02  0.32149532074E+02  0.00000000000E+00 0. -1.
</event>
<event>
 8    1  0.1238315E-006  0.9118800E+02  0.7816164E-02  0.1184000E+00
        -11   -1    0    0    0    0  0.00000000000E+00  0.00000000000E+00  0.45593999997E+02  0.45594000000E+02  0.51100000000E-03 0. -1.
         11   -1    0    0    0    0 -0.00000000000E+00 -0.00000000000E+00 -0.45593999997E+02  0.45594000000E+02  0.51100000000E-03 0.  1.
         23    2    1    2    0    0  0.00000000000E+00  0.88817841970E-15  0.00000000000E+00  0.91188000000E+02  0.91188000000E+02 0.  0.
    9900012    2    3    3    0    0  0.74592075508E+01 -0.72450573554E+01  0.35322112896E+02  0.54367050897E+02  0.39999924130E+02 0.  0.
        -12    1    3    3    0    0 -0.74592075508E+01  0.72450573554E+01 -0.35322112896E+02  0.36820949103E+02  0.00000000000E+00 0.  1.
         11    1    4    4    0    0  0.78974237344E+01  0.14780806731E+02  0.23433359880E+02  0.28809094133E+02  0.51100000000E-03 0. -1.
        -11    1    4    4    0    0 -0.14848724241E+01 -0.56340572630E+01  0.52467349026E+01  0.78406424965E+01  0.51100000000E-03 0.  1.
         12    1    4    4    0    0  0.10466562405E+01 -0.16391806823E+02  0.66420181137E+01  0.17717314267E+02  0.00000000000E+00 0. -1.
</event>
<event>
 8    1  0.1238315E-006  0.9118800E+02  0.7816164E-02  0.1184000E+00
        -11   -1    0    0    0    0  0.00000000000E+00  0.00000000000E+00  0.45593999997E+02  0.45594000000E+02  0.51100000000E-03 0. -1.
         11   -1    0    0    0    0 -0.00000000000E+00 -0.00000000000E+00 -0.45593999997E+02  0.45594000000E+02  0.51100000000E-03 0.  1.
         23    2    1    2    0    0 -0.35527136788E-14 -0.35527136788E-14 -0.17763568394E-14  0.91188000000E+02  0.91188000000E+02 0.  0.
    9900012    2    3    3    0    0 -0.30627446308E+02 -0.18598951730E+02 -0.84745547316E+01  0.54367088133E+02  0.40000009017E+02 0.  0.
         12    1    3    3    0    0  0.30627446308E+02  0.18598951730E+02  0.84745547316E+01  0.36820911867E+02  0.00000000000E+00 0. -1.
         11    1    4    4    0    0 -0.14215238031E+02 -0.12564568602E+02  0.10912954195E+02  0.21886844129E+02  0.51100000000E-03 0. -1.
        -11    1    4    4    0    0 -0.82929713085E+01 -0.12587720281E+02 -0.14653321855E+02  0.21022462193E+02  0.51100000000E-03 0.  1.
        -12    1    4    4    0    0 -0.81192369684E+01  0.65533371528E+01 -0.47341870714E+01  0.11457781810E+02  0.00000000000E+00 0.  1.
</event>
<event>
 8    1  0.1238315E-006  0.9118800E+02  0.7816164E-02  0.1184000E+00
        -11   -1    0    0    0    0  0.00000000000E+00  0.00000000000E+00  0.45593999997E+02  0.45594000000E+02  0.51100000000E-03 0.  1.
         11   -1    0    0    0    0 -0.00000000000E+00 -0.00000000000E+00 -0.45593999997E+02  0.45594000000E+02  0.51100000000E-03 0. -1.
         23    2    1    2    0    0  0.88817841970E-15  0.00000000000E+00  0.00000000000E+00  0.91188000000E+02  0.91188000000E+02 0.  0.
    9900012    2    3    3    0    0  0.73923203505E+01  0.51413142445E+01  0.35703060434E+02  0.54366972901E+02  0.39999746321E+02 0.  0.
         12    1    3    3    0    0 -0.73923203505E+01 -0.51413142445E+01 -0.35703060434E+02  0.36821027099E+02  0.00000000000E+00 0. -1.
         11    1    4    4    0    0 -0.40847203627E+01  0.14127676031E+01  0.42608212530E+01  0.60692215937E+01  0.51100000000E-03 0. -1.
        -11    1    4    4    0    0 -0.86831657916E+01  0.11750845491E+02  0.94326219357E+01  0.17391207398E+02  0.51100000000E-03 0.  1.
         12    1    4    4    0    0  0.20160206505E+02 -0.80222988494E+01  0.22009617245E+02  0.30906543909E+02  0.00000000000E+00 0. -1.
</event>
<event>
 8    1  0.1238315E-006  0.9118800E+02  0.7816164E-02  0.1184000E+00
        -11   -1    0    0    0    0  0.00000000000E+00  0.00000000000E+00  0.45593999997E+02  0.45594000000E+02  0.51100000000E-03 0. -1.
         11   -1    0    0    0    0 -0.00000000000E+00 -0.00000000000E+00 -0.45593999997E+02  0.45594000000E+02  0.51100000000E-03 0.  1.
         23    2    1    2    0    0 -0.17763568394E-14  0.00000000000E+00  0.00000000000E+00  0.91188000000E+02  0.91188000000E+02 0.  0.
    9900012    2    3    3    0    0  0.86397267885E+01 -0.18520249017E+02 -0.30628989965E+02  0.54367088429E+02  0.40000009691E+02 0.  0.
         12    1    3    3    0    0 -0.86397267885E+01  0.18520249017E+02  0.30628989965E+02  0.36820911571E+02  0.00000000000E+00 0. -1.
         11    1    4    4    0    0  0.48373211784E+01  0.65236136619E+01 -0.23721335561E+01  0.84607463773E+01  0.51100000000E-03 0. -1.
        -11    1    4    4    0    0  0.11881426040E+02 -0.96049221952E+01 -0.23170413781E+02  0.27754114833E+02  0.51100000000E-03 0.  1.
         12    1    4    4    0    0 -0.80790204301E+01 -0.15438940484E+02 -0.50864426285E+01  0.18152227218E+02  0.00000000000E+00 0. -1.
</event>
<event>
 8    1  0.1238315E-006  0.9118800E+02  0.7816164E-02  0.1184000E+00
        -11   -1    0    0    0    0  0.00000000000E+00  0.00000000000E+00  0.45593999997E+02  0.45594000000E+02  0.51100000000E-03 0.  1.
         11   -1    0    0    0    0 -0.00000000000E+00 -0.00000000000E+00 -0.45593999997E+02  0.45594000000E+02  0.51100000000E-03 0. -1.
         23    2    1    2    0    0 -0.88817841970E-15 -0.14210854715E-13  0.88817841970E-15  0.91188000000E+02  0.91188000000E+02 0.  0.
    9900012    2    3    3    0    0 -0.59728767695E+01  0.35826453728E+02  0.60470325312E+01  0.54367127576E+02  0.40000098935E+02 0.  0.
         12    1    3    3    0    0  0.59728767695E+01 -0.35826453728E+02 -0.60470325312E+01  0.36820872424E+02  0.00000000000E+00 0. -1.
         11    1    4    4    0    0 -0.72701091610E+01 -0.66624087997E+00 -0.65536219534E+00  0.73299293306E+01  0.51100000000E-03 0. -1.
        -11    1    4    4    0    0  0.11550408928E+02  0.11765853440E+02  0.11147053129E+02  0.19902362857E+02  0.51100000000E-03 0.  1.
         12    1    4    4    0    0 -0.10253176536E+02  0.24726841168E+02 -0.44446584027E+01  0.27134835388E+02  0.00000000000E+00 0. -1.
</event>
<event>
 8    1  0.1238315E-006  0.9118800E+02  0.7816164E-02  0.1184000E+00
        -11   -1    0    0    0    0  0.00000000000E+00  0.00000000000E+00  0.45593999997E+02  0.45594000000E+02  0.51100000000E-03 0. -1.
         11   -1    0    0    0    0 -0.00000000000E+00 -0.00000000000E+00 -0.45593999997E+02  0.45594000000E+02  0.51100000000E-03 0.  1.
         23    2    1    2    0    0  0.17763568394E-14  0.00000000000E+00  0.00000000000E+00  0.91188000000E+02  0.91188000000E+02 0.  0.
    9900012    2    3    3    0    0  0.71766074322E+01  0.34917818401E+02  0.92208835136E+01  0.54367049050E+02  0.39999919919E+02 0.  0.
        -12    1    3    3    0    0 -0.71766074322E+01 -0.34917818401E+02 -0.92208835136E+01  0.36820950950E+02  0.00000000000E+00 0.  1.
         11    1    4    4    0    0  0.60971257092E+01  0.19846700544E+02  0.85355482909E+01  0.22448208153E+02  0.51100000000E-03 0. -1.
        -11    1    4    4    0    0 -0.43866505985E+01  0.62645051397E+00  0.11987823920E+02  0.12780573787E+02  0.51100000000E-03 0.  1.
        -12    1    4    4    0    0  0.54661323216E+01  0.14444667343E+02 -0.11302488698E+02  0.19138267110E+02  0.00000000000E+00 0.  1.
</event>
<event>
 8    1  0.1238315E-006  0.9118800E+02  0.7816164E-02  0.1184000E+00
        -11   -1    0    0    0    0  0.00000000000E+00  0.00000000000E+00  0.45593999997E+02  0.45594000000E+02  0.51100000000E-03 0. -1.
         11   -1    0    0    0    0 -0.00000000000E+00 -0.00000000000E+00 -0.45593999997E+02  0.45594000000E+02  0.51100000000E-03 0.  1.
         23    2    1    2    0    0  0.00000000000E+00  0.00000000000E+00  0.88817841970E-15  0.91188000000E+02  0.91188000000E+02 0.  0.
    9900012    2    3    3    0    0  0.34268307951E+02 -0.12599964196E+02  0.47649046328E+01  0.54367077365E+02  0.39999984468E+02 0.  0.
         12    1    3    3    0    0 -0.34268307951E+02  0.12599964196E+02 -0.47649046328E+01  0.36820922635E+02  0.00000000000E+00 0. -1.
         11    1    4    4    0    0 -0.19611457587E+00 -0.14325039358E+02  0.26569869547E+01  0.14570682670E+02  0.51100000000E-03 0. -1.
        -11    1    4    4    0    0 -0.19904429675E+01  0.23013544366E+01 -0.10048345594E+01  0.32043389650E+01  0.51100000000E-03 0.  1.
         12    1    4    4    0    0  0.36454865494E+02 -0.57627927459E+00  0.31127522376E+01  0.36592055730E+02  0.00000000000E+00 0. -1.
</event>
<event>
 8    1  0.1238315E-006  0.9118800E+02  0.7816164E-02  0.1184000E+00
        -11   -1    0    0    0    0  0.00000000000E+00  0.00000000000E+00  0.45593999997E+02  0.45594000000E+02  0.51100000000E-03 0. -1.
         11   -1    0    0    0    0 -0.00000000000E+00 -0.00000000000E+00 -0.45593999997E+02  0.45594000000E+02  0.51100000000E-03 0.  1.
         23    2    1    2    0    0 -0.77715611724E-15 -0.22204460493E-15  0.00000000000E+00  0.91188000000E+02  0.91188000000E+02 0.  0.
    9900012    2    3    3    0    0 -0.36983342414E+00  0.71119228221E+00 -0.36812206883E+02  0.54367066459E+02  0.39999959606E+02 0.  0.
         12    1    3    3    0    0  0.36983342414E+00 -0.71119228221E+00  0.36812206883E+02  0.36820933541E+02  0.00000000000E+00 0. -1.
         11    1    4    4    0    0  0.76161378151E+01 -0.30668083086E+00 -0.16250258511E+02  0.17949108899E+02  0.51100000000E-03 0. -1.
        -11    1    4    4    0    0 -0.55886051229E+01 -0.16454596543E+01 -0.27766694260E+02  0.28371276938E+02  0.51100000000E-03 0.  1.
         12    1    4    4    0    0 -0.23973661164E+01  0.26633327674E+01  0.72047458872E+01  0.80466806216E+01  0.00000000000E+00 0. -1.
</event>
<event>
 8    1  0.1238315E-006  0.9118800E+02  0.7816164E-02  0.1184000E+00
        -11   -1    0    0    0    0  0.00000000000E+00  0.00000000000E+00  0.45593999997E+02  0.45594000000E+02  0.51100000000E-03 0. -1.
         11   -1    0    0    0    0 -0.00000000000E+00 -0.00000000000E+00 -0.45593999997E+02  0.45594000000E+02  0.51100000000E-03 0.  1.
         23    2    1    2    0    0 -0.35527136788E-14  0.00000000000E+00  0.35527136788E-14  0.91188000000E+02  0.91188000000E+02 0.  0.
    9900012    2    3    3    0    0  0.16913527902E+02 -0.25151858379E+02 -0.20906852833E+02  0.54367083371E+02  0.39999998161E+02 0.  0.
        -12    1    3    3    0    0 -0.16913527902E+02  0.25151858379E+02  0.20906852833E+02  0.36820916629E+02  0.00000000000E+00 0.  1.
         11    1    4    4    0    0  0.13186363307E+02  0.46436315783E+00  0.22585336261E+00  0.13196469999E+02  0.51100000000E-03 0. -1.
        -11    1    4    4    0    0 -0.15263031008E+01  0.15291462256E+01 -0.11789137778E+02  0.11985477009E+02  0.51100000000E-03 0.  1.
         12    1    4    4    0    0  0.52534676949E+01 -0.27145367762E+02 -0.93435684183E+01  0.29185136364E+02  0.00000000000E+00 0. -1.
</event>
<event>
 8    1  0.1238315E-006  0.9118800E+02  0.7816164E-02  0.1184000E+00
        -11   -1    0    0    0    0  0.00000000000E+00  0.00000000000E+00  0.45593999997E+02  0.45594000000E+02  0.51100000000E-03 0. -1.
         11   -1    0    0    0    0 -0.00000000000E+00 -0.00000000000E+00 -0.45593999997E+02  0.45594000000E+02  0.51100000000E-03 0.  1.
         23    2    1    2    0    0 -0.35527136788E-14  0.00000000000E+00  0.00000000000E+00  0.91188000000E+02  0.91188000000E+02 0.  0.
    9900012    2    3    3    0    0 -0.26961889250E+02 -0.10946761200E+02  0.22561115397E+02  0.54367095873E+02  0.40000026662E+02 0.  0.
        -12    1    3    3    0    0  0.26961889250E+02  0.10946761200E+02 -0.22561115397E+02  0.36820904127E+02  0.00000000000E+00 0.  1.
         11    1    4    4    0    0 -0.56127888207E+01  0.66212018820E+01  0.31304771118E+01  0.92273289697E+01  0.51100000000E-03 0. -1.
        -11    1    4    4    0    0  0.38632804421E+01 -0.98537493919E+01 -0.24652003092E+01  0.10867314557E+02  0.51100000000E-03 0.  1.
        -12    1    4    4    0    0 -0.25212380872E+02 -0.77142136903E+01  0.21895838595E+02  0.34272452347E+02  0.00000000000E+00 0.  1.
</event>
<event>
 8    1  0.1238315E-006  0.9118800E+02  0.7816164E-02  0.1184000E+00
        -11   -1    0    0    0    0  0.00000000000E+00  0.00000000000E+00  0.45593999997E+02  0.45594000000E+02  0.51100000000E-03 0. -1.
         11   -1    0    0    0    0 -0.00000000000E+00 -0.00000000000E+00 -0.45593999997E+02  0.45594000000E+02  0.51100000000E-03 0.  1.
         23    2    1    2    0    0 -0.71054273576E-14  0.00000000000E+00  0.00000000000E+00  0.91188000000E+02  0.91188000000E+02 0.  0.
    9900012    2    3    3    0    0  0.25973745156E+02 -0.22615187777E+02 -0.13026820595E+02  0.54367079174E+02  0.39999988594E+02 0.  0.
         12    1    3    3    0    0 -0.25973745156E+02  0.22615187777E+02  0.13026820595E+02  0.36820920826E+02  0.00000000000E+00 0. -1.
         11    1    4    4    0    0 -0.53549496169E+01  0.40905124713E+01 -0.28125951978E+01  0.73019497181E+01  0.51100000000E-03 0. -1.
        -11    1    4    4    0    0  0.33679903930E+02 -0.24084551821E+02 -0.12010705194E+02  0.43112163071E+02  0.51100000000E-03 0.  1.
         12    1    4    4    0    0 -0.23512091572E+01 -0.26211484277E+01  0.17964797965E+01  0.39529663849E+01  0.00000000000E+00 0. -1.
</event>
<event>
 8    1  0.1238315E-006  0.9118800E+02  0.7816164E-02  0.1184000E+00
        -11   -1    0    0    0    0  0.00000000000E+00  0.00000000000E+00  0.45593999997E+02  0.45594000000E+02  0.51100000000E-03 0. -1.
         11   -1    0    0    0    0 -0.00000000000E+00 -0.00000000000E+00 -0.45593999997E+02  0.45594000000E+02  0.51100000000E-03 0.  1.
         23    2    1    2    0    0  0.11102230246E-15  0.00000000000E+00  0.71054273576E-14  0.91188000000E+02  0.91188000000E+02 0.  0.
    9900012    2    3    3    0    0  0.90110229762E+00 -0.16414678621E+02 -0.32947322366E+02  0.54367085961E+02  0.40000004065E+02 0.  0.
         12    1    3    3    0    0 -0.90110229762E+00  0.16414678621E+02  0.32947322366E+02  0.36820914039E+02  0.00000000000E+00 0. -1.
         11    1    4    4    0    0 -0.41307031420E+00 -0.13896401070E+02 -0.31731451224E+02  0.34643406109E+02  0.51100000000E-03 0. -1.
        -11    1    4    4    0    0 -0.22426751766E+01  0.20864481078E+01 -0.92840438226E+01  0.97763146234E+01  0.51100000000E-03 0.  1.
         12    1    4    4    0    0  0.35568477885E+01 -0.46047256582E+01  0.80681726805E+01  0.99473652280E+01  0.00000000000E+00 0. -1.
</event>
<event>
 8    1  0.1238315E-006  0.9118800E+02  0.7816164E-02  0.1184000E+00
        -11   -1    0    0    0    0  0.00000000000E+00  0.00000000000E+00  0.45593999997E+02  0.45594000000E+02  0.51100000000E-03 0. -1.
         11   -1    0    0    0    0 -0.00000000000E+00 -0.00000000000E+00 -0.45593999997E+02  0.45594000000E+02  0.51100000000E-03 0.  1.
         23    2    1    2    0    0  0.00000000000E+00  0.00000000000E+00  0.00000000000E+00  0.91188000000E+02  0.91188000000E+02 0.  0.
    9900012    2    3    3    0    0  0.27502619566E+02  0.14392826933E+02  0.19804848646E+02  0.54367087735E+02  0.40000008110E+02 0.  0.
        -12    1    3    3    0    0 -0.27502619566E+02 -0.14392826933E+02 -0.19804848646E+02  0.36820912265E+02  0.00000000000E+00 0.  1.
         11    1    4    4    0    0  0.25945833228E+02  0.41528415194E+01  0.83852508687E+01  0.27581602328E+02  0.51100000000E-03 0. -1.
        -11    1    4    4    0    0 -0.54788704063E+01  0.11414564570E+02 -0.74557515140E+00  0.12683303505E+02  0.51100000000E-03 0.  1.
        -12    1    4    4    0    0  0.70356567438E+01 -0.11745791558E+01  0.12165172928E+02  0.14102181902E+02  0.00000000000E+00 0.  1.
</event>
<event>
 8    1  0.1238315E-006  0.9118800E+02  0.7816164E-02  0.1184000E+00
        -11   -1    0    0    0    0  0.00000000000E+00  0.00000000000E+00  0.45593999997E+02  0.45594000000E+02  0.51100000000E-03 0.  1.
         11   -1    0    0    0    0 -0.00000000000E+00 -0.00000000000E+00 -0.45593999997E+02  0.45594000000E+02  0.51100000000E-03 0. -1.
         23    2    1    2    0    0  0.71054273576E-14 -0.88817841970E-15  0.17763568394E-14  0.91188000000E+02  0.91188000000E+02 0.  0.
    9900012    2    3    3    0    0 -0.33051992053E+02 -0.46237042867E+01  0.15555268416E+02  0.54367092956E+02  0.40000020012E+02 0.  0.
         12    1    3    3    0    0  0.33051992053E+02  0.46237042867E+01 -0.15555268416E+02  0.36820907044E+02  0.00000000000E+00 0. -1.
         11    1    4    4    0    0 -0.12895289254E+02  0.15199684273E+02  0.52084970477E+01  0.20602119520E+02  0.51100000000E-03 0. -1.
        -11    1    4    4    0    0 -0.10495116667E+02 -0.19013696030E+02  0.10376483653E+02  0.24069472861E+02  0.51100000000E-03 0.  1.
        -12    1    4    4    0    0 -0.96615861321E+01 -0.80969253018E+00 -0.29712284362E-01  0.96955005750E+01  0.00000000000E+00 0.  1.
</event>
<event>
 8    1  0.1238315E-006  0.9118800E+02  0.7816164E-02  0.1184000E+00
        -11   -1    0    0    0    0  0.00000000000E+00  0.00000000000E+00  0.45593999997E+02  0.45594000000E+02  0.51100000000E-03 0. -1.
         11   -1    0    0    0    0 -0.00000000000E+00 -0.00000000000E+00 -0.45593999997E+02  0.45594000000E+02  0.51100000000E-03 0.  1.
         23    2    1    2    0    0  0.00000000000E+00  0.00000000000E+00  0.00000000000E+00  0.91188000000E+02  0.91188000000E+02 0.  0.
    9900012    2    3    3    0    0  0.52693573636E+01 -0.32035052620E+02  0.17371507684E+02  0.54367081996E+02  0.39999995027E+02 0.  0.
         12    1    3    3    0    0 -0.52693573636E+01  0.32035052620E+02 -0.17371507684E+02  0.36820918004E+02  0.00000000000E+00 0. -1.
         11    1    4    4    0    0  0.26197355071E+01  0.60749648558E+01 -0.12121296433E+01  0.67258806605E+01  0.51100000000E-03 0. -1.
        -11    1    4    4    0    0 -0.24542707580E+01  0.18271266906E+00 -0.26023950721E+01  0.35817997216E+01  0.51100000000E-03 0.  1.
        -12    1    4    4    0    0  0.51038926145E+01 -0.38292730145E+02  0.21186032400E+02  0.44059401614E+02  0.00000000000E+00 0.  1.
</event>
<event>
 8    1  0.1238315E-006  0.9118800E+02  0.7816164E-02  0.1184000E+00
        -11   -1    0    0    0    0  0.00000000000E+00  0.00000000000E+00  0.45593999997E+02  0.45594000000E+02  0.51100000000E-03 0. -1.
         11   -1    0    0    0    0 -0.00000000000E+00 -0.00000000000E+00 -0.45593999997E+02  0.45594000000E+02  0.51100000000E-03 0.  1.
         23    2    1    2    0    0  0.88817841970E-15  0.00000000000E+00 -0.35527136788E-14  0.91188000000E+02  0.91188000000E+02 0.  0.
    9900012    2    3    3    0    0  0.59306678319E+01 -0.25563351526E+02  0.25828700098E+02  0.54367088673E+02  0.40000010249E+02 0.  0.
        -12    1    3    3    0    0 -0.59306678319E+01  0.25563351526E+02 -0.25828700098E+02  0.36820911327E+02  0.00000000000E+00 0.  1.
         11    1    4    4    0    0 -0.38185595833E+01 -0.10781598560E+01  0.64536269902E+01  0.75758252063E+01  0.51100000000E-03 0. -1.
        -11    1    4    4    0    0 -0.10245145527E+02 -0.98010034354E+01  0.16597676172E+02  0.21829006614E+02  0.51100000000E-03 0.  1.
        -12    1    4    4    0    0  0.19994372942E+02 -0.14684188235E+02  0.27773969361E+01  0.24962256853E+02  0.00000000000E+00 0.  1.
</event>
<event>
 8    1  0.1238315E-006  0.9118800E+02  0.7816164E-02  0.1184000E+00
        -11   -1    0    0    0    0  0.00000000000E+00  0.00000000000E+00  0.45593999997E+02  0.45594000000E+02  0.51100000000E-03 0. -1.
         11   -1    0    0    0    0 -0.00000000000E+00 -0.00000000000E+00 -0.45593999997E+02  0.45594000000E+02  0.51100000000E-03 0.  1.
         23    2    1    2    0    0  0.00000000000E+00  0.00000000000E+00  0.00000000000E+00  0.91188000000E+02  0.91188000000E+02 0.  0.
    9900012    2    3    3    0    0 -0.11499658609E+02 -0.30862528356E+02 -0.16463230408E+02  0.54367139607E+02  0.40000126361E+02 0.  0.
        -12    1    3    3    0    0  0.11499658609E+02  0.30862528356E+02  0.16463230408E+02  0.36820860393E+02  0.00000000000E+00 0.  1.
         11    1    4    4    0    0  0.46352290533E+01 -0.20017069463E+01  0.46807217739E+01  0.68848627918E+01  0.51100000000E-03 0. -1.
        -11    1    4    4    0    0 -0.17440363525E+02 -0.96344184256E+01 -0.15262312025E+01  0.19982934725E+02  0.51100000000E-03 0.  1.
        -12    1    4    4    0    0  0.13054758634E+01 -0.19226402984E+02 -0.19617720979E+02  0.27499342090E+02  0.00000000000E+00 0.  1.
</event>
<event>
 8    1  0.1238315E-006  0.9118800E+02  0.7816164E-02  0.1184000E+00
        -11   -1    0    0    0    0  0.00000000000E+00  0.00000000000E+00  0.45593999997E+02  0.45594000000E+02  0.51100000000E-03 0. -1.
         11   -1    0    0    0    0 -0.00000000000E+00 -0.00000000000E+00 -0.45593999997E+02  0.45594000000E+02  0.51100000000E-03 0.  1.
         23    2    1    2    0    0  0.17763568394E-14 -0.71054273576E-14  0.17763568394E-14  0.91188000000E+02  0.91188000000E+02 0.  0.
    9900012    2    3    3    0    0  0.44256335030E+01 -0.35008231535E+02  0.10517385329E+02  0.54367110531E+02  0.40000060078E+02 0.  0.
        -12    1    3    3    0    0 -0.44256335030E+01  0.35008231535E+02 -0.10517385329E+02  0.36820889469E+02  0.00000000000E+00 0.  1.
         11    1    4    4    0    0  0.33193416967E+01  0.92265384086E+00 -0.42180141947E+01  0.54461879712E+01  0.51100000000E-03 0. -1.
        -11    1    4    4    0    0 -0.11763018415E+02 -0.76160986472E+01 -0.10302129893E+01  0.14051152974E+02  0.51100000000E-03 0.  1.
         12    1    4    4    0    0  0.12869310222E+02 -0.28314786729E+02  0.15765612513E+02  0.34869769586E+02  0.00000000000E+00 0. -1.
</event>
<event>
 8    1  0.1238315E-006  0.9118800E+02  0.7816164E-02  0.1184000E+00
        -11   -1    0    0    0    0  0.00000000000E+00  0.00000000000E+00  0.45593999997E+02  0.45594000000E+02  0.51100000000E-03 0.  1.
         11   -1    0    0    0    0 -0.00000000000E+00 -0.00000000000E+00 -0.45593999997E+02  0.45594000000E+02  0.51100000000E-03 0. -1.
         23    2    1    2    0    0  0.00000000000E+00  0.00000000000E+00 -0.44408920985E-15  0.91188000000E+02  0.91188000000E+02 0.  0.
    9900012    2    3    3    0    0  0.54513041761E+01  0.36369699481E+02 -0.18166534205E+01  0.54367190840E+02  0.40000243158E+02 0.  0.
         12    1    3    3    0    0 -0.54513041761E+01 -0.36369699481E+02  0.18166534205E+01  0.36820809160E+02  0.00000000000E+00 0. -1.
         11    1    4    4    0    0  0.10710005819E+02  0.52039167348E+01 -0.12913473675E+02  0.17565385752E+02  0.51100000000E-03 0. -1.
        -11    1    4    4    0    0  0.44157569017E+01  0.18864178068E+02  0.50250735367E+01  0.20015181426E+02  0.51100000000E-03 0.  1.
        -12    1    4    4    0    0 -0.96744585442E+01  0.12301604678E+02  0.60717467176E+01  0.16786623662E+02  0.00000000000E+00 0.  1.
</event>
<event>
 8    1  0.1238315E-006  0.9118800E+02  0.7816164E-02  0.1184000E+00
        -11   -1    0    0    0    0  0.00000000000E+00  0.00000000000E+00  0.45593999997E+02  0.45594000000E+02  0.51100000000E-03 0.  1.
         11   -1    0    0    0    0 -0.00000000000E+00 -0.00000000000E+00 -0.45593999997E+02  0.45594000000E+02  0.51100000000E-03 0. -1.
         23    2    1    2    0    0  0.35527136788E-14  0.35527136788E-14  0.35527136788E-14  0.91188000000E+02  0.91188000000E+02 0.  0.
    9900012    2    3    3    0    0 -0.30658197896E+02  0.19928488325E+02 -0.43255086364E+01  0.54367085154E+02  0.40000002225E+02 0.  0.
         12    1    3    3    0    0  0.30658197896E+02 -0.19928488325E+02  0.43255086364E+01  0.36820914846E+02  0.00000000000E+00 0. -1.
         11    1    4    4    0    0 -0.25420568784E+01  0.25936793200E+00  0.11981224557E+02  0.12250676187E+02  0.51100000000E-03 0. -1.
        -11    1    4    4    0    0 -0.16475193970E+02  0.17557344926E+02 -0.29236687151E+01  0.24253663976E+02  0.51100000000E-03 0.  1.
         12    1    4    4    0    0 -0.11640947048E+02  0.21117754661E+01 -0.13383064478E+02  0.17862744991E+02  0.00000000000E+00 0. -1.
</event>
<event>
 8    1  0.1238315E-006  0.9118800E+02  0.7816164E-02  0.1184000E+00
        -11   -1    0    0    0    0  0.00000000000E+00  0.00000000000E+00  0.45593999997E+02  0.45594000000E+02  0.51100000000E-03 0.  1.
         11   -1    0    0    0    0 -0.00000000000E+00 -0.00000000000E+00 -0.45593999997E+02  0.45594000000E+02  0.51100000000E-03 0. -1.
         23    2    1    2    0    0  0.00000000000E+00  0.35527136788E-14  0.00000000000E+00  0.91188000000E+02  0.91188000000E+02 0.  0.
    9900012    2    3    3    0    0 -0.53943855965E+01  0.19806957602E+02 -0.30567338586E+02  0.54367120683E+02  0.40000083221E+02 0.  0.
        -12    1    3    3    0    0  0.53943855965E+01 -0.19806957602E+02  0.30567338586E+02  0.36820879317E+02  0.00000000000E+00 0.  1.
         11    1    4    4    0    0  0.87727747355E+01  0.67629700031E+01 -0.33916489671E+01  0.11584585569E+02  0.51100000000E-03 0. -1.
        -11    1    4    4    0    0 -0.85082689561E+01  0.12001424110E+02  0.29633247670E+00  0.14714368301E+02  0.51100000000E-03 0.  1.
         12    1    4    4    0    0 -0.56588913759E+01  0.10425634893E+01 -0.27472022096E+02  0.28068166814E+02  0.00000000000E+00 0. -1.
</event>
<event>
 8    1  0.1238315E-006  0.9118800E+02  0.7816164E-02  0.1184000E+00
        -11   -1    0    0    0    0  0.00000000000E+00  0.00000000000E+00  0.45593999997E+02  0.45594000000E+02  0.51100000000E-03 0. -1.
         11   -1    0    0    0    0 -0.00000000000E+00 -0.00000000000E+00 -0.45593999997E+02  0.45594000000E+02  0.51100000000E-03 0.  1.
         23    2    1    2    0    0 -0.53290705182E-14 -0.88817841970E-15  0.00000000000E+00  0.91188000000E+02  0.91188000000E+02 0.  0.
    9900012    2    3    3    0    0 -0.13208460497E+02 -0.14347651483E+01 -0.34340321457E+02  0.54367086683E+02  0.40000005711E+02 0.  0.
         12    1    3    3    0    0  0.13208460497E+02  0.14347651483E+01  0.34340321457E+02  0.36820913317E+02  0.00000000000E+00 0. -1.
         11    1    4    4    0    0 -0.16082014757E+02 -0.12654929172E+02 -0.12362128217E+02  0.23908171100E+02  0.51100000000E-03 0. -1.
        -11    1    4    4    0    0  0.53572495791E+01 -0.26165209999E+01 -0.25652921139E+01  0.64905338060E+01  0.51100000000E-03 0.  1.
        -12    1    4    4    0    0 -0.24836953186E+01  0.13836685024E+02 -0.19412901126E+02  0.23968381777E+02  0.00000000000E+00 0.  1.
</event>
<event>
 8    1  0.1238315E-006  0.9118800E+02  0.7816164E-02  0.1184000E+00
        -11   -1    0    0    0    0  0.00000000000E+00  0.00000000000E+00  0.45593999997E+02  0.45594000000E+02  0.51100000000E-03 0.  1.
         11   -1    0    0    0    0 -0.00000000000E+00 -0.00000000000E+00 -0.45593999997E+02  0.45594000000E+02  0.51100000000E-03 0. -1.
         23    2    1    2    0    0  0.00000000000E+00  0.00000000000E+00  0.00000000000E+00  0.91188000000E+02  0.91188000000E+02 0.  0.
    9900012    2    3    3    0    0 -0.97128294559E+01 -0.12366661622E+02 -0.33294250394E+02  0.54367075446E+02  0.39999980094E+02 0.  0.
        -12    1    3    3    0    0  0.97128294559E+01  0.12366661622E+02  0.33294250394E+02  0.36820924554E+02  0.00000000000E+00 0.  1.
         11    1    4    4    0    0  0.85205306082E+01  0.55973158945E+00 -0.14022487464E+02  0.16417761609E+02  0.51100000000E-03 0. -1.
        -11    1    4    4    0    0 -0.38917179437E+01 -0.10033364938E+02 -0.20617369767E+02  0.23257038008E+02  0.51100000000E-03 0.  1.
        -12    1    4    4    0    0 -0.14341642120E+02 -0.28930282731E+01  0.13456068365E+01  0.14692275830E+02  0.00000000000E+00 0.  1.
</event>
<event>
 8    1  0.1238315E-006  0.9118800E+02  0.7816164E-02  0.1184000E+00
        -11   -1    0    0    0    0  0.00000000000E+00  0.00000000000E+00  0.45593999997E+02  0.45594000000E+02  0.51100000000E-03 0. -1.
         11   -1    0    0    0    0 -0.00000000000E+00 -0.00000000000E+00 -0.45593999997E+02  0.45594000000E+02  0.51100000000E-03 0.  1.
         23    2    1    2    0    0  0.00000000000E+00  0.00000000000E+00  0.00000000000E+00  0.91188000000E+02  0.91188000000E+02 0.  0.
    9900012    2    3    3    0    0 -0.95948085933E+01  0.29290190895E+02 -0.20144614308E+02  0.54367066821E+02  0.39999960431E+02 0.  0.
         12    1    3    3    0    0  0.95948085933E+01 -0.29290190895E+02  0.20144614308E+02  0.36820933179E+02  0.00000000000E+00 0. -1.
         11    1    4    4    0    0  0.11607691234E+02  0.10217428664E+02 -0.15768564894E+02  0.22085786908E+02  0.51100000000E-03 0. -1.
        -11    1    4    4    0    0 -0.71629492563E-01  0.75154486572E+01  0.10608460302E+01  0.75902894453E+01  0.51100000000E-03 0.  1.
         12    1    4    4    0    0 -0.21130870335E+02  0.11557313573E+02 -0.54368954445E+01  0.24690990467E+02  0.00000000000E+00 0. -1.
</event>
<event>
 8    1  0.1238315E-006  0.9118800E+02  0.7816164E-02  0.1184000E+00
        -11   -1    0    0    0    0  0.00000000000E+00  0.00000000000E+00  0.45593999997E+02  0.45594000000E+02  0.51100000000E-03 0. -1.
         11   -1    0    0    0    0 -0.00000000000E+00 -0.00000000000E+00 -0.45593999997E+02  0.45594000000E+02  0.51100000000E-03 0.  1.
         23    2    1    2    0    0  0.00000000000E+00  0.00000000000E+00  0.35527136788E-14  0.91188000000E+02  0.91188000000E+02 0.  0.
    9900012    2    3    3    0    0 -0.37504990646E+01  0.19453646729E+02 -0.31036533693E+02  0.54367122254E+02  0.40000086802E+02 0.  0.
         12    1    3    3    0    0  0.37504990646E+01 -0.19453646729E+02  0.31036533693E+02  0.36820877746E+02  0.00000000000E+00 0. -1.
         11    1    4    4    0    0 -0.10635615206E+01 -0.78371145302E+01 -0.20461587250E+02  0.21936911367E+02  0.51100000000E-03 0. -1.
        -11    1    4    4    0    0 -0.87659359883E+00  0.17642934764E+02  0.44753538140E+00  0.17670366482E+02  0.51100000000E-03 0.  1.
        -12    1    4    4    0    0 -0.18103439452E+01  0.96478264955E+01 -0.11022481825E+02  0.14759844405E+02  0.00000000000E+00 0.  1.
</event>
<event>
 8    1  0.1238315E-006  0.9118800E+02  0.7816164E-02  0.1184000E+00
        -11   -1    0    0    0    0  0.00000000000E+00  0.00000000000E+00  0.45593999997E+02  0.45594000000E+02  0.51100000000E-03 0.  1.
         11   -1    0    0    0    0 -0.00000000000E+00 -0.00000000000E+00 -0.45593999997E+02  0.45594000000E+02  0.51100000000E-03 0. -1.
         23    2    1    2    0    0  0.00000000000E+00  0.00000000000E+00 -0.44408920985E-15  0.91188000000E+02  0.91188000000E+02 0.  0.
    9900012    2    3    3    0    0  0.35488180489E+02 -0.96071619418E+01 -0.20178813088E+01  0.54367077144E+02  0.39999983965E+02 0.  0.
         12    1    3    3    0    0 -0.35488180489E+02  0.96071619418E+01  0.20178813088E+01  0.36820922856E+02  0.00000000000E+00 0. -1.
         11    1    4    4    0    0  0.17003742746E+02 -0.62911384723E+01 -0.80941642368E+00  0.18148301460E+02  0.51100000000E-03 0. -1.
        -11    1    4    4    0    0  0.10278985989E+02  0.91774831868E+01  0.10424129752E+02  0.17278490442E+02  0.51100000000E-03 0.  1.
         12    1    4    4    0    0  0.82054517541E+01 -0.12493506656E+02 -0.11632594638E+02  0.18940285242E+02  0.00000000000E+00 0. -1.
</event>
<event>
 8    1  0.1238315E-006  0.9118800E+02  0.7816164E-02  0.1184000E+00
        -11   -1    0    0    0    0  0.00000000000E+00  0.00000000000E+00  0.45593999997E+02  0.45594000000E+02  0.51100000000E-03 0.  1.
         11   -1    0    0    0    0 -0.00000000000E+00 -0.00000000000E+00 -0.45593999997E+02  0.45594000000E+02  0.51100000000E-03 0. -1.
         23    2    1    2    0    0  0.35527136788E-14  0.00000000000E+00  0.35527136788E-14  0.91188000000E+02  0.91188000000E+02 0.  0.
    9900012    2    3    3    0    0 -0.30765643503E+02  0.40654769179E+01 -0.19817338585E+02  0.54367084322E+02  0.40000000330E+02 0.  0.
        -12    1    3    3    0    0  0.30765643503E+02 -0.40654769179E+01  0.19817338585E+02  0.36820915678E+02  0.00000000000E+00 0.  1.
         11    1    4    4    0    0 -0.35780352552E+01  0.22409621378E+00  0.48489082197E+00  0.36176891479E+01  0.51100000000E-03 0.  1.
        -11    1    4    4    0    0 -0.30145687472E+02  0.20025085243E+01 -0.62537891199E-01  0.30212190003E+02  0.51100000000E-03 0. -1.
         12    1    4    4    0    0  0.29580792237E+01  0.18388721799E+01 -0.20239691516E+02  0.20537205171E+02  0.00000000000E+00 0. -1.
</event>
<event>
 8    1  0.1238315E-006  0.9118800E+02  0.7816164E-02  0.1184000E+00
        -11   -1    0    0    0    0  0.00000000000E+00  0.00000000000E+00  0.45593999997E+02  0.45594000000E+02  0.51100000000E-03 0. -1.
         11   -1    0    0    0    0 -0.00000000000E+00 -0.00000000000E+00 -0.45593999997E+02  0.45594000000E+02  0.51100000000E-03 0.  1.
         23    2    1    2    0    0  0.35527136788E-14 -0.35527136788E-14 -0.35527136788E-14  0.91188000000E+02  0.91188000000E+02 0.  0.
    9900012    2    3    3    0    0 -0.85520710614E+01  0.18745424829E+02 -0.30516385737E+02  0.54367100093E+02  0.40000036283E+02 0.  0.
         12    1    3    3    0    0  0.85520710614E+01 -0.18745424829E+02  0.30516385737E+02  0.36820899907E+02  0.00000000000E+00 0. -1.
         11    1    4    4    0    0 -0.52686658507E+01  0.75620239836E-01 -0.22411664718E+01  0.57260270417E+01  0.51100000000E-03 0. -1.
        -11    1    4    4    0    0  0.11740089680E+02  0.11215491652E+01  0.42212470927E+00  0.11801091803E+02  0.51100000000E-03 0.  1.
        -12    1    4    4    0    0 -0.15023494890E+02  0.17548255424E+02 -0.28697343975E+02  0.36839981248E+02  0.00000000000E+00 0.  1.
</event>
<event>
 8    1  0.1238315E-006  0.9118800E+02  0.7816164E-02  0.1184000E+00
        -11   -1    0    0    0    0  0.00000000000E+00  0.00000000000E+00  0.45593999997E+02  0.45594000000E+02  0.51100000000E-03 0.  1.
         11   -1    0    0    0    0 -0.00000000000E+00 -0.00000000000E+00 -0.45593999997E+02  0.45594000000E+02  0.51100000000E-03 0. -1.
         23    2    1    2    0    0 -0.17763568394E-14  0.00000000000E+00  0.00000000000E+00  0.91188000000E+02  0.91188000000E+02 0.  0.
    9900012    2    3    3    0    0  0.15483266130E+02  0.12422975041E+02  0.31011578116E+02  0.54367084529E+02  0.40000000800E+02 0.  0.
         12    1    3    3    0    0 -0.15483266130E+02 -0.12422975041E+02 -0.31011578116E+02  0.36820915471E+02  0.00000000000E+00 0. -1.
         11    1    4    4    0    0  0.35296092292E+01 -0.12963309302E+02  0.14277261302E+02  0.19604737181E+02  0.51100000000E-03 0. -1.
        -11    1    4    4    0    0  0.49980444294E+01  0.15710438791E+02  0.15757924610E+02  0.22805931759E+02  0.51100000000E-03 0.  1.
        -12    1    4    4    0    0  0.69556124709E+01  0.96758455523E+01  0.97639220400E+00  0.11956415589E+02  0.00000000000E+00 0.  1.
</event>
<event>
 8    1  0.1238315E-006  0.9118800E+02  0.7816164E-02  0.1184000E+00
        -11   -1    0    0    0    0  0.00000000000E+00  0.00000000000E+00  0.45593999997E+02  0.45594000000E+02  0.51100000000E-03 0.  1.
         11   -1    0    0    0    0 -0.00000000000E+00 -0.00000000000E+00 -0.45593999997E+02  0.45594000000E+02  0.51100000000E-03 0. -1.
         23    2    1    2    0    0 -0.35527136788E-14  0.00000000000E+00  0.17763568394E-14  0.91188000000E+02  0.91188000000E+02 0.  0.
    9900012    2    3    3    0    0 -0.25134404324E+02  0.22372573997E+02  0.14950252647E+02  0.54367076571E+02  0.39999982659E+02 0.  0.
         12    1    3    3    0    0  0.25134404324E+02 -0.22372573997E+02 -0.14950252647E+02  0.36820923429E+02  0.00000000000E+00 0. -1.
         11    1    4    4    0    0 -0.88330532025E+01  0.71817842389E+01 -0.91568240073E+01  0.14609869263E+02  0.51100000000E-03 0. -1.
        -11    1    4    4    0    0 -0.16512452387E+02  0.14120134598E+02  0.28155875229E+02  0.35563922662E+02  0.51100000000E-03 0.  1.
        -12    1    4    4    0    0  0.21110126605E+00  0.10706551598E+01 -0.40487985750E+01  0.41932846453E+01  0.00000000000E+00 0.  1.
</event>
<event>
 8    1  0.1238315E-006  0.9118800E+02  0.7816164E-02  0.1184000E+00
        -11   -1    0    0    0    0  0.00000000000E+00  0.00000000000E+00  0.45593999997E+02  0.45594000000E+02  0.51100000000E-03 0.  1.
         11   -1    0    0    0    0 -0.00000000000E+00 -0.00000000000E+00 -0.45593999997E+02  0.45594000000E+02  0.51100000000E-03 0. -1.
         23    2    1    2    0    0  0.00000000000E+00  0.00000000000E+00  0.00000000000E+00  0.91188000000E+02  0.91188000000E+02 0.  0.
    9900012    2    3    3    0    0 -0.35894573500E+02 -0.77141538189E+01  0.28023528454E+01  0.54367058169E+02  0.39999940708E+02 0.  0.
        -12    1    3    3    0    0  0.35894573500E+02  0.77141538189E+01 -0.28023528454E+01  0.36820941831E+02  0.00000000000E+00 0.  1.
         11    1    4    4    0    0 -0.10393016893E+02  0.52871992421E+01  0.58043093127E+01  0.13025332350E+02  0.51100000000E-03 0. -1.
        -11    1    4    4    0    0 -0.12201183040E+02 -0.12589133854E+01  0.12694879325E+02  0.17652583149E+02  0.51100000000E-03 0.  1.
         12    1    4    4    0    0 -0.13300373566E+02 -0.11742439676E+02 -0.15696835793E+02  0.23689142670E+02  0.00000000000E+00 0. -1.
</event>
<event>
 8    1  0.1238315E-006  0.9118800E+02  0.7816164E-02  0.1184000E+00
        -11   -1    0    0    0    0  0.00000000000E+00  0.00000000000E+00  0.45593999997E+02  0.45594000000E+02  0.51100000000E-03 0.  1.
         11   -1    0    0    0    0 -0.00000000000E+00 -0.00000000000E+00 -0.45593999997E+02  0.45594000000E+02  0.51100000000E-03 0. -1.
         23    2    1    2    0    0 -0.17763568394E-14  0.35527136788E-14  0.35527136788E-14  0.91188000000E+02  0.91188000000E+02 0.  0.
    9900012    2    3    3    0    0 -0.76064249847E+01  0.28319669822E+02  0.22269224168E+02  0.54367085496E+02  0.40000003005E+02 0.  0.
        -12    1    3    3    0    0  0.76064249847E+01 -0.28319669822E+02 -0.22269224168E+02  0.36820914504E+02  0.00000000000E+00 0.  1.
         11    1    4    4    0    0  0.38192475657E+01  0.10038779281E+02 -0.72150292866E+01  0.12939103110E+02  0.51100000000E-03 0. -1.
        -11    1    4    4    0    0 -0.13007025617E+02  0.19987868845E+02  0.18450646681E+02  0.30151682864E+02  0.51100000000E-03 0.  1.
        -12    1    4    4    0    0  0.15813530668E+01 -0.17069783041E+01  0.11033606774E+02  0.11276299522E+02  0.00000000000E+00 0.  1.
</event>
<event>
 8    1  0.1238315E-006  0.9118800E+02  0.7816164E-02  0.1184000E+00
        -11   -1    0    0    0    0  0.00000000000E+00  0.00000000000E+00  0.45593999997E+02  0.45594000000E+02  0.51100000000E-03 0.  1.
         11   -1    0    0    0    0 -0.00000000000E+00 -0.00000000000E+00 -0.45593999997E+02  0.45594000000E+02  0.51100000000E-03 0. -1.
         23    2    1    2    0    0  0.00000000000E+00  0.00000000000E+00  0.00000000000E+00  0.91188000000E+02  0.91188000000E+02 0.  0.
    9900012    2    3    3    0    0 -0.28139116569E+02 -0.15218446053E+02  0.18230991892E+02  0.54367081396E+02  0.39999993657E+02 0.  0.
         12    1    3    3    0    0  0.28139116569E+02  0.15218446053E+02 -0.18230991892E+02  0.36820918604E+02  0.00000000000E+00 0. -1.
         11    1    4    4    0    0  0.35742902926E+01 -0.19490811071E+00  0.76192065533E+01  0.84181856139E+01  0.51100000000E-03 0. -1.
        -11    1    4    4    0    0 -0.18302988063E+02 -0.20816825084E+02 -0.29115321930E+00  0.27720468053E+02  0.51100000000E-03 0.  1.
        -12    1    4    4    0    0 -0.13410418798E+02  0.57932871423E+01  0.10902938558E+02  0.18228427729E+02  0.00000000000E+00 0.  1.
</event>
<event>
 8    1  0.1238315E-006  0.9118800E+02  0.7816164E-02  0.1184000E+00
        -11   -1    0    0    0    0  0.00000000000E+00  0.00000000000E+00  0.45593999997E+02  0.45594000000E+02  0.51100000000E-03 0. -1.
         11   -1    0    0    0    0 -0.00000000000E+00 -0.00000000000E+00 -0.45593999997E+02  0.45594000000E+02  0.51100000000E-03 0.  1.
         23    2    1    2    0    0  0.00000000000E+00  0.00000000000E+00  0.00000000000E+00  0.91188000000E+02  0.91188000000E+02 0.  0.
    9900012    2    3    3    0    0  0.18203837709E+02  0.20396371491E+02  0.24665566613E+02  0.54367056860E+02  0.39999937725E+02 0.  0.
        -12    1    3    3    0    0 -0.18203837709E+02 -0.20396371491E+02 -0.24665566613E+02  0.36820943140E+02  0.00000000000E+00 0.  1.
         11    1    4    4    0    0  0.14031561470E+02  0.14414202910E+02  0.10089411112E+02  0.22504447997E+02  0.51100000000E-03 0. -1.
        -11    1    4    4    0    0  0.11311519746E+02  0.29575895121E+01  0.19457819764E+02  0.22700320811E+02  0.51100000000E-03 0.  1.
        -12    1    4    4    0    0 -0.71392435066E+01  0.30245790689E+01 -0.48816642624E+01  0.91622880527E+01  0.00000000000E+00 0.  1.
</event>
<event>
 8    1  0.1238315E-006  0.9118800E+02  0.7816164E-02  0.1184000E+00
        -11   -1    0    0    0    0  0.00000000000E+00  0.00000000000E+00  0.45593999997E+02  0.45594000000E+02  0.51100000000E-03 0.  1.
         11   -1    0    0    0    0 -0.00000000000E+00 -0.00000000000E+00 -0.45593999997E+02  0.45594000000E+02  0.51100000000E-03 0. -1.
         23    2    1    2    0    0 -0.35527136788E-14  0.35527136788E-14  0.17763568394E-14  0.91188000000E+02  0.91188000000E+02 0.  0.
    9900012    2    3    3    0    0  0.16335633817E+02  0.30061397313E+02  0.13610259357E+02  0.54367086101E+02  0.40000004383E+02 0.  0.
        -12    1    3    3    0    0 -0.16335633817E+02 -0.30061397313E+02 -0.13610259357E+02  0.36820913899E+02  0.00000000000E+00 0.  1.
         11    1    4    4    0    0 -0.62516974680E+01  0.10422105547E+01  0.10158306069E+02  0.11973349845E+02  0.51100000000E-03 0.  1.
        -11    1    4    4    0    0 -0.30429262559E+01  0.14979408217E+01  0.33769030494E+01  0.47860945843E+01  0.51100000000E-03 0. -1.
         12    1    4    4    0    0  0.25630257541E+02  0.27521245937E+02  0.75050239228E-01  0.37607641671E+02  0.00000000000E+00 0. -1.
</event>
<event>
 8    1  0.1238315E-006  0.9118800E+02  0.7816164E-02  0.1184000E+00
        -11   -1    0    0    0    0  0.00000000000E+00  0.00000000000E+00  0.45593999997E+02  0.45594000000E+02  0.51100000000E-03 0. -1.
         11   -1    0    0    0    0 -0.00000000000E+00 -0.00000000000E+00 -0.45593999997E+02  0.45594000000E+02  0.51100000000E-03 0.  1.
         23    2    1    2    0    0 -0.35527136788E-14 -0.17763568394E-14  0.00000000000E+00  0.91188000000E+02  0.91188000000E+02 0.  0.
    9900012    2    3    3    0    0 -0.25604886332E+02  0.13802489656E+02  0.22575716994E+02  0.54367055925E+02  0.39999935591E+02 0.  0.
        -12    1    3    3    0    0  0.25604886332E+02 -0.13802489656E+02 -0.22575716994E+02  0.36820944075E+02  0.00000000000E+00 0.  1.
         11    1    4    4    0    0 -0.18556132064E+02  0.59805578190E+01  0.23169776241E+02  0.30280945169E+02  0.51100000000E-03 0. -1.
        -11    1    4    4    0    0 -0.70608981454E+01 -0.57960612220E+01  0.36271616333E+01  0.98288814259E+01  0.51100000000E-03 0.  1.
        -12    1    4    4    0    0  0.12143877502E-01  0.13617993059E+02 -0.42212208798E+01  0.14257229330E+02  0.00000000000E+00 0.  1.
</event>
<event>
 8    1  0.1238315E-006  0.9118800E+02  0.7816164E-02  0.1184000E+00
        -11   -1    0    0    0    0  0.00000000000E+00  0.00000000000E+00  0.45593999997E+02  0.45594000000E+02  0.51100000000E-03 0. -1.
         11   -1    0    0    0    0 -0.00000000000E+00 -0.00000000000E+00 -0.45593999997E+02  0.45594000000E+02  0.51100000000E-03 0.  1.
         23    2    1    2    0    0  0.00000000000E+00  0.00000000000E+00  0.71054273576E-14  0.91188000000E+02  0.91188000000E+02 0.  0.
    9900012    2    3    3    0    0  0.13113646729E+02 -0.96182807908E+01  0.33035104571E+02  0.54366848607E+02  0.39999462967E+02 0.  0.
        -12    1    3    3    0    0 -0.13113646729E+02  0.96182807908E+01 -0.33035104571E+02  0.36821151393E+02  0.00000000000E+00 0.  1.
         11    1    4    4    0    0  0.11712165836E+02 -0.47713339505E+01 -0.26187515781E+01  0.12915042250E+02  0.51100000000E-03 0. -1.
        -11    1    4    4    0    0 -0.10596018345E+01  0.24679586931E+01 -0.17855611375E+01  0.32251829399E+01  0.51100000000E-03 0.  1.
         12    1    4    4    0    0  0.24610827271E+01 -0.73149055334E+01  0.37439417286E+02  0.38226623417E+02  0.00000000000E+00 0. -1.
</event>
<event>
 8    1  0.1238315E-006  0.9118800E+02  0.7816164E-02  0.1184000E+00
        -11   -1    0    0    0    0  0.00000000000E+00  0.00000000000E+00  0.45593999997E+02  0.45594000000E+02  0.51100000000E-03 0.  1.
         11   -1    0    0    0    0 -0.00000000000E+00 -0.00000000000E+00 -0.45593999997E+02  0.45594000000E+02  0.51100000000E-03 0. -1.
         23    2    1    2    0    0  0.35527136788E-14  0.00000000000E+00  0.00000000000E+00  0.91188000000E+02  0.91188000000E+02 0.  0.
    9900012    2    3    3    0    0 -0.19700267104E+02 -0.26817733030E+02 -0.15763471477E+02  0.54367104277E+02  0.40000045820E+02 0.  0.
        -12    1    3    3    0    0  0.19700267104E+02  0.26817733030E+02  0.15763471477E+02  0.36820895723E+02  0.00000000000E+00 0.  1.
         11    1    4    4    0    0  0.36131502711E+01 -0.62243997453E+01 -0.24996160194E+01  0.76187983027E+01  0.51100000000E-03 0. -1.
        -11    1    4    4    0    0 -0.17899765005E+02 -0.12222440897E+02 -0.23836114353E+02  0.32217231358E+02  0.51100000000E-03 0.  1.
        -12    1    4    4    0    0 -0.54136523695E+01 -0.83708923884E+01  0.10572258895E+02  0.14531074616E+02  0.00000000000E+00 0.  1.
</event>
<event>
 8    1  0.1238315E-006  0.9118800E+02  0.7816164E-02  0.1184000E+00
        -11   -1    0    0    0    0  0.00000000000E+00  0.00000000000E+00  0.45593999997E+02  0.45594000000E+02  0.51100000000E-03 0.  1.
         11   -1    0    0    0    0 -0.00000000000E+00 -0.00000000000E+00 -0.45593999997E+02  0.45594000000E+02  0.51100000000E-03 0. -1.
         23    2    1    2    0    0  0.00000000000E+00  0.17763568394E-14 -0.11102230246E-14  0.91188000000E+02  0.91188000000E+02 0.  0.
    9900012    2    3    3    0    0  0.35822364724E+02  0.85120734386E+01 -0.28905814283E+00  0.54367071667E+02  0.39999971480E+02 0.  0.
        -12    1    3    3    0    0 -0.35822364724E+02 -0.85120734386E+01  0.28905814283E+00  0.36820928333E+02  0.00000000000E+00 0.  1.
         11    1    4    4    0    0  0.42550682334E+01 -0.65900734627E+01  0.10542607198E+02  0.13140823441E+02  0.51100000000E-03 0. -1.
        -11    1    4    4    0    0  0.10521143478E+02  0.12645145389E+02  0.18157396164E+01  0.16549654758E+02  0.51100000000E-03 0.  1.
         12    1    4    4    0    0  0.21046153013E+02  0.24570015124E+01 -0.12647404957E+02  0.24676593469E+02  0.00000000000E+00 0. -1.
</event>
<event>
 8    1  0.1238315E-006  0.9118800E+02  0.7816164E-02  0.1184000E+00
        -11   -1    0    0    0    0  0.00000000000E+00  0.00000000000E+00  0.45593999997E+02  0.45594000000E+02  0.51100000000E-03 0.  1.
         11   -1    0    0    0    0 -0.00000000000E+00 -0.00000000000E+00 -0.45593999997E+02  0.45594000000E+02  0.51100000000E-03 0. -1.
         23    2    1    2    0    0  0.35527136788E-14  0.00000000000E+00  0.19428902931E-15  0.91188000000E+02  0.91188000000E+02 0.  0.
    9900012    2    3    3    0    0  0.31863630505E+02  0.18450943673E+02  0.22943387192E+00  0.54367069657E+02  0.39999966897E+02 0.  0.
         12    1    3    3    0    0 -0.31863630505E+02 -0.18450943673E+02 -0.22943387192E+00  0.36820930343E+02  0.00000000000E+00 0. -1.
         11    1    4    4    0    0  0.12819713130E+02 -0.79672534217E+01 -0.74462660411E+01  0.16830598624E+02  0.51100000000E-03 0. -1.
        -11    1    4    4    0    0  0.55379922708E+01  0.21288238354E+02  0.22809040705E+01  0.22114723020E+02  0.51100000000E-03 0.  1.
        -12    1    4    4    0    0  0.13505925104E+02  0.51299587412E+01  0.53947958426E+01  0.15421748013E+02  0.00000000000E+00 0.  1.
</event>
<event>
 8    1  0.1238315E-006  0.9118800E+02  0.7816164E-02  0.1184000E+00
        -11   -1    0    0    0    0  0.00000000000E+00  0.00000000000E+00  0.45593999997E+02  0.45594000000E+02  0.51100000000E-03 0. -1.
         11   -1    0    0    0    0 -0.00000000000E+00 -0.00000000000E+00 -0.45593999997E+02  0.45594000000E+02  0.51100000000E-03 0.  1.
         23    2    1    2    0    0 -0.35527136788E-14 -0.17763568394E-14  0.00000000000E+00  0.91188000000E+02  0.91188000000E+02 0.  0.
    9900012    2    3    3    0    0  0.26659916891E+02  0.96133651030E+01  0.23507695293E+02  0.54367086170E+02  0.40000004543E+02 0.  0.
        -12    1    3    3    0    0 -0.26659916891E+02 -0.96133651030E+01 -0.23507695293E+02  0.36820913830E+02  0.00000000000E+00 0.  1.
         11    1    4    4    0    0 -0.81799104666E+01  0.28691654511E+01 -0.17548534968E+01  0.88443516825E+01  0.51100000000E-03 0. -1.
        -11    1    4    4    0    0  0.47618013981E+01 -0.34609365967E+01  0.22580504408E+01  0.63048891136E+01  0.51100000000E-03 0.  1.
         12    1    4    4    0    0  0.30078025960E+02  0.10205136249E+02  0.23004498349E+02  0.39217845374E+02  0.00000000000E+00 0. -1.
</event>
<event>
 8    1  0.1238315E-006  0.9118800E+02  0.7816164E-02  0.1184000E+00
        -11   -1    0    0    0    0  0.00000000000E+00  0.00000000000E+00  0.45593999997E+02  0.45594000000E+02  0.51100000000E-03 0. -1.
         11   -1    0    0    0    0 -0.00000000000E+00 -0.00000000000E+00 -0.45593999997E+02  0.45594000000E+02  0.51100000000E-03 0.  1.
         23    2    1    2    0    0  0.22204460493E-15  0.00000000000E+00  0.00000000000E+00  0.91188000000E+02  0.91188000000E+02 0.  0.
    9900012    2    3    3    0    0  0.16240366908E+01 -0.34972226419E+02  0.11405529140E+02  0.54367079169E+02  0.39999988582E+02 0.  0.
        -12    1    3    3    0    0 -0.16240366908E+01  0.34972226419E+02 -0.11405529140E+02  0.36820920831E+02  0.00000000000E+00 0.  1.
         11    1    4    4    0    0  0.29192173687E+01 -0.89176051691E+01  0.12278528411E+02  0.15453406492E+02  0.51100000000E-03 0. -1.
        -11    1    4    4    0    0  0.11943061714E+01  0.62984778000E+01  0.54603778395E+00  0.64339216152E+01  0.51100000000E-03 0.  1.
        -12    1    4    4    0    0 -0.24894868493E+01 -0.32353099050E+02 -0.14190370549E+01  0.32479751062E+02  0.00000000000E+00 0.  1.
</event>
<event>
 8    1  0.1238315E-006  0.9118800E+02  0.7816164E-02  0.1184000E+00
        -11   -1    0    0    0    0  0.00000000000E+00  0.00000000000E+00  0.45593999997E+02  0.45594000000E+02  0.51100000000E-03 0. -1.
         11   -1    0    0    0    0 -0.00000000000E+00 -0.00000000000E+00 -0.45593999997E+02  0.45594000000E+02  0.51100000000E-03 0.  1.
         23    2    1    2    0    0  0.00000000000E+00  0.35527136788E-14 -0.35527136788E-14  0.91188000000E+02  0.91188000000E+02 0.  0.
    9900012    2    3    3    0    0  0.24812280888E+02  0.13361556266E+02 -0.23698077436E+02  0.54367090955E+02  0.40000015450E+02 0.  0.
         12    1    3    3    0    0 -0.24812280888E+02 -0.13361556266E+02  0.23698077436E+02  0.36820909045E+02  0.00000000000E+00 0. -1.
         11    1    4    4    0    0  0.76911359824E+01 -0.22974811856E+01 -0.23025428529E+01  0.83506704131E+01  0.51100000000E-03 0. -1.
        -11    1    4    4    0    0  0.20682019577E+02  0.82852135075E+01 -0.27796039758E+02  0.35623173962E+02  0.51100000000E-03 0.  1.
         12    1    4    4    0    0 -0.35608746718E+01  0.73738239446E+01  0.64005051739E+01  0.10393246580E+02  0.00000000000E+00 0. -1.
</event>
<event>
 8    1  0.1238315E-006  0.9118800E+02  0.7816164E-02  0.1184000E+00
        -11   -1    0    0    0    0  0.00000000000E+00  0.00000000000E+00  0.45593999997E+02  0.45594000000E+02  0.51100000000E-03 0.  1.
         11   -1    0    0    0    0 -0.00000000000E+00 -0.00000000000E+00 -0.45593999997E+02  0.45594000000E+02  0.51100000000E-03 0. -1.
         23    2    1    2    0    0  0.00000000000E+00 -0.17763568394E-14 -0.35527136788E-14  0.91188000000E+02  0.91188000000E+02 0.  0.
    9900012    2    3    3    0    0 -0.15637812920E+02 -0.11439170790E+02 -0.31311099954E+02  0.54367071147E+02  0.39999970295E+02 0.  0.
        -12    1    3    3    0    0  0.15637812920E+02  0.11439170790E+02  0.31311099954E+02  0.36820928853E+02  0.00000000000E+00 0.  1.
         11    1    4    4    0    0  0.40720911098E+01 -0.14191895168E+02 -0.25350862536E+02  0.29336974044E+02  0.51100000000E-03 0. -1.
        -11    1    4    4    0    0 -0.42978365168E+01  0.70334592357E+00  0.45225877765E+01  0.62785264728E+01  0.51100000000E-03 0.  1.
         12    1    4    4    0    0 -0.15412067513E+02  0.20493784545E+01 -0.10482825194E+02  0.18751570630E+02  0.00000000000E+00 0. -1.
</event>
<event>
 8    1  0.1238315E-006  0.9118800E+02  0.7816164E-02  0.1184000E+00
        -11   -1    0    0    0    0  0.00000000000E+00  0.00000000000E+00  0.45593999997E+02  0.45594000000E+02  0.51100000000E-03 0. -1.
         11   -1    0    0    0    0 -0.00000000000E+00 -0.00000000000E+00 -0.45593999997E+02  0.45594000000E+02  0.51100000000E-03 0.  1.
         23    2    1    2    0    0  0.00000000000E+00 -0.88817841970E-15  0.35527136788E-14  0.91188000000E+02  0.91188000000E+02 0.  0.
    9900012    2    3    3    0    0  0.18680946603E+02 -0.24684142948E+01 -0.31633999435E+02  0.54367071775E+02  0.39999971725E+02 0.  0.
         12    1    3    3    0    0 -0.18680946603E+02  0.24684142948E+01  0.31633999435E+02  0.36820928225E+02  0.00000000000E+00 0. -1.
         11    1    4    4    0    0 -0.49382457265E+01  0.56941032098E+01  0.68871511505E+00  0.75685805135E+01  0.51100000000E-03 0. -1.
        -11    1    4    4    0    0  0.77270607305E+01  0.11158459797E+01 -0.26301981200E+02  0.27436231430E+02  0.51100000000E-03 0.  1.
        -12    1    4    4    0    0  0.15892131599E+02 -0.92783634843E+01 -0.60207333502E+01  0.19362259832E+02  0.00000000000E+00 0.  1.
</event>
<event>
 8    1  0.1238315E-006  0.9118800E+02  0.7816164E-02  0.1184000E+00
        -11   -1    0    0    0    0  0.00000000000E+00  0.00000000000E+00  0.45593999997E+02  0.45594000000E+02  0.51100000000E-03 0.  1.
         11   -1    0    0    0    0 -0.00000000000E+00 -0.00000000000E+00 -0.45593999997E+02  0.45594000000E+02  0.51100000000E-03 0. -1.
         23    2    1    2    0    0  0.17763568394E-14  0.00000000000E+00  0.35527136788E-14  0.91188000000E+02  0.91188000000E+02 0.  0.
    9900012    2    3    3    0    0  0.78116589850E+01 -0.18651692439E+02 -0.30771292275E+02  0.54367081011E+02  0.39999992780E+02 0.  0.
        -12    1    3    3    0    0 -0.78116589850E+01  0.18651692439E+02  0.30771292275E+02  0.36820918989E+02  0.00000000000E+00 0.  1.
         11    1    4    4    0    0  0.13099176901E+02 -0.41137756453E+01 -0.37891743878E+01  0.14243223945E+02  0.51100000000E-03 0.  1.
        -11    1    4    4    0    0 -0.32431195206E+01 -0.72220729108E+01 -0.30673218221E+02  0.31678422903E+02  0.51100000000E-03 0. -1.
        -12    1    4    4    0    0 -0.20443983956E+01 -0.73158438830E+01  0.36911003333E+01  0.84454341623E+01  0.00000000000E+00 0.  1.
</event>
<event>
 8    1  0.1238315E-006  0.9118800E+02  0.7816164E-02  0.1184000E+00
        -11   -1    0    0    0    0  0.00000000000E+00  0.00000000000E+00  0.45593999997E+02  0.45594000000E+02  0.51100000000E-03 0.  1.
         11   -1    0    0    0    0 -0.00000000000E+00 -0.00000000000E+00 -0.45593999997E+02  0.45594000000E+02  0.51100000000E-03 0. -1.
         23    2    1    2    0    0  0.17763568394E-14  0.17763568394E-14  0.00000000000E+00  0.91188000000E+02  0.91188000000E+02 0.  0.
    9900012    2    3    3    0    0  0.13838352508E+02 -0.83441142452E+01  0.33085415912E+02  0.54367231557E+02  0.40000335979E+02 0.  0.
         12    1    3    3    0    0 -0.13838352508E+02  0.83441142452E+01 -0.33085415912E+02  0.36820768443E+02  0.00000000000E+00 0. -1.
         11    1    4    4    0    0  0.15345442957E+02  0.10381737351E+02  0.27042566278E+02  0.32780535095E+02  0.51100000000E-03 0. -1.
        -11    1    4    4    0    0  0.68542419091E+00 -0.36960696395E-02 -0.12089939061E+01  0.13897793021E+01  0.51100000000E-03 0.  1.
        -12    1    4    4    0    0 -0.21925146397E+01 -0.18722155527E+02  0.72518435398E+01  0.20196917159E+02  0.00000000000E+00 0.  1.
</event>
<event>
 8    1  0.1238315E-006  0.9118800E+02  0.7816164E-02  0.1184000E+00
        -11   -1    0    0    0    0  0.00000000000E+00  0.00000000000E+00  0.45593999997E+02  0.45594000000E+02  0.51100000000E-03 0. -1.
         11   -1    0    0    0    0 -0.00000000000E+00 -0.00000000000E+00 -0.45593999997E+02  0.45594000000E+02  0.51100000000E-03 0.  1.
         23    2    1    2    0    0  0.71054273576E-14 -0.35527136788E-14 -0.35527136788E-14  0.91188000000E+02  0.91188000000E+02 0.  0.
    9900012    2    3    3    0    0 -0.21157461935E+02  0.16824453241E+02 -0.25001594955E+02  0.54367079687E+02  0.39999989763E+02 0.  0.
         12    1    3    3    0    0  0.21157461935E+02 -0.16824453241E+02  0.25001594955E+02  0.36820920313E+02  0.00000000000E+00 0. -1.
         11    1    4    4    0    0  0.97658699887E+00 -0.49115561973E+01 -0.45889450473E+01  0.67923135495E+01  0.51100000000E-03 0. -1.
        -11    1    4    4    0    0 -0.10186582204E+02  0.13499903045E+02 -0.26824040896E+02  0.31710298161E+02  0.51100000000E-03 0.  1.
         12    1    4    4    0    0 -0.11947466730E+02  0.82361063933E+01  0.64113909883E+01  0.15864467977E+02  0.00000000000E+00 0. -1.
</event>
<event>
 8    1  0.1238315E-006  0.9118800E+02  0.7816164E-02  0.1184000E+00
        -11   -1    0    0    0    0  0.00000000000E+00  0.00000000000E+00  0.45593999997E+02  0.45594000000E+02  0.51100000000E-03 0. -1.
         11   -1    0    0    0    0 -0.00000000000E+00 -0.00000000000E+00 -0.45593999997E+02  0.45594000000E+02  0.51100000000E-03 0.  1.
         23    2    1    2    0    0 -0.44408920985E-15  0.00000000000E+00 -0.35527136788E-14  0.91188000000E+02  0.91188000000E+02 0.  0.
    9900012    2    3    3    0    0  0.23088732075E+01 -0.18737489278E+02  0.31612596712E+02  0.54367072924E+02  0.39999974344E+02 0.  0.
        -12    1    3    3    0    0 -0.23088732075E+01  0.18737489278E+02 -0.31612596712E+02  0.36820927076E+02  0.00000000000E+00 0.  1.
         11    1    4    4    0    0 -0.65816606885E+00 -0.19386065511E+02  0.13063657934E+02  0.23386147128E+02  0.51100000000E-03 0. -1.
        -11    1    4    4    0    0 -0.66347445588E+01  0.95702520751E+01  0.76338897799E+01  0.13924289338E+02  0.51100000000E-03 0.  1.
        -12    1    4    4    0    0  0.96017838351E+01 -0.89216758414E+01  0.10915048998E+02  0.17056636458E+02  0.00000000000E+00 0.  1.
</event>
<event>
 8    1  0.1238315E-006  0.9118800E+02  0.7816164E-02  0.1184000E+00
        -11   -1    0    0    0    0  0.00000000000E+00  0.00000000000E+00  0.45593999997E+02  0.45594000000E+02  0.51100000000E-03 0.  1.
         11   -1    0    0    0    0 -0.00000000000E+00 -0.00000000000E+00 -0.45593999997E+02  0.45594000000E+02  0.51100000000E-03 0. -1.
         23    2    1    2    0    0  0.00000000000E+00 -0.35527136788E-14  0.00000000000E+00  0.91188000000E+02  0.91188000000E+02 0.  0.
    9900012    2    3    3    0    0 -0.75865248512E+01 -0.12712340980E+02 -0.33713806431E+02  0.54367085881E+02  0.40000003882E+02 0.  0.
        -12    1    3    3    0    0  0.75865248512E+01  0.12712340980E+02  0.33713806431E+02  0.36820914119E+02  0.00000000000E+00 0.  1.
         11    1    4    4    0    0 -0.59737715031E+01 -0.21108788826E+02 -0.27056235578E+02  0.34832553676E+02  0.51100000000E-03 0. -1.
        -11    1    4    4    0    0 -0.29895445572E+01 -0.43677448824E+01 -0.56178888140E+00  0.53226101704E+01  0.51100000000E-03 0.  1.
        -12    1    4    4    0    0  0.13767912090E+01  0.12764192729E+02 -0.60957819714E+01  0.14211922034E+02  0.00000000000E+00 0.  1.
</event>
<event>
 8    1  0.1238315E-006  0.9118800E+02  0.7816164E-02  0.1184000E+00
        -11   -1    0    0    0    0  0.00000000000E+00  0.00000000000E+00  0.45593999997E+02  0.45594000000E+02  0.51100000000E-03 0. -1.
         11   -1    0    0    0    0 -0.00000000000E+00 -0.00000000000E+00 -0.45593999997E+02  0.45594000000E+02  0.51100000000E-03 0.  1.
         23    2    1    2    0    0 -0.66613381478E-15  0.00000000000E+00  0.00000000000E+00  0.91188000000E+02  0.91188000000E+02 0.  0.
    9900012    2    3    3    0    0 -0.12236629929E+01 -0.63853161616E+01 -0.36242390322E+02  0.54367075652E+02  0.39999980563E+02 0.  0.
         12    1    3    3    0    0  0.12236629929E+01  0.63853161616E+01  0.36242390322E+02  0.36820924348E+02  0.00000000000E+00 0. -1.
         11    1    4    4    0    0 -0.54796466694E+01  0.26056142557E+01  0.24409212116E+01  0.65401720079E+01  0.51100000000E-03 0. -1.
        -11    1    4    4    0    0  0.10220288117E+02  0.35387340070E+01 -0.61128779973E+01  0.12423534329E+02  0.51100000000E-03 0.  1.
        -12    1    4    4    0    0 -0.59643044402E+01 -0.12529664424E+02 -0.32570433537E+02  0.35403369314E+02  0.00000000000E+00 0.  1.
</event>
<event>
 8    1  0.1238315E-006  0.9118800E+02  0.7816164E-02  0.1184000E+00
        -11   -1    0    0    0    0  0.00000000000E+00  0.00000000000E+00  0.45593999997E+02  0.45594000000E+02  0.51100000000E-03 0. -1.
         11   -1    0    0    0    0 -0.00000000000E+00 -0.00000000000E+00 -0.45593999997E+02  0.45594000000E+02  0.51100000000E-03 0.  1.
         23    2    1    2    0    0  0.71054273576E-14  0.44408920985E-15 -0.35527136788E-14  0.91188000000E+02  0.91188000000E+02 0.  0.
    9900012    2    3    3    0    0  0.32889540170E+02  0.38240414512E+01 -0.16107045527E+02  0.54367054043E+02  0.39999931301E+02 0.  0.
         12    1    3    3    0    0 -0.32889540170E+02 -0.38240414512E+01  0.16107045527E+02  0.36820945957E+02  0.00000000000E+00 0. -1.
         11    1    4    4    0    0  0.40413712866E+01 -0.56548578162E+00  0.10893916584E+02  0.11633136930E+02  0.51100000000E-03 0. -1.
        -11    1    4    4    0    0 -0.91958902952E+00 -0.16711943459E+01 -0.46287207840E+01  0.50063550496E+01  0.51100000000E-03 0.  1.
        -12    1    4    4    0    0  0.29767757913E+02  0.60607215788E+01 -0.22372241327E+02  0.37727562063E+02  0.00000000000E+00 0.  1.
</event>
<event>
 8    1  0.1238315E-006  0.9118800E+02  0.7816164E-02  0.1184000E+00
        -11   -1    0    0    0    0  0.00000000000E+00  0.00000000000E+00  0.45593999997E+02  0.45594000000E+02  0.51100000000E-03 0. -1.
         11   -1    0    0    0    0 -0.00000000000E+00 -0.00000000000E+00 -0.45593999997E+02  0.45594000000E+02  0.51100000000E-03 0.  1.
         23    2    1    2    0    0  0.35527136788E-14 -0.44408920985E-15  0.00000000000E+00  0.91188000000E+02  0.91188000000E+02 0.  0.
    9900012    2    3    3    0    0  0.17123643155E+02 -0.36020452039E+01 -0.32397317523E+02  0.54367081119E+02  0.39999993027E+02 0.  0.
         12    1    3    3    0    0 -0.17123643155E+02  0.36020452039E+01  0.32397317523E+02  0.36820918881E+02  0.00000000000E+00 0. -1.
         11    1    4    4    0    0  0.14839677757E+01 -0.66038751785E+01  0.40150329719E+01  0.78698041754E+01  0.51100000000E-03 0. -1.
        -11    1    4    4    0    0  0.18332782275E+02  0.30766011235E+01 -0.38719263478E+02  0.42950410300E+02  0.51100000000E-03 0.  1.
        -12    1    4    4    0    0 -0.26931068949E+01 -0.74771148873E-01  0.23069129833E+01  0.35468666432E+01  0.00000000000E+00 0.  1.
</event>
<event>
 8    1  0.1238315E-006  0.9118800E+02  0.7816164E-02  0.1184000E+00
        -11   -1    0    0    0    0  0.00000000000E+00  0.00000000000E+00  0.45593999997E+02  0.45594000000E+02  0.51100000000E-03 0.  1.
         11   -1    0    0    0    0 -0.00000000000E+00 -0.00000000000E+00 -0.45593999997E+02  0.45594000000E+02  0.51100000000E-03 0. -1.
         23    2    1    2    0    0  0.35527136788E-14  0.00000000000E+00 -0.35527136788E-14  0.91188000000E+02  0.91188000000E+02 0.  0.
    9900012    2    3    3    0    0  0.22410937125E+02  0.82148028444E+01  0.28036509568E+02  0.54367096191E+02  0.40000027386E+02 0.  0.
        -12    1    3    3    0    0 -0.22410937125E+02 -0.82148028444E+01 -0.28036509568E+02  0.36820903809E+02  0.00000000000E+00 0.  1.
         11    1    4    4    0    0 -0.29766348105E+01 -0.10620923128E+01 -0.66396565920E+01  0.73534641359E+01  0.51100000000E-03 0. -1.
        -11    1    4    4    0    0 -0.12328707843E-01 -0.23107071617E+01 -0.22312211146E+00  0.23214873081E+01  0.51100000000E-03 0.  1.
        -12    1    4    4    0    0  0.25399900643E+02  0.11587602319E+02  0.34899288271E+02  0.44692144747E+02  0.00000000000E+00 0.  1.
</event>
<event>
 8    1  0.1238315E-006  0.9118800E+02  0.7816164E-02  0.1184000E+00
        -11   -1    0    0    0    0  0.00000000000E+00  0.00000000000E+00  0.45593999997E+02  0.45594000000E+02  0.51100000000E-03 0. -1.
         11   -1    0    0    0    0 -0.00000000000E+00 -0.00000000000E+00 -0.45593999997E+02  0.45594000000E+02  0.51100000000E-03 0.  1.
         23    2    1    2    0    0 -0.17763568394E-14 -0.71054273576E-14  0.17763568394E-14  0.91188000000E+02  0.91188000000E+02 0.  0.
    9900012    2    3    3    0    0  0.88587905492E+01  0.33729039781E+02 -0.11817599104E+02  0.54367055646E+02  0.39999934956E+02 0.  0.
        -12    1    3    3    0    0 -0.88587905492E+01 -0.33729039781E+02  0.11817599104E+02  0.36820944354E+02  0.00000000000E+00 0.  1.
         11    1    4    4    0    0 -0.36184377089E+01  0.20170686699E+02 -0.45702598795E+00  0.20497769791E+02  0.51100000000E-03 0. -1.
        -11    1    4    4    0    0  0.83879769753E+01 -0.28710506141E+01  0.51232464039E+01  0.10239567537E+02  0.51100000000E-03 0.  1.
        -12    1    4    4    0    0  0.40892512828E+01  0.16429403696E+02 -0.16483819520E+02  0.23629718319E+02  0.00000000000E+00 0.  1.
</event>
<event>
 8    1  0.1238315E-006  0.9118800E+02  0.7816164E-02  0.1184000E+00
        -11   -1    0    0    0    0  0.00000000000E+00  0.00000000000E+00  0.45593999997E+02  0.45594000000E+02  0.51100000000E-03 0. -1.
         11   -1    0    0    0    0 -0.00000000000E+00 -0.00000000000E+00 -0.45593999997E+02  0.45594000000E+02  0.51100000000E-03 0.  1.
         23    2    1    2    0    0  0.00000000000E+00  0.00000000000E+00  0.00000000000E+00  0.91188000000E+02  0.91188000000E+02 0.  0.
    9900012    2    3    3    0    0 -0.16231224621E+02 -0.31035110707E+02  0.11364368376E+02  0.54367087221E+02  0.40000006937E+02 0.  0.
        -12    1    3    3    0    0  0.16231224621E+02  0.31035110707E+02 -0.11364368376E+02  0.36820912779E+02  0.00000000000E+00 0.  1.
         11    1    4    4    0    0 -0.18580110183E+02 -0.23611371431E+02 -0.56043168267E+01  0.30563470396E+02  0.51100000000E-03 0.  1.
        -11    1    4    4    0    0 -0.36908373616E+01  0.21720933138E+01  0.89329265649E+01  0.99064346295E+01  0.51100000000E-03 0. -1.
        -12    1    4    4    0    0  0.60397229238E+01 -0.95958325894E+01  0.80357586381E+01  0.13897182195E+02  0.00000000000E+00 0.  1.
</event>
<event>
 8    1  0.1238315E-006  0.9118800E+02  0.7816164E-02  0.1184000E+00
        -11   -1    0    0    0    0  0.00000000000E+00  0.00000000000E+00  0.45593999997E+02  0.45594000000E+02  0.51100000000E-03 0. -1.
         11   -1    0    0    0    0 -0.00000000000E+00 -0.00000000000E+00 -0.45593999997E+02  0.45594000000E+02  0.51100000000E-03 0.  1.
         23    2    1    2    0    0 -0.17763568394E-14  0.00000000000E+00  0.44408920985E-14  0.91188000000E+02  0.91188000000E+02 0.  0.
    9900012    2    3    3    0    0  0.58255302969E+01 -0.36154844232E+02  0.38300982709E+01  0.54367092658E+02  0.40000019333E+02 0.  0.
         12    1    3    3    0    0 -0.58255302969E+01  0.36154844232E+02 -0.38300982709E+01  0.36820907342E+02  0.00000000000E+00 0. -1.
         11    1    4    4    0    0 -0.72930458927E+01 -0.17855400034E+02  0.13761689467E+02  0.23693626274E+02  0.51100000000E-03 0. -1.
        -11    1    4    4    0    0  0.15301231779E+02 -0.14260655010E+02 -0.13468998840E+02  0.24877859740E+02  0.51100000000E-03 0.  1.
        -12    1    4    4    0    0 -0.21826555893E+01 -0.40387891888E+01  0.35374076436E+01  0.57956066439E+01  0.00000000000E+00 0.  1.
</event>
<event>
 8    1  0.1238315E-006  0.9118800E+02  0.7816164E-02  0.1184000E+00
        -11   -1    0    0    0    0  0.00000000000E+00  0.00000000000E+00  0.45593999997E+02  0.45594000000E+02  0.51100000000E-03 0. -1.
         11   -1    0    0    0    0 -0.00000000000E+00 -0.00000000000E+00 -0.45593999997E+02  0.45594000000E+02  0.51100000000E-03 0.  1.
         23    2    1    2    0    0 -0.35527136788E-14  0.17763568394E-14  0.00000000000E+00  0.91188000000E+02  0.91188000000E+02 0.  0.
    9900012    2    3    3    0    0 -0.27448402538E+02 -0.95231664296E+01  0.22620196607E+02  0.54367098391E+02  0.40000032403E+02 0.  0.
        -12    1    3    3    0    0  0.27448402538E+02  0.95231664296E+01 -0.22620196607E+02  0.36820901609E+02  0.00000000000E+00 0.  1.
         11    1    4    4    0    0 -0.11888500020E+02 -0.14606722183E+02  0.29412227802E+02  0.34925233144E+02  0.51100000000E-03 0. -1.
        -11    1    4    4    0    0 -0.13846113210E+02  0.16263114969E+01 -0.35104980496E+01  0.14376485555E+02  0.51100000000E-03 0.  1.
         12    1    4    4    0    0 -0.17137893082E+01  0.34572442564E+01 -0.32815331453E+01  0.50653796921E+01  0.00000000000E+00 0. -1.
</event>
<event>
 8    1  0.1238315E-006  0.9118800E+02  0.7816164E-02  0.1184000E+00
        -11   -1    0    0    0    0  0.00000000000E+00  0.00000000000E+00  0.45593999997E+02  0.45594000000E+02  0.51100000000E-03 0.  1.
         11   -1    0    0    0    0 -0.00000000000E+00 -0.00000000000E+00 -0.45593999997E+02  0.45594000000E+02  0.51100000000E-03 0. -1.
         23    2    1    2    0    0 -0.17763568394E-14  0.00000000000E+00  0.00000000000E+00  0.91188000000E+02  0.91188000000E+02 0.  0.
    9900012    2    3    3    0    0  0.11816997008E+02 -0.14730740477E+02 -0.31609230706E+02  0.54367087476E+02  0.40000007519E+02 0.  0.
        -12    1    3    3    0    0 -0.11816997008E+02  0.14730740477E+02  0.31609230706E+02  0.36820912524E+02  0.00000000000E+00 0.  1.
         11    1    4    4    0    0  0.19580229866E+01  0.32420980269E+01 -0.14147576921E+02  0.14645783920E+02  0.51100000000E-03 0. -1.
        -11    1    4    4    0    0  0.95776621533E+01  0.20397096327E+01 -0.17097799636E+02  0.19703471277E+02  0.51100000000E-03 0.  1.
        -12    1    4    4    0    0  0.28131186828E+00 -0.20012548137E+02 -0.36385414854E+00  0.20017832279E+02  0.00000000000E+00 0.  1.
</event>
<event>
 8    1  0.1238315E-006  0.9118800E+02  0.7816164E-02  0.1184000E+00
        -11   -1    0    0    0    0  0.00000000000E+00  0.00000000000E+00  0.45593999997E+02  0.45594000000E+02  0.51100000000E-03 0.  1.
         11   -1    0    0    0    0 -0.00000000000E+00 -0.00000000000E+00 -0.45593999997E+02  0.45594000000E+02  0.51100000000E-03 0. -1.
         23    2    1    2    0    0 -0.35527136788E-14 -0.66613381478E-15 -0.71054273576E-14  0.91188000000E+02  0.91188000000E+02 0.  0.
    9900012    2    3    3    0    0  0.27964439396E+02  0.12798235957E+01  0.23919277568E+02  0.54367086669E+02  0.40000005679E+02 0.  0.
         12    1    3    3    0    0 -0.27964439396E+02 -0.12798235957E+01 -0.23919277568E+02  0.36820913331E+02  0.00000000000E+00 0. -1.
         11    1    4    4    0    0 -0.47853447104E+01  0.68473352616E+00 -0.26466886987E+01  0.55112018044E+01  0.51100000000E-03 0. -1.
        -11    1    4    4    0    0  0.26365659302E+01  0.87592954738E+01  0.25892374096E+01  0.95068863318E+01  0.51100000000E-03 0.  1.
        -12    1    4    4    0    0  0.30113218177E+02 -0.81642054043E+01  0.23976728857E+02  0.39348998533E+02  0.00000000000E+00 0.  1.
</event>
<event>
 8    1  0.1238315E-006  0.9118800E+02  0.7816164E-02  0.1184000E+00
        -11   -1    0    0    0    0  0.00000000000E+00  0.00000000000E+00  0.45593999997E+02  0.45594000000E+02  0.51100000000E-03 0. -1.
         11   -1    0    0    0    0 -0.00000000000E+00 -0.00000000000E+00 -0.45593999997E+02  0.45594000000E+02  0.51100000000E-03 0.  1.
         23    2    1    2    0    0 -0.44408920985E-15 -0.17763568394E-14  0.71054273576E-14  0.91188000000E+02  0.91188000000E+02 0.  0.
    9900012    2    3    3    0    0  0.36040572280E+01 -0.12604236047E+02  0.34408040418E+02  0.54367228142E+02  0.40000328194E+02 0.  0.
        -12    1    3    3    0    0 -0.36040572280E+01  0.12604236047E+02 -0.34408040418E+02  0.36820771858E+02  0.00000000000E+00 0.  1.
         11    1    4    4    0    0 -0.10253573045E+02 -0.34086466586E+01  0.28587394905E+01  0.11177075824E+02  0.51100000000E-03 0. -1.
        -11    1    4    4    0    0  0.12614676834E+02  0.61664322311E+01  0.16205151752E+02  0.21442059175E+02  0.51100000000E-03 0.  1.
        -12    1    4    4    0    0  0.12429534392E+01 -0.15362021619E+02  0.15344149175E+02  0.21748093144E+02  0.00000000000E+00 0.  1.
</event>
<event>
 8    1  0.1238315E-006  0.9118800E+02  0.7816164E-02  0.1184000E+00
        -11   -1    0    0    0    0  0.00000000000E+00  0.00000000000E+00  0.45593999997E+02  0.45594000000E+02  0.51100000000E-03 0. -1.
         11   -1    0    0    0    0 -0.00000000000E+00 -0.00000000000E+00 -0.45593999997E+02  0.45594000000E+02  0.51100000000E-03 0.  1.
         23    2    1    2    0    0  0.00000000000E+00  0.00000000000E+00  0.00000000000E+00  0.91188000000E+02  0.91188000000E+02 0.  0.
    9900012    2    3    3    0    0 -0.18117430884E+02  0.21992375549E+02 -0.23321076319E+02  0.54367102607E+02  0.40000042013E+02 0.  0.
         12    1    3    3    0    0  0.18117430884E+02 -0.21992375549E+02  0.23321076319E+02  0.36820897393E+02  0.00000000000E+00 0. -1.
         11    1    4    4    0    0 -0.12657623696E+02 -0.18968181663E+01 -0.24497026244E+02  0.27639060256E+02  0.51100000000E-03 0. -1.
        -11    1    4    4    0    0 -0.30316465616E+01  0.19599817061E+02 -0.32573987465E+01  0.20098615787E+02  0.51100000000E-03 0.  1.
         12    1    4    4    0    0 -0.24281606268E+01  0.42893766550E+01  0.44333486721E+01  0.66294265639E+01  0.00000000000E+00 0. -1.
</event>
<event>
 8    1  0.1238315E-006  0.9118800E+02  0.7816164E-02  0.1184000E+00
        -11   -1    0    0    0    0  0.00000000000E+00  0.00000000000E+00  0.45593999997E+02  0.45594000000E+02  0.51100000000E-03 0.  1.
         11   -1    0    0    0    0 -0.00000000000E+00 -0.00000000000E+00 -0.45593999997E+02  0.45594000000E+02  0.51100000000E-03 0. -1.
         23    2    1    2    0    0  0.00000000000E+00  0.17763568394E-14  0.00000000000E+00  0.91188000000E+02  0.91188000000E+02 0.  0.
    9900012    2    3    3    0    0 -0.33591413184E+02  0.13497000395E+02  0.67252018449E+01  0.54367076611E+02  0.39999982751E+02 0.  0.
        -12    1    3    3    0    0  0.33591413184E+02 -0.13497000395E+02 -0.67252018449E+01  0.36820923389E+02  0.00000000000E+00 0.  1.
         11    1    4    4    0    0 -0.82559533094E+01  0.41818967456E+01  0.31345377763E+01  0.97710978283E+01  0.51100000000E-03 0. -1.
        -11    1    4    4    0    0  0.35416133148E+01  0.11813284033E+01  0.12704302448E+02  0.13241520404E+02  0.51100000000E-03 0.  1.
        -12    1    4    4    0    0 -0.28877073189E+02  0.81337752463E+01 -0.91136383794E+01  0.31354458379E+02  0.00000000000E+00 0.  1.
</event>
<event>
 8    1  0.1238315E-006  0.9118800E+02  0.7816164E-02  0.1184000E+00
        -11   -1    0    0    0    0  0.00000000000E+00  0.00000000000E+00  0.45593999997E+02  0.45594000000E+02  0.51100000000E-03 0. -1.
         11   -1    0    0    0    0 -0.00000000000E+00 -0.00000000000E+00 -0.45593999997E+02  0.45594000000E+02  0.51100000000E-03 0.  1.
         23    2    1    2    0    0  0.00000000000E+00  0.00000000000E+00 -0.71054273576E-14  0.91188000000E+02  0.91188000000E+02 0.  0.
    9900012    2    3    3    0    0  0.33304120446E+01 -0.82529508819E+01  0.35729192164E+02  0.54367108982E+02  0.40000056546E+02 0.  0.
        -12    1    3    3    0    0 -0.33304120446E+01  0.82529508819E+01 -0.35729192164E+02  0.36820891018E+02  0.00000000000E+00 0.  1.
         11    1    4    4    0    0 -0.93542113369E+01 -0.38723557785E+01 -0.24671564668E+01  0.10420329664E+02  0.51100000000E-03 0. -1.
        -11    1    4    4    0    0 -0.92420259617E+00  0.31932575017E+01  0.18701075894E+02  0.18994243438E+02  0.51100000000E-03 0.  1.
        -12    1    4    4    0    0  0.13608825978E+02 -0.75738526051E+01  0.19495272737E+02  0.24952535880E+02  0.00000000000E+00 0.  1.
</event>
<event>
 8    1  0.1238315E-006  0.9118800E+02  0.7816164E-02  0.1184000E+00
        -11   -1    0    0    0    0  0.00000000000E+00  0.00000000000E+00  0.45593999997E+02  0.45594000000E+02  0.51100000000E-03 0.  1.
         11   -1    0    0    0    0 -0.00000000000E+00 -0.00000000000E+00 -0.45593999997E+02  0.45594000000E+02  0.51100000000E-03 0. -1.
         23    2    1    2    0    0  0.00000000000E+00  0.71054273576E-14  0.88817841970E-15  0.91188000000E+02  0.91188000000E+02 0.  0.
    9900012    2    3    3    0    0  0.47881105849E+01 -0.36452720515E+02 -0.20131727884E+01  0.54367086098E+02  0.40000004377E+02 0.  0.
         12    1    3    3    0    0 -0.47881105849E+01  0.36452720515E+02  0.20131727884E+01  0.36820913902E+02  0.00000000000E+00 0. -1.
         11    1    4    4    0    0 -0.87304638853E+01 -0.28431335492E+01  0.10551483439E+02  0.13987072998E+02  0.51100000000E-03 0. -1.
        -11    1    4    4    0    0  0.37789630584E+01 -0.14769807566E+02  0.87692752332E+00  0.15270781888E+02  0.51100000000E-03 0.  1.
         12    1    4    4    0    0  0.97396114118E+01 -0.18839779399E+02 -0.13441583751E+02  0.25109231211E+02  0.00000000000E+00 0. -1.
</event>
<event>
 8    1  0.1238315E-006  0.9118800E+02  0.7816164E-02  0.1184000E+00
        -11   -1    0    0    0    0  0.00000000000E+00  0.00000000000E+00  0.45593999997E+02  0.45594000000E+02  0.51100000000E-03 0.  1.
         11   -1    0    0    0    0 -0.00000000000E+00 -0.00000000000E+00 -0.45593999997E+02  0.45594000000E+02  0.51100000000E-03 0. -1.
         23    2    1    2    0    0  0.22204460493E-14 -0.53290705182E-14 -0.71054273576E-14  0.91188000000E+02  0.91188000000E+02 0.  0.
    9900012    2    3    3    0    0 -0.24361562441E+01  0.12854493856E+02  0.34418176030E+02  0.54367031642E+02  0.39999880235E+02 0.  0.
         12    1    3    3    0    0  0.24361562441E+01 -0.12854493856E+02 -0.34418176030E+02  0.36820968358E+02  0.00000000000E+00 0. -1.
         11    1    4    4    0    0  0.82281141786E+01 -0.59849235718E+01  0.53729057994E+01  0.11506054497E+02  0.51100000000E-03 0. -1.
        -11    1    4    4    0    0 -0.65502285994E+01  0.21478511666E+02  0.12693899190E+02  0.25794709438E+02  0.51100000000E-03 0.  1.
         12    1    4    4    0    0 -0.41140418233E+01 -0.26390942389E+01  0.16351371041E+02  0.17066267707E+02  0.00000000000E+00 0. -1.
</event>
<event>
 8    1  0.1238315E-006  0.9118800E+02  0.7816164E-02  0.1184000E+00
        -11   -1    0    0    0    0  0.00000000000E+00  0.00000000000E+00  0.45593999997E+02  0.45594000000E+02  0.51100000000E-03 0.  1.
         11   -1    0    0    0    0 -0.00000000000E+00 -0.00000000000E+00 -0.45593999997E+02  0.45594000000E+02  0.51100000000E-03 0. -1.
         23    2    1    2    0    0  0.17763568394E-14 -0.35527136788E-14  0.35527136788E-14  0.91188000000E+02  0.91188000000E+02 0.  0.
    9900012    2    3    3    0    0  0.90247213892E+01 -0.21073150822E+02 -0.28814162594E+02  0.54367092247E+02  0.40000018396E+02 0.  0.
        -12    1    3    3    0    0 -0.90247213892E+01  0.21073150822E+02  0.28814162594E+02  0.36820907753E+02  0.00000000000E+00 0.  1.
         11    1    4    4    0    0  0.75216423117E+01 -0.10088127451E+01  0.54656985543E+01  0.93523615824E+01  0.51100000000E-03 0.  1.
        -11    1    4    4    0    0 -0.26879798520E+01 -0.14540480693E+02 -0.61022062081E+01  0.15996491344E+02  0.51100000000E-03 0. -1.
         12    1    4    4    0    0  0.41910589295E+01 -0.55238573847E+01 -0.28177654940E+02  0.29018239321E+02  0.00000000000E+00 0. -1.
</event>
<event>
 8    1  0.1238315E-006  0.9118800E+02  0.7816164E-02  0.1184000E+00
        -11   -1    0    0    0    0  0.00000000000E+00  0.00000000000E+00  0.45593999997E+02  0.45594000000E+02  0.51100000000E-03 0.  1.
         11   -1    0    0    0    0 -0.00000000000E+00 -0.00000000000E+00 -0.45593999997E+02  0.45594000000E+02  0.51100000000E-03 0. -1.
         23    2    1    2    0    0  0.00000000000E+00  0.00000000000E+00  0.88817841970E-15  0.91188000000E+02  0.91188000000E+02 0.  0.
    9900012    2    3    3    0    0 -0.35863190459E+02  0.43387219865E+01 -0.71264084812E+01  0.54367100551E+02  0.40000037326E+02 0.  0.
         12    1    3    3    0    0  0.35863190459E+02 -0.43387219865E+01  0.71264084812E+01  0.36820899449E+02  0.00000000000E+00 0. -1.
         11    1    4    4    0    0  0.55265143975E+01  0.53779736895E+00 -0.85426569497E+01  0.10188649342E+02  0.51100000000E-03 0. -1.
        -11    1    4    4    0    0 -0.20521940301E+02 -0.37749085494E+01 -0.41863204286E+01  0.21282040486E+02  0.51100000000E-03 0.  1.
         12    1    4    4    0    0 -0.20867764556E+02  0.75758331670E+01  0.56025688970E+01  0.22896410723E+02  0.00000000000E+00 0. -1.
</event>
<event>
 8    1  0.1238315E-006  0.9118800E+02  0.7816164E-02  0.1184000E+00
        -11   -1    0    0    0    0  0.00000000000E+00  0.00000000000E+00  0.45593999997E+02  0.45594000000E+02  0.51100000000E-03 0.  1.
         11   -1    0    0    0    0 -0.00000000000E+00 -0.00000000000E+00 -0.45593999997E+02  0.45594000000E+02  0.51100000000E-03 0. -1.
         23    2    1    2    0    0 -0.66613381478E-15  0.00000000000E+00  0.00000000000E+00  0.91188000000E+02  0.91188000000E+02 0.  0.
    9900012    2    3    3    0    0 -0.19244465178E+01 -0.60738240802E+01 -0.36265503035E+02  0.54367061069E+02  0.39999947320E+02 0.  0.
        -12    1    3    3    0    0  0.19244465178E+01  0.60738240802E+01  0.36265503035E+02  0.36820938931E+02  0.00000000000E+00 0.  1.
         11    1    4    4    0    0 -0.22684029368E+01  0.64733698893E+01 -0.15645608147E+02  0.17083185422E+02  0.51100000000E-03 0. -1.
        -11    1    4    4    0    0 -0.10208504129E+02 -0.15017494871E+02 -0.19075669379E+02  0.26336664012E+02  0.51100000000E-03 0.  1.
        -12    1    4    4    0    0  0.10552460548E+02  0.24703009018E+01 -0.15442255085E+01  0.10947211635E+02  0.00000000000E+00 0.  1.
</event>
<event>
 8    1  0.1238315E-006  0.9118800E+02  0.7816164E-02  0.1184000E+00
        -11   -1    0    0    0    0  0.00000000000E+00  0.00000000000E+00  0.45593999997E+02  0.45594000000E+02  0.51100000000E-03 0.  1.
         11   -1    0    0    0    0 -0.00000000000E+00 -0.00000000000E+00 -0.45593999997E+02  0.45594000000E+02  0.51100000000E-03 0. -1.
         23    2    1    2    0    0  0.35527136788E-14  0.35527136788E-14 -0.17763568394E-14  0.91188000000E+02  0.91188000000E+02 0.  0.
    9900012    2    3    3    0    0 -0.28240236735E+02 -0.23563373758E+02  0.17423139323E+01  0.54367092739E+02  0.40000019517E+02 0.  0.
         12    1    3    3    0    0  0.28240236735E+02  0.23563373758E+02 -0.17423139323E+01  0.36820907261E+02  0.00000000000E+00 0. -1.
         11    1    4    4    0    0 -0.62347007968E+01 -0.10229133602E+01 -0.84504821667E+01  0.10551231913E+02  0.51100000000E-03 0. -1.
        -11    1    4    4    0    0 -0.13587626757E+02 -0.25976200668E+02  0.15630329366E+02  0.33221887340E+02  0.51100000000E-03 0.  1.
         12    1    4    4    0    0 -0.84179091813E+01  0.34357402708E+01 -0.54375332675E+01  0.10593973486E+02  0.00000000000E+00 0. -1.
</event>
<event>
 8    1  0.1238315E-006  0.9118800E+02  0.7816164E-02  0.1184000E+00
        -11   -1    0    0    0    0  0.00000000000E+00  0.00000000000E+00  0.45593999997E+02  0.45594000000E+02  0.51100000000E-03 0.  1.
         11   -1    0    0    0    0 -0.00000000000E+00 -0.00000000000E+00 -0.45593999997E+02  0.45594000000E+02  0.51100000000E-03 0. -1.
         23    2    1    2    0    0 -0.88817841970E-15  0.00000000000E+00  0.00000000000E+00  0.91188000000E+02  0.91188000000E+02 0.  0.
    9900012    2    3    3    0    0  0.41743673265E+01  0.26409855033E+02  0.25315489747E+02  0.54367084658E+02  0.40000001096E+02 0.  0.
         12    1    3    3    0    0 -0.41743673265E+01 -0.26409855033E+02 -0.25315489747E+02  0.36820915342E+02  0.00000000000E+00 0. -1.
         11    1    4    4    0    0 -0.34501611470E+01  0.44343519867E+01  0.13777071520E+01  0.57849085334E+01  0.51100000000E-03 0. -1.
        -11    1    4    4    0    0 -0.10626809538E+01  0.16305462733E+02  0.31674597125E+02  0.35640952695E+02  0.51100000000E-03 0.  1.
         12    1    4    4    0    0  0.86872094273E+01  0.56700403135E+01 -0.77368145298E+01  0.12941223430E+02  0.00000000000E+00 0. -1.
</event>
<event>
 8    1  0.1238315E-006  0.9118800E+02  0.7816164E-02  0.1184000E+00
        -11   -1    0    0    0    0  0.00000000000E+00  0.00000000000E+00  0.45593999997E+02  0.45594000000E+02  0.51100000000E-03 0. -1.
         11   -1    0    0    0    0 -0.00000000000E+00 -0.00000000000E+00 -0.45593999997E+02  0.45594000000E+02  0.51100000000E-03 0.  1.
         23    2    1    2    0    0  0.00000000000E+00  0.35527136788E-14  0.00000000000E+00  0.91188000000E+02  0.91188000000E+02 0.  0.
    9900012    2    3    3    0    0 -0.16371627597E+02 -0.23338524446E+02  0.23303709601E+02  0.54367084820E+02  0.40000001464E+02 0.  0.
        -12    1    3    3    0    0  0.16371627597E+02  0.23338524446E+02 -0.23303709601E+02  0.36820915180E+02  0.00000000000E+00 0.  1.
         11    1    4    4    0    0 -0.86432234956E-01 -0.26405679911E+02  0.10189086732E+02  0.28303443091E+02  0.51100000000E-03 0. -1.
        -11    1    4    4    0    0 -0.14021767425E+02 -0.24173907077E+01  0.33179792697E+01  0.14610363659E+02  0.51100000000E-03 0.  1.
        -12    1    4    4    0    0 -0.22634279372E+01  0.54845461726E+01  0.97966435992E+01  0.11453278070E+02  0.00000000000E+00 0.  1.
</event>
<event>
 8    1  0.1238315E-006  0.9118800E+02  0.7816164E-02  0.1184000E+00
        -11   -1    0    0    0    0  0.00000000000E+00  0.00000000000E+00  0.45593999997E+02  0.45594000000E+02  0.51100000000E-03 0.  1.
         11   -1    0    0    0    0 -0.00000000000E+00 -0.00000000000E+00 -0.45593999997E+02  0.45594000000E+02  0.51100000000E-03 0. -1.
         23    2    1    2    0    0  0.88817841970E-15 -0.71054273576E-14 -0.17763568394E-14  0.91188000000E+02  0.91188000000E+02 0.  0.
    9900012    2    3    3    0    0 -0.49793650437E+01  0.33608937556E+02  0.14192415144E+02  0.54367090078E+02  0.40000013451E+02 0.  0.
         12    1    3    3    0    0  0.49793650437E+01 -0.33608937556E+02 -0.14192415144E+02  0.36820909922E+02  0.00000000000E+00 0. -1.
         11    1    4    4    0    0 -0.59596497257E+01  0.26805343843E+02  0.12397888784E+02  0.30128915181E+02  0.51100000000E-03 0.  1.
        -11    1    4    4    0    0  0.29535726528E+01  0.12887381240E+02  0.78951482279E+01  0.15399401042E+02  0.51100000000E-03 0. -1.
         12    1    4    4    0    0 -0.19732879708E+01 -0.60837875278E+01 -0.61006218678E+01  0.88387738557E+01  0.00000000000E+00 0. -1.
</event>
<event>
 8    1  0.1238315E-006  0.9118800E+02  0.7816164E-02  0.1184000E+00
        -11   -1    0    0    0    0  0.00000000000E+00  0.00000000000E+00  0.45593999997E+02  0.45594000000E+02  0.51100000000E-03 0. -1.
         11   -1    0    0    0    0 -0.00000000000E+00 -0.00000000000E+00 -0.45593999997E+02  0.45594000000E+02  0.51100000000E-03 0.  1.
         23    2    1    2    0    0  0.00000000000E+00  0.35527136788E-14  0.00000000000E+00  0.91188000000E+02  0.91188000000E+02 0.  0.
    9900012    2    3    3    0    0 -0.23787798903E+02  0.26554199881E+02 -0.92082928790E+01  0.54367115087E+02  0.40000070465E+02 0.  0.
         12    1    3    3    0    0  0.23787798903E+02 -0.26554199881E+02  0.92082928790E+01  0.36820884913E+02  0.00000000000E+00 0. -1.
         11    1    4    4    0    0  0.71551262744E+01  0.97794310953E+01 -0.17100611650E+01  0.12237541175E+02  0.51100000000E-03 0. -1.
        -11    1    4    4    0    0 -0.24761647766E+01 -0.19596232498E+01 -0.74059902555E+01  0.80510997515E+01  0.51100000000E-03 0.  1.
         12    1    4    4    0    0 -0.28466760401E+02  0.18734392036E+02 -0.92241458566E-01  0.34078474161E+02  0.00000000000E+00 0. -1.
</event>
<event>
 8    1  0.1238315E-006  0.9118800E+02  0.7816164E-02  0.1184000E+00
        -11   -1    0    0    0    0  0.00000000000E+00  0.00000000000E+00  0.45593999997E+02  0.45594000000E+02  0.51100000000E-03 0.  1.
         11   -1    0    0    0    0 -0.00000000000E+00 -0.00000000000E+00 -0.45593999997E+02  0.45594000000E+02  0.51100000000E-03 0. -1.
         23    2    1    2    0    0 -0.17763568394E-14 -0.71054273576E-14  0.00000000000E+00  0.91188000000E+02  0.91188000000E+02 0.  0.
    9900012    2    3    3    0    0  0.10578618244E+02 -0.27288865088E+02  0.22342585005E+02  0.54367076241E+02  0.39999981907E+02 0.  0.
         12    1    3    3    0    0 -0.10578618244E+02  0.27288865088E+02 -0.22342585005E+02  0.36820923759E+02  0.00000000000E+00 0. -1.
         11    1    4    4    0    0  0.10976706425E+02  0.23723647199E+01  0.18229843945E+02  0.21411291619E+02  0.51100000000E-03 0. -1.
        -11    1    4    4    0    0 -0.53449438416E+01 -0.20401762854E+02  0.67269707228E+01  0.22137129163E+02  0.51100000000E-03 0.  1.
         12    1    4    4    0    0  0.49468556609E+01 -0.92594669537E+01 -0.26142296626E+01  0.10818655458E+02  0.00000000000E+00 0. -1.
</event>
<event>
 8    1  0.1238315E-006  0.9118800E+02  0.7816164E-02  0.1184000E+00
        -11   -1    0    0    0    0  0.00000000000E+00  0.00000000000E+00  0.45593999997E+02  0.45594000000E+02  0.51100000000E-03 0.  1.
         11   -1    0    0    0    0 -0.00000000000E+00 -0.00000000000E+00 -0.45593999997E+02  0.45594000000E+02  0.51100000000E-03 0. -1.
         23    2    1    2    0    0 -0.35527136788E-14  0.35527136788E-14  0.00000000000E+00  0.91188000000E+02  0.91188000000E+02 0.  0.
    9900012    2    3    3    0    0  0.64895142585E+01 -0.27433441091E+02  0.23686977457E+02  0.54367076784E+02  0.39999983145E+02 0.  0.
         12    1    3    3    0    0 -0.64895142585E+01  0.27433441091E+02 -0.23686977457E+02  0.36820923216E+02  0.00000000000E+00 0. -1.
         11    1    4    4    0    0  0.45135098614E+01 -0.15044976089E+02 -0.27428541054E+01  0.15945103502E+02  0.51100000000E-03 0.  1.
        -11    1    4    4    0    0 -0.90688496247E+01  0.12853885429E+01  0.41838976927E+01  0.10069819134E+02  0.51100000000E-03 0. -1.
        -12    1    4    4    0    0  0.11044854022E+02 -0.13673853545E+02  0.22245933870E+02  0.28352154149E+02  0.00000000000E+00 0.  1.
</event>
<event>
 8    1  0.1238315E-006  0.9118800E+02  0.7816164E-02  0.1184000E+00
        -11   -1    0    0    0    0  0.00000000000E+00  0.00000000000E+00  0.45593999997E+02  0.45594000000E+02  0.51100000000E-03 0.  1.
         11   -1    0    0    0    0 -0.00000000000E+00 -0.00000000000E+00 -0.45593999997E+02  0.45594000000E+02  0.51100000000E-03 0. -1.
         23    2    1    2    0    0 -0.35527136788E-14 -0.17763568394E-14  0.35527136788E-14  0.91188000000E+02  0.91188000000E+02 0.  0.
    9900012    2    3    3    0    0  0.30333009010E+02 -0.48432680252E+00 -0.20867542735E+02  0.54367077309E+02  0.39999984340E+02 0.  0.
        -12    1    3    3    0    0 -0.30333009010E+02  0.48432680252E+00  0.20867542735E+02  0.36820922691E+02  0.00000000000E+00 0.  1.
         11    1    4    4    0    0  0.39826849841E+00 -0.68765184042E+01 -0.53837468104E+01  0.87424168935E+01  0.51100000000E-03 0.  1.
        -11    1    4    4    0    0 -0.25403200630E+00 -0.85117505839E+01  0.12173897330E+00  0.85164106819E+01  0.51100000000E-03 0. -1.
         12    1    4    4    0    0  0.30188772518E+02  0.14903942186E+02 -0.15605534898E+02  0.37108249733E+02  0.00000000000E+00 0. -1.
</event>
<event>
 8    1  0.1238315E-006  0.9118800E+02  0.7816164E-02  0.1184000E+00
        -11   -1    0    0    0    0  0.00000000000E+00  0.00000000000E+00  0.45593999997E+02  0.45594000000E+02  0.51100000000E-03 0. -1.
         11   -1    0    0    0    0 -0.00000000000E+00 -0.00000000000E+00 -0.45593999997E+02  0.45594000000E+02  0.51100000000E-03 0.  1.
         23    2    1    2    0    0  0.66613381478E-15 -0.35527136788E-14  0.00000000000E+00  0.91188000000E+02  0.91188000000E+02 0.  0.
    9900012    2    3    3    0    0 -0.78413588222E+00 -0.17388206235E+02 -0.32447104810E+02  0.54367092954E+02  0.40000020007E+02 0.  0.
         12    1    3    3    0    0  0.78413588222E+00  0.17388206235E+02  0.32447104810E+02  0.36820907046E+02  0.00000000000E+00 0. -1.
         11    1    4    4    0    0  0.14576030136E+01 -0.20603674144E+02 -0.78259268846E+01  0.22088031299E+02  0.51100000000E-03 0. -1.
        -11    1    4    4    0    0  0.87752001599E+01  0.37061400636E+00 -0.14981849221E+02  0.17366556911E+02  0.51100000000E-03 0.  1.
         12    1    4    4    0    0 -0.11016939056E+02  0.28448539027E+01 -0.96393287037E+01  0.14912504744E+02  0.00000000000E+00 0. -1.
</event>
<event>
 8    1  0.1238315E-006  0.9118800E+02  0.7816164E-02  0.1184000E+00
        -11   -1    0    0    0    0  0.00000000000E+00  0.00000000000E+00  0.45593999997E+02  0.45594000000E+02  0.51100000000E-03 0. -1.
         11   -1    0    0    0    0 -0.00000000000E+00 -0.00000000000E+00 -0.45593999997E+02  0.45594000000E+02  0.51100000000E-03 0.  1.
         23    2    1    2    0    0 -0.35527136788E-14 -0.22204460493E-15 -0.35527136788E-14  0.91188000000E+02  0.91188000000E+02 0.  0.
    9900012    2    3    3    0    0 -0.29003053020E+02 -0.13104819693E+01 -0.22646971278E+02  0.54367085352E+02  0.40000002677E+02 0.  0.
        -12    1    3    3    0    0  0.29003053020E+02  0.13104819693E+01  0.22646971278E+02  0.36820914648E+02  0.00000000000E+00 0.  1.
         11    1    4    4    0    0 -0.13801739441E+02 -0.40230808427E+01  0.65623748677E+01  0.15803099545E+02  0.51100000000E-03 0. -1.
        -11    1    4    4    0    0 -0.19165439072E+02  0.46861266027E+01 -0.18803865288E+02  0.27255443261E+02  0.51100000000E-03 0.  1.
        -12    1    4    4    0    0  0.39641254934E+01 -0.19735277293E+01 -0.10405480858E+02  0.11308542546E+02  0.00000000000E+00 0.  1.
</event>
<event>
 8    1  0.1238315E-006  0.9118800E+02  0.7816164E-02  0.1184000E+00
        -11   -1    0    0    0    0  0.00000000000E+00  0.00000000000E+00  0.45593999997E+02  0.45594000000E+02  0.51100000000E-03 0. -1.
         11   -1    0    0    0    0 -0.00000000000E+00 -0.00000000000E+00 -0.45593999997E+02  0.45594000000E+02  0.51100000000E-03 0.  1.
         23    2    1    2    0    0  0.00000000000E+00  0.53290705182E-14  0.35527136788E-14  0.91188000000E+02  0.91188000000E+02 0.  0.
    9900012    2    3    3    0    0  0.21144512124E+02 -0.13754541025E+02  0.26823521174E+02  0.54367094525E+02  0.40000023590E+02 0.  0.
        -12    1    3    3    0    0 -0.21144512124E+02  0.13754541025E+02 -0.26823521174E+02  0.36820905475E+02  0.00000000000E+00 0.  1.
         11    1    4    4    0    0 -0.47666509617E+01 -0.74656486453E+01  0.54280823732E+01  0.10388500835E+02  0.51100000000E-03 0. -1.
        -11    1    4    4    0    0 -0.15435896275E+01  0.71952170357E+01  0.70624834863E+01  0.10199631875E+02  0.51100000000E-03 0.  1.
        -12    1    4    4    0    0  0.27454752714E+02 -0.13484109415E+02  0.14332955315E+02  0.33778961816E+02  0.00000000000E+00 0.  1.
</event>
<event>
 8    1  0.1238315E-006  0.9118800E+02  0.7816164E-02  0.1184000E+00
        -11   -1    0    0    0    0  0.00000000000E+00  0.00000000000E+00  0.45593999997E+02  0.45594000000E+02  0.51100000000E-03 0.  1.
         11   -1    0    0    0    0 -0.00000000000E+00 -0.00000000000E+00 -0.45593999997E+02  0.45594000000E+02  0.51100000000E-03 0. -1.
         23    2    1    2    0    0  0.00000000000E+00  0.00000000000E+00  0.00000000000E+00  0.91188000000E+02  0.91188000000E+02 0.  0.
    9900012    2    3    3    0    0 -0.33089286777E+02  0.29713138819E+01  0.15876087308E+02  0.54367085375E+02  0.40000002730E+02 0.  0.
         12    1    3    3    0    0  0.33089286777E+02 -0.29713138819E+01 -0.15876087308E+02  0.36820914625E+02  0.00000000000E+00 0. -1.
         11    1    4    4    0    0 -0.18535538085E+02  0.55915061260E+00 -0.11577462729E+01  0.18580075301E+02  0.51100000000E-03 0. -1.
        -11    1    4    4    0    0 -0.15646525243E+02 -0.53573584948E+01  0.21212468899E+02  0.26897655646E+02  0.51100000000E-03 0.  1.
         12    1    4    4    0    0  0.10927765507E+01  0.77695217641E+01 -0.41786353178E+01  0.88893544283E+01  0.00000000000E+00 0. -1.
</event>
<event>
 8    1  0.1238315E-006  0.9118800E+02  0.7816164E-02  0.1184000E+00
        -11   -1    0    0    0    0  0.00000000000E+00  0.00000000000E+00  0.45593999997E+02  0.45594000000E+02  0.51100000000E-03 0.  1.
         11   -1    0    0    0    0 -0.00000000000E+00 -0.00000000000E+00 -0.45593999997E+02  0.45594000000E+02  0.51100000000E-03 0. -1.
         23    2    1    2    0    0  0.00000000000E+00 -0.88817841970E-15  0.00000000000E+00  0.91188000000E+02  0.91188000000E+02 0.  0.
    9900012    2    3    3    0    0  0.59450449663E+01 -0.79043205899E+01  0.35467713222E+02  0.54367074905E+02  0.39999978862E+02 0.  0.
         12    1    3    3    0    0 -0.59450449663E+01  0.79043205899E+01 -0.35467713222E+02  0.36820925095E+02  0.00000000000E+00 0. -1.
         11    1    4    4    0    0  0.11880765815E+01 -0.39889587062E+00 -0.54298439783E+01  0.55725981166E+01  0.51100000000E-03 0. -1.
        -11    1    4    4    0    0  0.10749822112E+02  0.56361532642E+01  0.19879410471E+02  0.23291969861E+02  0.51100000000E-03 0.  1.
        -12    1    4    4    0    0 -0.59928537271E+01 -0.13141577984E+02  0.21018146729E+02  0.25502506928E+02  0.00000000000E+00 0.  1.
</event>
<event>
 8    1  0.1238315E-006  0.9118800E+02  0.7816164E-02  0.1184000E+00
        -11   -1    0    0    0    0  0.00000000000E+00  0.00000000000E+00  0.45593999997E+02  0.45594000000E+02  0.51100000000E-03 0.  1.
         11   -1    0    0    0    0 -0.00000000000E+00 -0.00000000000E+00 -0.45593999997E+02  0.45594000000E+02  0.51100000000E-03 0. -1.
         23    2    1    2    0    0 -0.17763568394E-14  0.00000000000E+00 -0.17763568394E-14  0.91188000000E+02  0.91188000000E+02 0.  0.
    9900012    2    3    3    0    0  0.10068243638E+02 -0.33770385709E+02  0.10675695071E+02  0.54367096343E+02  0.40000027733E+02 0.  0.
         12    1    3    3    0    0 -0.10068243638E+02  0.33770385709E+02 -0.10675695071E+02  0.36820903657E+02  0.00000000000E+00 0. -1.
         11    1    4    4    0    0 -0.38638969857E+01 -0.75780293473E+01 -0.34424761735E+01  0.91764301976E+01  0.51100000000E-03 0. -1.
        -11    1    4    4    0    0 -0.90312121614E+01 -0.14368659356E+02  0.38946715476E+01  0.17412341357E+02  0.51100000000E-03 0.  1.
        -12    1    4    4    0    0  0.22963352785E+02 -0.11823697005E+02  0.10223499696E+02  0.27778324789E+02  0.00000000000E+00 0.  1.
</event>
<event>
 8    1  0.1238315E-006  0.9118800E+02  0.7816164E-02  0.1184000E+00
        -11   -1    0    0    0    0  0.00000000000E+00  0.00000000000E+00  0.45593999997E+02  0.45594000000E+02  0.51100000000E-03 0. -1.
         11   -1    0    0    0    0 -0.00000000000E+00 -0.00000000000E+00 -0.45593999997E+02  0.45594000000E+02  0.51100000000E-03 0.  1.
         23    2    1    2    0    0 -0.35527136788E-14 -0.17763568394E-14  0.00000000000E+00  0.91188000000E+02  0.91188000000E+02 0.  0.
    9900012    2    3    3    0    0 -0.30561366812E+02 -0.63270494305E+01  0.19538405764E+02  0.54367109249E+02  0.40000057155E+02 0.  0.
        -12    1    3    3    0    0  0.30561366812E+02  0.63270494305E+01 -0.19538405764E+02  0.36820890751E+02  0.00000000000E+00 0.  1.
         11    1    4    4    0    0 -0.11734453163E+02  0.76048023844E+01  0.11577473205E+02  0.18154015986E+02  0.51100000000E-03 0. -1.
        -11    1    4    4    0    0  0.67484279472E+01 -0.40507426262E+01  0.24854216569E+01  0.82539152319E+01  0.51100000000E-03 0.  1.
         12    1    4    4    0    0 -0.25575341596E+02 -0.98811091887E+01  0.54755109029E+01  0.27959178031E+02  0.00000000000E+00 0. -1.
</event>
<event>
 8    1  0.1238315E-006  0.9118800E+02  0.7816164E-02  0.1184000E+00
        -11   -1    0    0    0    0  0.00000000000E+00  0.00000000000E+00  0.45593999997E+02  0.45594000000E+02  0.51100000000E-03 0. -1.
         11   -1    0    0    0    0 -0.00000000000E+00 -0.00000000000E+00 -0.45593999997E+02  0.45594000000E+02  0.51100000000E-03 0.  1.
         23    2    1    2    0    0  0.00000000000E+00  0.00000000000E+00  0.00000000000E+00  0.91188000000E+02  0.91188000000E+02 0.  0.
    9900012    2    3    3    0    0 -0.29035101590E+02 -0.33159266651E+01  0.22399695755E+02  0.54367097459E+02  0.40000030278E+02 0.  0.
        -12    1    3    3    0    0  0.29035101590E+02  0.33159266651E+01 -0.22399695755E+02  0.36820902541E+02  0.00000000000E+00 0.  1.
         11    1    4    4    0    0 -0.73705106765E+01  0.10070530358E+02  0.13852239640E+02  0.18644692345E+02  0.51100000000E-03 0. -1.
        -11    1    4    4    0    0 -0.23196370863E+02 -0.21324018669E+01  0.64715851125E+01  0.24176438386E+02  0.51100000000E-03 0.  1.
        -12    1    4    4    0    0  0.15317799493E+01 -0.11254055156E+02  0.20758710026E+01  0.11545966728E+02  0.00000000000E+00 0.  1.
</event>
<event>
 8    1  0.1238315E-006  0.9118800E+02  0.7816164E-02  0.1184000E+00
        -11   -1    0    0    0    0  0.00000000000E+00  0.00000000000E+00  0.45593999997E+02  0.45594000000E+02  0.51100000000E-03 0.  1.
         11   -1    0    0    0    0 -0.00000000000E+00 -0.00000000000E+00 -0.45593999997E+02  0.45594000000E+02  0.51100000000E-03 0. -1.
         23    2    1    2    0    0 -0.77715611724E-15 -0.35527136788E-14 -0.71054273576E-14  0.91188000000E+02  0.91188000000E+02 0.  0.
    9900012    2    3    3    0    0 -0.82132448538E+00 -0.17598614013E+02 -0.32332547144E+02  0.54367090262E+02  0.40000013870E+02 0.  0.
        -12    1    3    3    0    0  0.82132448538E+00  0.17598614013E+02  0.32332547144E+02  0.36820909738E+02  0.00000000000E+00 0.  1.
         11    1    4    4    0    0 -0.11573809766E+02 -0.52970139411E+01  0.31274200730E+01  0.13106951811E+02  0.51100000000E-03 0. -1.
        -11    1    4    4    0    0  0.81687048572E+01 -0.67726530967E+00 -0.20905533009E+02  0.22455015876E+02  0.51100000000E-03 0.  1.
         12    1    4    4    0    0  0.25837804234E+01 -0.11624334763E+02 -0.14554434209E+02  0.18805122576E+02  0.00000000000E+00 0. -1.
</event>
<event>
 8    1  0.1238315E-006  0.9118800E+02  0.7816164E-02  0.1184000E+00
        -11   -1    0    0    0    0  0.00000000000E+00  0.00000000000E+00  0.45593999997E+02  0.45594000000E+02  0.51100000000E-03 0.  1.
         11   -1    0    0    0    0 -0.00000000000E+00 -0.00000000000E+00 -0.45593999997E+02  0.45594000000E+02  0.51100000000E-03 0. -1.
         23    2    1    2    0    0  0.00000000000E+00  0.00000000000E+00  0.00000000000E+00  0.91188000000E+02  0.91188000000E+02 0.  0.
    9900012    2    3    3    0    0 -0.14071222308E+01  0.29925206075E+02 -0.21407510218E+02  0.54367089564E+02  0.40000012279E+02 0.  0.
         12    1    3    3    0    0  0.14071222308E+01 -0.29925206075E+02  0.21407510218E+02  0.36820910436E+02  0.00000000000E+00 0. -1.
         11    1    4    4    0    0 -0.48711716955E+01 -0.50975295436E+01 -0.69886069285E+00  0.70853036395E+01  0.51100000000E-03 0.  1.
        -11    1    4    4    0    0 -0.12606519271E+01  0.37188812291E+02 -0.17080343814E+02  0.40943072038E+02  0.51100000000E-03 0. -1.
         12    1    4    4    0    0  0.47247013918E+01 -0.21660766722E+01 -0.36283057115E+01  0.63387138859E+01  0.00000000000E+00 0. -1.
</event>
<event>
 8    1  0.1238315E-006  0.9118800E+02  0.7816164E-02  0.1184000E+00
        -11   -1    0    0    0    0  0.00000000000E+00  0.00000000000E+00  0.45593999997E+02  0.45594000000E+02  0.51100000000E-03 0.  1.
         11   -1    0    0    0    0 -0.00000000000E+00 -0.00000000000E+00 -0.45593999997E+02  0.45594000000E+02  0.51100000000E-03 0. -1.
         23    2    1    2    0    0 -0.35527136788E-14  0.00000000000E+00  0.17763568394E-14  0.91188000000E+02  0.91188000000E+02 0.  0.
    9900012    2    3    3    0    0 -0.26068969433E+02  0.21456895468E+02  0.14690252430E+02  0.54366904866E+02  0.39999591220E+02 0.  0.
         12    1    3    3    0    0  0.26068969433E+02 -0.21456895468E+02 -0.14690252430E+02  0.36821095134E+02  0.00000000000E+00 0. -1.
         11    1    4    4    0    0 -0.13691192097E+02  0.46114603999E+01  0.24496749956E+01  0.14653164024E+02  0.51100000000E-03 0. -1.
        -11    1    4    4    0    0  0.36067918815E-01  0.77056962281E+01 -0.10017651499E+02  0.12638528280E+02  0.51100000000E-03 0.  1.
        -12    1    4    4    0    0 -0.12413845255E+02  0.91397388401E+01  0.22258228933E+02  0.27075212563E+02  0.00000000000E+00 0.  1.
</event>
<event>
 8    1  0.1238315E-006  0.9118800E+02  0.7816164E-02  0.1184000E+00
        -11   -1    0    0    0    0  0.00000000000E+00  0.00000000000E+00  0.45593999997E+02  0.45594000000E+02  0.51100000000E-03 0.  1.
         11   -1    0    0    0    0 -0.00000000000E+00 -0.00000000000E+00 -0.45593999997E+02  0.45594000000E+02  0.51100000000E-03 0. -1.
         23    2    1    2    0    0  0.00000000000E+00  0.00000000000E+00  0.27755575616E-15  0.91188000000E+02  0.91188000000E+02 0.  0.
    9900012    2    3    3    0    0  0.24534022239E+02  0.27455758869E+02 -0.20630679443E+00  0.54367088757E+02  0.40000010438E+02 0.  0.
         12    1    3    3    0    0 -0.24534022239E+02 -0.27455758869E+02  0.20630679443E+00  0.36820911243E+02  0.00000000000E+00 0. -1.
         11    1    4    4    0    0 -0.14536092372E+00  0.11760809881E+02 -0.11801699276E+02  0.16661869190E+02  0.51100000000E-03 0. -1.
        -11    1    4    4    0    0  0.13506034117E+02  0.11515487462E+02 -0.38776112826E+01  0.18167423554E+02  0.51100000000E-03 0.  1.
        -12    1    4    4    0    0  0.11173349045E+02  0.41794615271E+01  0.15473003764E+02  0.19537796013E+02  0.00000000000E+00 0.  1.
</event>
<event>
 8    1  0.1238315E-006  0.9118800E+02  0.7816164E-02  0.1184000E+00
        -11   -1    0    0    0    0  0.00000000000E+00  0.00000000000E+00  0.45593999997E+02  0.45594000000E+02  0.51100000000E-03 0. -1.
         11   -1    0    0    0    0 -0.00000000000E+00 -0.00000000000E+00 -0.45593999997E+02  0.45594000000E+02  0.51100000000E-03 0.  1.
         23    2    1    2    0    0 -0.88817841970E-15 -0.16653345369E-14  0.00000000000E+00  0.91188000000E+02  0.91188000000E+02 0.  0.
    9900012    2    3    3    0    0  0.58833259015E+01 -0.52405989052E+00 -0.36344092012E+02  0.54367065919E+02  0.39999958376E+02 0.  0.
         12    1    3    3    0    0 -0.58833259015E+01  0.52405989052E+00  0.36344092012E+02  0.36820934081E+02  0.00000000000E+00 0. -1.
         11    1    4    4    0    0  0.37296654389E+01 -0.96494318433E+01  0.14619646481E+01  0.10447931856E+02  0.51100000000E-03 0. -1.
        -11    1    4    4    0    0 -0.57121574431E+01 -0.39610042835E+01 -0.14122591319E+02  0.15740580784E+02  0.51100000000E-03 0.  1.
         12    1    4    4    0    0  0.78658179057E+01  0.13086376236E+02 -0.23683465341E+02  0.28178553278E+02  0.00000000000E+00 0. -1.
</event>
<event>
 8    1  0.1238315E-006  0.9118800E+02  0.7816164E-02  0.1184000E+00
        -11   -1    0    0    0    0  0.00000000000E+00  0.00000000000E+00  0.45593999997E+02  0.45594000000E+02  0.51100000000E-03 0.  1.
         11   -1    0    0    0    0 -0.00000000000E+00 -0.00000000000E+00 -0.45593999997E+02  0.45594000000E+02  0.51100000000E-03 0. -1.
         23    2    1    2    0    0  0.00000000000E+00  0.13322676296E-14  0.00000000000E+00  0.91188000000E+02  0.91188000000E+02 0.  0.
    9900012    2    3    3    0    0  0.20910704334E+02 -0.20976758087E+01  0.30234442115E+02  0.54367091679E+02  0.40000017101E+02 0.  0.
         12    1    3    3    0    0 -0.20910704334E+02  0.20976758087E+01 -0.30234442115E+02  0.36820908321E+02  0.00000000000E+00 0. -1.
         11    1    4    4    0    0  0.11908470446E+02  0.12246386615E+02  0.48709373442E+01  0.17762648574E+02  0.51100000000E-03 0. -1.
        -11    1    4    4    0    0  0.10015195473E+02 -0.27755639363E+01  0.22287077105E+02  0.24591089884E+02  0.51100000000E-03 0.  1.
         12    1    4    4    0    0 -0.10129615845E+01 -0.11568498488E+02  0.30764276654E+01  0.12013353221E+02  0.00000000000E+00 0. -1.
</event>
<event>
 8    1  0.1238315E-006  0.9118800E+02  0.7816164E-02  0.1184000E+00
        -11   -1    0    0    0    0  0.00000000000E+00  0.00000000000E+00  0.45593999997E+02  0.45594000000E+02  0.51100000000E-03 0. -1.
         11   -1    0    0    0    0 -0.00000000000E+00 -0.00000000000E+00 -0.45593999997E+02  0.45594000000E+02  0.51100000000E-03 0.  1.
         23    2    1    2    0    0  0.71054273576E-14 -0.17763568394E-14  0.35527136788E-14  0.91188000000E+02  0.91188000000E+02 0.  0.
    9900012    2    3    3    0    0 -0.33163840583E+02  0.13387766685E+02 -0.87582430377E+01  0.54367089634E+02  0.40000012439E+02 0.  0.
         12    1    3    3    0    0  0.33163840583E+02 -0.13387766685E+02  0.87582430377E+01  0.36820910366E+02  0.00000000000E+00 0. -1.
         11    1    4    4    0    0  0.73531473956E+00  0.56435931948E+01  0.91001900676E+01  0.10733326206E+02  0.51100000000E-03 0. -1.
        -11    1    4    4    0    0 -0.31729944044E+02  0.35454320280E+01 -0.83276554885E+01  0.32995594910E+02  0.51100000000E-03 0.  1.
         12    1    4    4    0    0 -0.21692112791E+01  0.41987414626E+01 -0.95307776168E+01  0.10638168518E+02  0.00000000000E+00 0. -1.
</event>
<event>
 8    1  0.1238315E-006  0.9118800E+02  0.7816164E-02  0.1184000E+00
        -11   -1    0    0    0    0  0.00000000000E+00  0.00000000000E+00  0.45593999997E+02  0.45594000000E+02  0.51100000000E-03 0. -1.
         11   -1    0    0    0    0 -0.00000000000E+00 -0.00000000000E+00 -0.45593999997E+02  0.45594000000E+02  0.51100000000E-03 0.  1.
         23    2    1    2    0    0  0.00000000000E+00  0.66613381478E-15  0.00000000000E+00  0.91188000000E+02  0.91188000000E+02 0.  0.
    9900012    2    3    3    0    0  0.17672704605E+02  0.54756614807E+00  0.32297923028E+02  0.54367080013E+02  0.39999990506E+02 0.  0.
        -12    1    3    3    0    0 -0.17672704605E+02 -0.54756614807E+00 -0.32297923028E+02  0.36820919987E+02  0.00000000000E+00 0.  1.
         11    1    4    4    0    0  0.23080838647E+01  0.79239123860E+01  0.10478181084E+02  0.13338212689E+02  0.51100000000E-03 0. -1.
        -11    1    4    4    0    0  0.10000389337E+02 -0.13165154571E+02 -0.13151367810E+01  0.16584892728E+02  0.51100000000E-03 0.  1.
        -12    1    4    4    0    0  0.53642314026E+01  0.57888083335E+01  0.23134878725E+02  0.24443974597E+02  0.00000000000E+00 0.  1.
</event>
<event>
 8    1  0.1238315E-006  0.9118800E+02  0.7816164E-02  0.1184000E+00
        -11   -1    0    0    0    0  0.00000000000E+00  0.00000000000E+00  0.45593999997E+02  0.45594000000E+02  0.51100000000E-03 0. -1.
         11   -1    0    0    0    0 -0.00000000000E+00 -0.00000000000E+00 -0.45593999997E+02  0.45594000000E+02  0.51100000000E-03 0.  1.
         23    2    1    2    0    0  0.00000000000E+00  0.00000000000E+00  0.00000000000E+00  0.91188000000E+02  0.91188000000E+02 0.  0.
    9900012    2    3    3    0    0  0.24489480558E+02 -0.15841878571E+02 -0.22474061016E+02  0.54367038670E+02  0.39999896256E+02 0.  0.
         12    1    3    3    0    0 -0.24489480558E+02  0.15841878571E+02  0.22474061016E+02  0.36820961330E+02  0.00000000000E+00 0. -1.
         11    1    4    4    0    0  0.17953440017E+01 -0.34599667546E+01  0.61416828807E+01  0.72742627733E+01  0.51100000000E-03 0. -1.
        -11    1    4    4    0    0  0.20997265507E+02  0.25499042014E+01 -0.22463075961E+02  0.30854123745E+02  0.51100000000E-03 0.  1.
        -12    1    4    4    0    0  0.16968710496E+01 -0.14931816018E+02 -0.61526679362E+01  0.16238652151E+02  0.00000000000E+00 0.  1.
</event>
<event>
 8    1  0.1238315E-006  0.9118800E+02  0.7816164E-02  0.1184000E+00
        -11   -1    0    0    0    0  0.00000000000E+00  0.00000000000E+00  0.45593999997E+02  0.45594000000E+02  0.51100000000E-03 0. -1.
         11   -1    0    0    0    0 -0.00000000000E+00 -0.00000000000E+00 -0.45593999997E+02  0.45594000000E+02  0.51100000000E-03 0.  1.
         23    2    1    2    0    0  0.00000000000E+00  0.71054273576E-14  0.00000000000E+00  0.91188000000E+02  0.91188000000E+02 0.  0.
    9900012    2    3    3    0    0 -0.19491116237E+02  0.30961698783E+02 -0.41532870639E+01  0.54367079355E+02  0.39999989007E+02 0.  0.
         12    1    3    3    0    0  0.19491116237E+02 -0.30961698783E+02  0.41532870639E+01  0.36820920645E+02  0.00000000000E+00 0. -1.
         11    1    4    4    0    0  0.61754467944E+01  0.83949447861E+01 -0.36293570576E+01  0.11035554992E+02  0.51100000000E-03 0. -1.
        -11    1    4    4    0    0 -0.43773163437E+01 -0.57955572589E+01  0.26387469809E+01  0.77273778349E+01  0.51100000000E-03 0.  1.
        -12    1    4    4    0    0 -0.21289246687E+02  0.28362311256E+02 -0.31626769872E+01  0.35604146528E+02  0.00000000000E+00 0.  1.
</event>
<event>
 8    1  0.1238315E-006  0.9118800E+02  0.7816164E-02  0.1184000E+00
        -11   -1    0    0    0    0  0.00000000000E+00  0.00000000000E+00  0.45593999997E+02  0.45594000000E+02  0.51100000000E-03 0. -1.
         11   -1    0    0    0    0 -0.00000000000E+00 -0.00000000000E+00 -0.45593999997E+02  0.45594000000E+02  0.51100000000E-03 0.  1.
         23    2    1    2    0    0  0.17763568394E-14  0.00000000000E+00  0.17763568394E-14  0.91188000000E+02  0.91188000000E+02 0.  0.
    9900012    2    3    3    0    0  0.14975425739E+02 -0.33129135497E+02  0.58289890462E+01  0.54367080564E+02  0.39999991761E+02 0.  0.
         12    1    3    3    0    0 -0.14975425739E+02  0.33129135497E+02 -0.58289890462E+01  0.36820919436E+02  0.00000000000E+00 0. -1.
         11    1    4    4    0    0 -0.21096117420E+01 -0.26083831287E+01  0.74026611360E+01  0.81273314442E+01  0.51100000000E-03 0. -1.
        -11    1    4    4    0    0  0.20724054064E+02 -0.24443923291E+02 -0.11498050331E+02  0.34046981722E+02  0.51100000000E-03 0.  1.
        -12    1    4    4    0    0 -0.36390165833E+01 -0.60768290768E+01  0.99243782415E+01  0.12192767397E+02  0.00000000000E+00 0.  1.
</event>
<event>
 8    1  0.1238315E-006  0.9118800E+02  0.7816164E-02  0.1184000E+00
        -11   -1    0    0    0    0  0.00000000000E+00  0.00000000000E+00  0.45593999997E+02  0.45594000000E+02  0.51100000000E-03 0. -1.
         11   -1    0    0    0    0 -0.00000000000E+00 -0.00000000000E+00 -0.45593999997E+02  0.45594000000E+02  0.51100000000E-03 0.  1.
         23    2    1    2    0    0  0.00000000000E+00  0.00000000000E+00  0.13322676296E-14  0.91188000000E+02  0.91188000000E+02 0.  0.
    9900012    2    3    3    0    0  0.11071744108E+02  0.34889465096E+02 -0.39901495992E+01  0.54367087652E+02  0.40000007921E+02 0.  0.
        -12    1    3    3    0    0 -0.11071744108E+02 -0.34889465096E+02  0.39901495992E+01  0.36820912348E+02  0.00000000000E+00 0.  1.
         11    1    4    4    0    0 -0.51420451533E+00 -0.49074395312E+01  0.62145810123E+01  0.79352622172E+01  0.51100000000E-03 0. -1.
        -11    1    4    4    0    0  0.98033332390E+01  0.86945718144E+01 -0.76517982060E+01  0.15174021803E+02  0.51100000000E-03 0.  1.
         12    1    4    4    0    0  0.17826153847E+01  0.31102332813E+02 -0.25529324054E+01  0.31257803632E+02  0.00000000000E+00 0. -1.
</event>
<event>
 8    1  0.1238315E-006  0.9118800E+02  0.7816164E-02  0.1184000E+00
        -11   -1    0    0    0    0  0.00000000000E+00  0.00000000000E+00  0.45593999997E+02  0.45594000000E+02  0.51100000000E-03 0.  1.
         11   -1    0    0    0    0 -0.00000000000E+00 -0.00000000000E+00 -0.45593999997E+02  0.45594000000E+02  0.51100000000E-03 0. -1.
         23    2    1    2    0    0 -0.35527136788E-14  0.35527136788E-14 -0.35527136788E-14  0.91188000000E+02  0.91188000000E+02 0.  0.
    9900012    2    3    3    0    0  0.19333112449E+02  0.25124746833E+02 -0.18728512309E+02  0.54367091351E+02  0.40000016354E+02 0.  0.
        -12    1    3    3    0    0 -0.19333112449E+02 -0.25124746833E+02  0.18728512309E+02  0.36820908649E+02  0.00000000000E+00 0.  1.
         11    1    4    4    0    0  0.55176307908E+01  0.24024355781E+02 -0.91568658535E+01  0.26295667186E+02  0.51100000000E-03 0. -1.
        -11    1    4    4    0    0 -0.51972292973E+01  0.40898733180E+01 -0.84846164248E-01  0.66140347186E+01  0.51100000000E-03 0.  1.
         12    1    4    4    0    0  0.19012710955E+02 -0.29894822662E+01 -0.94868002914E+01  0.21457389446E+02  0.00000000000E+00 0. -1.
</event>
<event>
 8    1  0.1238315E-006  0.9118800E+02  0.7816164E-02  0.1184000E+00
        -11   -1    0    0    0    0  0.00000000000E+00  0.00000000000E+00  0.45593999997E+02  0.45594000000E+02  0.51100000000E-03 0. -1.
         11   -1    0    0    0    0 -0.00000000000E+00 -0.00000000000E+00 -0.45593999997E+02  0.45594000000E+02  0.51100000000E-03 0.  1.
         23    2    1    2    0    0  0.00000000000E+00  0.00000000000E+00  0.35527136788E-14  0.91188000000E+02  0.91188000000E+02 0.  0.
    9900012    2    3    3    0    0  0.18401984016E+02  0.20980131222E+01 -0.31823657966E+02  0.54367083646E+02  0.39999998789E+02 0.  0.
         12    1    3    3    0    0 -0.18401984016E+02 -0.20980131222E+01  0.31823657966E+02  0.36820916354E+02  0.00000000000E+00 0. -1.
         11    1    4    4    0    0  0.19678093516E+02  0.84460163642E+00 -0.15250108578E+02  0.24909968452E+02  0.51100000000E-03 0. -1.
        -11    1    4    4    0    0 -0.17535749067E+01  0.89658516773E+01 -0.19226962426E+02  0.21287029047E+02  0.51100000000E-03 0.  1.
        -12    1    4    4    0    0  0.47746540665E+00 -0.77124401914E+01  0.26534130376E+01  0.81700861482E+01  0.00000000000E+00 0.  1.
</event>
<event>
 8    1  0.1238315E-006  0.9118800E+02  0.7816164E-02  0.1184000E+00
        -11   -1    0    0    0    0  0.00000000000E+00  0.00000000000E+00  0.45593999997E+02  0.45594000000E+02  0.51100000000E-03 0. -1.
         11   -1    0    0    0    0 -0.00000000000E+00 -0.00000000000E+00 -0.45593999997E+02  0.45594000000E+02  0.51100000000E-03 0.  1.
         23    2    1    2    0    0  0.00000000000E+00  0.00000000000E+00 -0.35527136788E-14  0.91188000000E+02  0.91188000000E+02 0.  0.
    9900012    2    3    3    0    0  0.85358304142E+01 -0.29547204402E+02 -0.20245582941E+02  0.54367064142E+02  0.39999954325E+02 0.  0.
        -12    1    3    3    0    0 -0.85358304142E+01  0.29547204402E+02  0.20245582941E+02  0.36820935858E+02  0.00000000000E+00 0.  1.
         11    1    4    4    0    0 -0.22993111691E+01  0.79148580505E+01 -0.60301108486E+01  0.10212445687E+02  0.51100000000E-03 0. -1.
        -11    1    4    4    0    0  0.77620397986E+01 -0.72830837163E+01 -0.76751796126E+01  0.13122536058E+02  0.51100000000E-03 0.  1.
         12    1    4    4    0    0  0.30731017848E+01 -0.30178978736E+02 -0.65402924794E+01  0.31032082396E+02  0.00000000000E+00 0. -1.
</event>
<event>
 8    1  0.1238315E-006  0.9118800E+02  0.7816164E-02  0.1184000E+00
        -11   -1    0    0    0    0  0.00000000000E+00  0.00000000000E+00  0.45593999997E+02  0.45594000000E+02  0.51100000000E-03 0.  1.
         11   -1    0    0    0    0 -0.00000000000E+00 -0.00000000000E+00 -0.45593999997E+02  0.45594000000E+02  0.51100000000E-03 0. -1.
         23    2    1    2    0    0  0.00000000000E+00 -0.17763568394E-14 -0.71054273576E-14  0.91188000000E+02  0.91188000000E+02 0.  0.
    9900012    2    3    3    0    0  0.80618325886E+01  0.10329957448E+02  0.34410446041E+02  0.54367082544E+02  0.39999996275E+02 0.  0.
         12    1    3    3    0    0 -0.80618325886E+01 -0.10329957448E+02 -0.34410446041E+02  0.36820917456E+02  0.00000000000E+00 0. -1.
         11    1    4    4    0    0  0.43516098966E+01 -0.68768171893E+01  0.53205796509E+01  0.97229466434E+01  0.51100000000E-03 0. -1.
        -11    1    4    4    0    0 -0.15001538593E+01 -0.49873890377E+01  0.19022619538E+02  0.19722691636E+02  0.51100000000E-03 0.  1.
        -12    1    4    4    0    0  0.52103765513E+01  0.22194163675E+02  0.10067246852E+02  0.24921444265E+02  0.00000000000E+00 0.  1.
</event>
<event>
 8    1  0.1238315E-006  0.9118800E+02  0.7816164E-02  0.1184000E+00
        -11   -1    0    0    0    0  0.00000000000E+00  0.00000000000E+00  0.45593999997E+02  0.45594000000E+02  0.51100000000E-03 0. -1.
         11   -1    0    0    0    0 -0.00000000000E+00 -0.00000000000E+00 -0.45593999997E+02  0.45594000000E+02  0.51100000000E-03 0.  1.
         23    2    1    2    0    0  0.00000000000E+00  0.71054273576E-14  0.17763568394E-14  0.91188000000E+02  0.91188000000E+02 0.  0.
    9900012    2    3    3    0    0  0.22940534185E+02 -0.24733333829E+02  0.14757134724E+02  0.54367096477E+02  0.40000028039E+02 0.  0.
         12    1    3    3    0    0 -0.22940534185E+02  0.24733333829E+02 -0.14757134724E+02  0.36820903523E+02  0.00000000000E+00 0. -1.
         11    1    4    4    0    0  0.15777389345E+02 -0.10532478608E+02 -0.30884500629E+01  0.19219720191E+02  0.51100000000E-03 0. -1.
        -11    1    4    4    0    0  0.14845006177E+02 -0.65335561860E+01  0.25896532864E+01  0.16424611692E+02  0.51100000000E-03 0.  1.
        -12    1    4    4    0    0 -0.76818613372E+01 -0.76672990343E+01  0.15255931500E+02  0.18722764594E+02  0.00000000000E+00 0.  1.
</event>
<event>
 8    1  0.1238315E-006  0.9118800E+02  0.7816164E-02  0.1184000E+00
        -11   -1    0    0    0    0  0.00000000000E+00  0.00000000000E+00  0.45593999997E+02  0.45594000000E+02  0.51100000000E-03 0. -1.
         11   -1    0    0    0    0 -0.00000000000E+00 -0.00000000000E+00 -0.45593999997E+02  0.45594000000E+02  0.51100000000E-03 0.  1.
         23    2    1    2    0    0 -0.17763568394E-14  0.35527136788E-14  0.35527136788E-14  0.91188000000E+02  0.91188000000E+02 0.  0.
    9900012    2    3    3    0    0 -0.10756679832E+02 -0.19517989410E+02 -0.29310785747E+02  0.54367078872E+02  0.39999987905E+02 0.  0.
         12    1    3    3    0    0  0.10756679832E+02  0.19517989410E+02  0.29310785747E+02  0.36820921128E+02  0.00000000000E+00 0. -1.
         11    1    4    4    0    0  0.20637190251E+01  0.54525205294E+00  0.15600014982E+01  0.26438307342E+01  0.51100000000E-03 0. -1.
        -11    1    4    4    0    0  0.83038266447E+01  0.28578633632E+01 -0.13310632606E+02  0.15946594012E+02  0.51100000000E-03 0.  1.
        -12    1    4    4    0    0 -0.21124225502E+02 -0.22921104826E+02 -0.17560154639E+02  0.35776654126E+02  0.00000000000E+00 0.  1.
</event>
<event>
 8    1  0.1238315E-006  0.9118800E+02  0.7816164E-02  0.1184000E+00
        -11   -1    0    0    0    0  0.00000000000E+00  0.00000000000E+00  0.45593999997E+02  0.45594000000E+02  0.51100000000E-03 0. -1.
         11   -1    0    0    0    0 -0.00000000000E+00 -0.00000000000E+00 -0.45593999997E+02  0.45594000000E+02  0.51100000000E-03 0.  1.
         23    2    1    2    0    0  0.17763568394E-14  0.35527136788E-14  0.00000000000E+00  0.91188000000E+02  0.91188000000E+02 0.  0.
    9900012    2    3    3    0    0 -0.12199023392E+02 -0.23752629176E+02 -0.25353038578E+02  0.54367080272E+02  0.39999991095E+02 0.  0.
         12    1    3    3    0    0  0.12199023392E+02  0.23752629176E+02  0.25353038578E+02  0.36820919728E+02  0.00000000000E+00 0. -1.
         11    1    4    4    0    0 -0.62105592454E+01  0.77889877513E+00  0.41773058813E+01  0.75251321669E+01  0.51100000000E-03 0. -1.
        -11    1    4    4    0    0 -0.35413207583E+01 -0.35533782390E+01 -0.24662856501E+02  0.25167914905E+02  0.51100000000E-03 0.  1.
        -12    1    4    4    0    0 -0.24471433887E+01 -0.20978149712E+02 -0.48674879579E+01  0.21674033199E+02  0.00000000000E+00 0.  1.
</event>
<event>
 8    1  0.1238315E-006  0.9118800E+02  0.7816164E-02  0.1184000E+00
        -11   -1    0    0    0    0  0.00000000000E+00  0.00000000000E+00  0.45593999997E+02  0.45594000000E+02  0.51100000000E-03 0.  1.
         11   -1    0    0    0    0 -0.00000000000E+00 -0.00000000000E+00 -0.45593999997E+02  0.45594000000E+02  0.51100000000E-03 0. -1.
         23    2    1    2    0    0  0.00000000000E+00  0.00000000000E+00  0.00000000000E+00  0.91188000000E+02  0.91188000000E+02 0.  0.
    9900012    2    3    3    0    0  0.25857996085E+02 -0.11124310028E+02  0.23735932324E+02  0.54367072277E+02  0.39999972870E+02 0.  0.
         12    1    3    3    0    0 -0.25857996085E+02  0.11124310028E+02 -0.23735932324E+02  0.36820927723E+02  0.00000000000E+00 0. -1.
         11    1    4    4    0    0  0.19493921851E+02 -0.23638757387E+01  0.60843404426E+01  0.20557725957E+02  0.51100000000E-03 0. -1.
        -11    1    4    4    0    0  0.57202836066E+01 -0.46238068543E+01  0.24611648970E+02  0.25687243909E+02  0.51100000000E-03 0.  1.
        -12    1    4    4    0    0  0.64379062735E+00 -0.41366274350E+01 -0.69600570885E+01  0.81221024115E+01  0.00000000000E+00 0.  1.
</event>
<event>
 8    1  0.1238315E-006  0.9118800E+02  0.7816164E-02  0.1184000E+00
        -11   -1    0    0    0    0  0.00000000000E+00  0.00000000000E+00  0.45593999997E+02  0.45594000000E+02  0.51100000000E-03 0.  1.
         11   -1    0    0    0    0 -0.00000000000E+00 -0.00000000000E+00 -0.45593999997E+02  0.45594000000E+02  0.51100000000E-03 0. -1.
         23    2    1    2    0    0  0.00000000000E+00  0.00000000000E+00  0.00000000000E+00  0.91188000000E+02  0.91188000000E+02 0.  0.
    9900012    2    3    3    0    0 -0.35728401528E+02  0.45241956410E+01  0.76676574004E+01  0.54367082141E+02  0.39999995357E+02 0.  0.
         12    1    3    3    0    0  0.35728401528E+02 -0.45241956410E+01 -0.76676574004E+01  0.36820917859E+02  0.00000000000E+00 0. -1.
         11    1    4    4    0    0 -0.13371746214E+02  0.35859798732E+00 -0.75131031587E+01  0.15342063377E+02  0.51100000000E-03 0. -1.
        -11    1    4    4    0    0 -0.28021371744E+01 -0.54413416392E+01  0.16094409842E+02  0.17218890789E+02  0.51100000000E-03 0.  1.
         12    1    4    4    0    0 -0.19554518139E+02  0.96069392928E+01 -0.91364928292E+00  0.21806127975E+02  0.00000000000E+00 0. -1.
</event>
<event>
 8    1  0.1238315E-006  0.9118800E+02  0.7816164E-02  0.1184000E+00
        -11   -1    0    0    0    0  0.00000000000E+00  0.00000000000E+00  0.45593999997E+02  0.45594000000E+02  0.51100000000E-03 0.  1.
         11   -1    0    0    0    0 -0.00000000000E+00 -0.00000000000E+00 -0.45593999997E+02  0.45594000000E+02  0.51100000000E-03 0. -1.
         23    2    1    2    0    0  0.00000000000E+00  0.35527136788E-14 -0.15543122345E-14  0.91188000000E+02  0.91188000000E+02 0.  0.
    9900012    2    3    3    0    0 -0.29325261518E+02  0.22250649865E+02  0.84644361511E+00  0.54367097658E+02  0.40000030730E+02 0.  0.
        -12    1    3    3    0    0  0.29325261518E+02 -0.22250649865E+02 -0.84644361511E+00  0.36820902342E+02  0.00000000000E+00 0.  1.
         11    1    4    4    0    0 -0.10008575054E+02  0.11998347517E+02 -0.28323410693E+01  0.15879359998E+02  0.51100000000E-03 0. -1.
        -11    1    4    4    0    0 -0.62170789582E+01 -0.19398349967E+01  0.15654264670E+02  0.16954970752E+02  0.51100000000E-03 0.  1.
        -12    1    4    4    0    0 -0.13099607506E+02  0.12192137345E+02 -0.11975479985E+02  0.21532766908E+02  0.00000000000E+00 0.  1.
</event>
<event>
 8    1  0.1238315E-006  0.9118800E+02  0.7816164E-02  0.1184000E+00
        -11   -1    0    0    0    0  0.00000000000E+00  0.00000000000E+00  0.45593999997E+02  0.45594000000E+02  0.51100000000E-03 0.  1.
         11   -1    0    0    0    0 -0.00000000000E+00 -0.00000000000E+00 -0.45593999997E+02  0.45594000000E+02  0.51100000000E-03 0. -1.
         23    2    1    2    0    0  0.00000000000E+00  0.00000000000E+00  0.00000000000E+00  0.91188000000E+02  0.91188000000E+02 0.  0.
    9900012    2    3    3    0    0 -0.20005093913E+02  0.20959160348E+02  0.22722021762E+02  0.54367075814E+02  0.39999980933E+02 0.  0.
         12    1    3    3    0    0  0.20005093913E+02 -0.20959160348E+02 -0.22722021762E+02  0.36820924186E+02  0.00000000000E+00 0. -1.
         11    1    4    4    0    0 -0.15789621297E+02  0.92789192105E+01 -0.53914385777E+01  0.19091309348E+02  0.51100000000E-03 0. -1.
        -11    1    4    4    0    0 -0.18514934586E+01 -0.45089779612E+01  0.77279972981E+01  0.91367856921E+01  0.51100000000E-03 0.  1.
         12    1    4    4    0    0 -0.23639791575E+01  0.16189219099E+02  0.20385463042E+02  0.26138980774E+02  0.00000000000E+00 0. -1.
</event>
<event>
 8    1  0.1238315E-006  0.9118800E+02  0.7816164E-02  0.1184000E+00
        -11   -1    0    0    0    0  0.00000000000E+00  0.00000000000E+00  0.45593999997E+02  0.45594000000E+02  0.51100000000E-03 0. -1.
         11   -1    0    0    0    0 -0.00000000000E+00 -0.00000000000E+00 -0.45593999997E+02  0.45594000000E+02  0.51100000000E-03 0.  1.
         23    2    1    2    0    0  0.00000000000E+00  0.00000000000E+00 -0.71054273576E-14  0.91188000000E+02  0.91188000000E+02 0.  0.
    9900012    2    3    3    0    0  0.69384929360E+01  0.96413056847E+01 -0.34852298181E+02  0.54367080022E+02  0.39999990526E+02 0.  0.
         12    1    3    3    0    0 -0.69384929360E+01 -0.96413056847E+01  0.34852298181E+02  0.36820919978E+02  0.00000000000E+00 0. -1.
         11    1    4    4    0    0  0.40125165769E+01 -0.60234983181E+01  0.21766151761E+01  0.75578088858E+01  0.51100000000E-03 0. -1.
        -11    1    4    4    0    0  0.42330041220E+01  0.21089331160E+02 -0.34561211304E+02  0.40708175343E+02  0.51100000000E-03 0.  1.
        -12    1    4    4    0    0 -0.13070277630E+01 -0.54245271577E+01 -0.24677020528E+01  0.61010957933E+01  0.00000000000E+00 0.  1.
</event>
<event>
 8    1  0.1238315E-006  0.9118800E+02  0.7816164E-02  0.1184000E+00
        -11   -1    0    0    0    0  0.00000000000E+00  0.00000000000E+00  0.45593999997E+02  0.45594000000E+02  0.51100000000E-03 0. -1.
         11   -1    0    0    0    0 -0.00000000000E+00 -0.00000000000E+00 -0.45593999997E+02  0.45594000000E+02  0.51100000000E-03 0.  1.
         23    2    1    2    0    0  0.00000000000E+00  0.00000000000E+00 -0.71054273576E-14  0.91188000000E+02  0.91188000000E+02 0.  0.
    9900012    2    3    3    0    0 -0.50233585990E+01  0.23871435291E+01  0.36398448313E+02  0.54367087118E+02  0.40000006703E+02 0.  0.
        -12    1    3    3    0    0  0.50233585990E+01 -0.23871435291E+01 -0.36398448313E+02  0.36820912882E+02  0.00000000000E+00 0.  1.
         11    1    4    4    0    0  0.81349144626E+01 -0.13764444105E+02  0.18596324865E+02  0.24524682538E+02  0.51100000000E-03 0. -1.
        -11    1    4    4    0    0 -0.24025354849E+01 -0.12495104020E+01 -0.24372559057E-01  0.27081446201E+01  0.51100000000E-03 0.  1.
        -12    1    4    4    0    0 -0.10755737577E+02  0.17401098036E+02  0.17826496007E+02  0.27134259960E+02  0.00000000000E+00 0.  1.
</event>
<event>
 8    1  0.1238315E-006  0.9118800E+02  0.7816164E-02  0.1184000E+00
        -11   -1    0    0    0    0  0.00000000000E+00  0.00000000000E+00  0.45593999997E+02  0.45594000000E+02  0.51100000000E-03 0. -1.
         11   -1    0    0    0    0 -0.00000000000E+00 -0.00000000000E+00 -0.45593999997E+02  0.45594000000E+02  0.51100000000E-03 0.  1.
         23    2    1    2    0    0  0.00000000000E+00  0.71054273576E-14 -0.17763568394E-14  0.91188000000E+02  0.91188000000E+02 0.  0.
    9900012    2    3    3    0    0  0.27301604517E+02 -0.21452017185E+02  0.12256155555E+02  0.54367082039E+02  0.39999995125E+02 0.  0.
        -12    1    3    3    0    0 -0.27301604517E+02  0.21452017185E+02 -0.12256155555E+02  0.36820917961E+02  0.00000000000E+00 0.  1.
         11    1    4    4    0    0  0.51134183772E+01  0.47539310201E+00  0.56850525775E+01  0.76611271476E+01  0.51100000000E-03 0. -1.
        -11    1    4    4    0    0  0.23583398772E+02 -0.70278477023E+00  0.90953142749E+01  0.25286267935E+02  0.51100000000E-03 0.  1.
        -12    1    4    4    0    0 -0.13952126328E+01 -0.21224625517E+02 -0.25242112978E+01  0.21419686956E+02  0.00000000000E+00 0.  1.
</event>
<event>
 8    1  0.1238315E-006  0.9118800E+02  0.7816164E-02  0.1184000E+00
        -11   -1    0    0    0    0  0.00000000000E+00  0.00000000000E+00  0.45593999997E+02  0.45594000000E+02  0.51100000000E-03 0.  1.
         11   -1    0    0    0    0 -0.00000000000E+00 -0.00000000000E+00 -0.45593999997E+02  0.45594000000E+02  0.51100000000E-03 0. -1.
         23    2    1    2    0    0  0.71054273576E-14 -0.88817841970E-15  0.00000000000E+00  0.91188000000E+02  0.91188000000E+02 0.  0.
    9900012    2    3    3    0    0 -0.26238739502E+02  0.18097848060E+01 -0.25768834638E+02  0.54367087324E+02  0.40000007174E+02 0.  0.
        -12    1    3    3    0    0  0.26238739502E+02 -0.18097848060E+01  0.25768834638E+02  0.36820912676E+02  0.00000000000E+00 0.  1.
         11    1    4    4    0    0 -0.65573402813E+01  0.91236348804E+01 -0.79746489081E+01  0.13778042331E+02  0.51100000000E-03 0. -1.
        -11    1    4    4    0    0  0.16786238579E+01  0.57509535092E+01  0.41558423192E+01  0.72912461188E+01  0.51100000000E-03 0.  1.
        -12    1    4    4    0    0 -0.21360023078E+02 -0.13064803584E+02 -0.21950028049E+02  0.33297798875E+02  0.00000000000E+00 0.  1.
</event>
<event>
 8    1  0.1238315E-006  0.9118800E+02  0.7816164E-02  0.1184000E+00
        -11   -1    0    0    0    0  0.00000000000E+00  0.00000000000E+00  0.45593999997E+02  0.45594000000E+02  0.51100000000E-03 0. -1.
         11   -1    0    0    0    0 -0.00000000000E+00 -0.00000000000E+00 -0.45593999997E+02  0.45594000000E+02  0.51100000000E-03 0.  1.
         23    2    1    2    0    0  0.00000000000E+00  0.35527136788E-14  0.17763568394E-14  0.91188000000E+02  0.91188000000E+02 0.  0.
    9900012    2    3    3    0    0 -0.19404951299E+02 -0.28403359771E+02 -0.13133031281E+02  0.54367088933E+02  0.40000010840E+02 0.  0.
         12    1    3    3    0    0  0.19404951299E+02  0.28403359771E+02  0.13133031281E+02  0.36820911067E+02  0.00000000000E+00 0. -1.
         11    1    4    4    0    0 -0.21024459894E+02 -0.13075668628E+02  0.39468032755E+01  0.25071463465E+02  0.51100000000E-03 0. -1.
        -11    1    4    4    0    0 -0.63742190594E+01 -0.64407681814E+01 -0.14450548054E+02  0.17056743614E+02  0.51100000000E-03 0.  1.
         12    1    4    4    0    0  0.79937276547E+01 -0.88869229614E+01 -0.26292865029E+01  0.12238881855E+02  0.00000000000E+00 0. -1.
</event>
<event>
 8    1  0.1238315E-006  0.9118800E+02  0.7816164E-02  0.1184000E+00
        -11   -1    0    0    0    0  0.00000000000E+00  0.00000000000E+00  0.45593999997E+02  0.45594000000E+02  0.51100000000E-03 0.  1.
         11   -1    0    0    0    0 -0.00000000000E+00 -0.00000000000E+00 -0.45593999997E+02  0.45594000000E+02  0.51100000000E-03 0. -1.
         23    2    1    2    0    0  0.00000000000E+00 -0.11102230246E-14 -0.35527136788E-14  0.91188000000E+02  0.91188000000E+02 0.  0.
    9900012    2    3    3    0    0  0.25334829636E+02  0.16772981882E+01  0.26666682084E+02  0.54367097576E+02  0.40000030545E+02 0.  0.
         12    1    3    3    0    0 -0.25334829636E+02 -0.16772981882E+01 -0.26666682084E+02  0.36820902424E+02  0.00000000000E+00 0. -1.
         11    1    4    4    0    0 -0.22446346753E+01 -0.37185325946E+01 -0.28460865521E+01  0.51928872899E+01  0.51100000000E-03 0. -1.
        -11    1    4    4    0    0 -0.38122457449E+01 -0.24728079377E+01  0.10973952464E+02  0.11877526243E+02  0.51100000000E-03 0.  1.
         12    1    4    4    0    0  0.31391710056E+02  0.78686387205E+01  0.18538816173E+02  0.37296684044E+02  0.00000000000E+00 0. -1.
</event>
<event>
 8    1  0.1238315E-006  0.9118800E+02  0.7816164E-02  0.1184000E+00
        -11   -1    0    0    0    0  0.00000000000E+00  0.00000000000E+00  0.45593999997E+02  0.45594000000E+02  0.51100000000E-03 0. -1.
         11   -1    0    0    0    0 -0.00000000000E+00 -0.00000000000E+00 -0.45593999997E+02  0.45594000000E+02  0.51100000000E-03 0.  1.
         23    2    1    2    0    0 -0.66613381478E-15  0.00000000000E+00  0.00000000000E+00  0.91188000000E+02  0.91188000000E+02 0.  0.
    9900012    2    3    3    0    0  0.15624167388E+01  0.22990481546E+02  0.28718909100E+02  0.54367093878E+02  0.40000022113E+02 0.  0.
        -12    1    3    3    0    0 -0.15624167388E+01 -0.22990481546E+02 -0.28718909100E+02  0.36820906122E+02  0.00000000000E+00 0.  1.
         11    1    4    4    0    0  0.10735932688E+02  0.10608193846E+02  0.40334930547E+01  0.15622518806E+02  0.51100000000E-03 0. -1.
        -11    1    4    4    0    0  0.11154210200E+01  0.17281157194E+02  0.94778723922E+01  0.19741140376E+02  0.51100000000E-03 0.  1.
        -12    1    4    4    0    0 -0.10288936970E+02 -0.48988694937E+01  0.15207543653E+02  0.19003434696E+02  0.00000000000E+00 0.  1.
</event>
<event>
 8    1  0.1238315E-006  0.9118800E+02  0.7816164E-02  0.1184000E+00
        -11   -1    0    0    0    0  0.00000000000E+00  0.00000000000E+00  0.45593999997E+02  0.45594000000E+02  0.51100000000E-03 0.  1.
         11   -1    0    0    0    0 -0.00000000000E+00 -0.00000000000E+00 -0.45593999997E+02  0.45594000000E+02  0.51100000000E-03 0. -1.
         23    2    1    2    0    0  0.00000000000E+00 -0.71054273576E-14  0.17763568394E-14  0.91188000000E+02  0.91188000000E+02 0.  0.
    9900012    2    3    3    0    0 -0.12593411545E+02 -0.31974593874E+02 -0.13221586740E+02  0.54367095290E+02  0.40000025332E+02 0.  0.
        -12    1    3    3    0    0  0.12593411545E+02  0.31974593874E+02  0.13221586740E+02  0.36820904710E+02  0.00000000000E+00 0.  1.
         11    1    4    4    0    0 -0.79678082525E+01 -0.22040852988E+02  0.53404428610E+00  0.23442917317E+02  0.51100000000E-03 0. -1.
        -11    1    4    4    0    0 -0.53781239494E+00  0.54160868025E+01  0.42556038398E+01  0.69089364396E+01  0.51100000000E-03 0.  1.
        -12    1    4    4    0    0 -0.40877908979E+01 -0.15349827689E+02 -0.18011234866E+02  0.24015241533E+02  0.00000000000E+00 0.  1.
</event>
<event>
 8    1  0.1238315E-006  0.9118800E+02  0.7816164E-02  0.1184000E+00
        -11   -1    0    0    0    0  0.00000000000E+00  0.00000000000E+00  0.45593999997E+02  0.45594000000E+02  0.51100000000E-03 0. -1.
         11   -1    0    0    0    0 -0.00000000000E+00 -0.00000000000E+00 -0.45593999997E+02  0.45594000000E+02  0.51100000000E-03 0.  1.
         23    2    1    2    0    0 -0.35527136788E-14  0.00000000000E+00 -0.17763568394E-14  0.91188000000E+02  0.91188000000E+02 0.  0.
    9900012    2    3    3    0    0  0.17198145746E+02  0.30193738472E+02  0.12179585250E+02  0.54367077186E+02  0.39999984061E+02 0.  0.
        -12    1    3    3    0    0 -0.17198145746E+02 -0.30193738472E+02 -0.12179585250E+02  0.36820922814E+02  0.00000000000E+00 0.  1.
         11    1    4    4    0    0 -0.65924775873E+01  0.72860821088E+01  0.96330440506E+01  0.13760206800E+02  0.51100000000E-03 0. -1.
        -11    1    4    4    0    0  0.26034093199E+01 -0.47513791522E+01  0.19571198976E+01  0.57605262337E+01  0.51100000000E-03 0.  1.
        -12    1    4    4    0    0  0.21187214013E+02  0.27659035516E+02  0.58942130157E+00  0.34846344152E+02  0.00000000000E+00 0.  1.
</event>
<event>
 8    1  0.1238315E-006  0.9118800E+02  0.7816164E-02  0.1184000E+00
        -11   -1    0    0    0    0  0.00000000000E+00  0.00000000000E+00  0.45593999997E+02  0.45594000000E+02  0.51100000000E-03 0.  1.
         11   -1    0    0    0    0 -0.00000000000E+00 -0.00000000000E+00 -0.45593999997E+02  0.45594000000E+02  0.51100000000E-03 0. -1.
         23    2    1    2    0    0 -0.88817841970E-15 -0.71054273576E-14  0.00000000000E+00  0.91188000000E+02  0.91188000000E+02 0.  0.
    9900012    2    3    3    0    0 -0.39236055275E+01  0.34652901450E+02  0.11813581707E+02  0.54367095992E+02  0.40000026933E+02 0.  0.
         12    1    3    3    0    0  0.39236055275E+01 -0.34652901450E+02 -0.11813581707E+02  0.36820904008E+02  0.00000000000E+00 0. -1.
         11    1    4    4    0    0  0.78602205177E+01 -0.92548553346E+00  0.34152308513E+01  0.86199415362E+01  0.51100000000E-03 0. -1.
        -11    1    4    4    0    0 -0.83518958001E+01  0.38229832163E+01  0.10237267627E+02  0.13753945356E+02  0.51100000000E-03 0.  1.
         12    1    4    4    0    0 -0.34319302451E+01  0.31755403767E+02 -0.18389167713E+01  0.31993209100E+02  0.00000000000E+00 0. -1.
</event>
<event>
 8    1  0.1238315E-006  0.9118800E+02  0.7816164E-02  0.1184000E+00
        -11   -1    0    0    0    0  0.00000000000E+00  0.00000000000E+00  0.45593999997E+02  0.45594000000E+02  0.51100000000E-03 0. -1.
         11   -1    0    0    0    0 -0.00000000000E+00 -0.00000000000E+00 -0.45593999997E+02  0.45594000000E+02  0.51100000000E-03 0.  1.
         23    2    1    2    0    0  0.00000000000E+00 -0.17763568394E-14  0.00000000000E+00  0.91188000000E+02  0.91188000000E+02 0.  0.
    9900012    2    3    3    0    0 -0.24504067990E+02  0.12245492760E+02  0.24604442855E+02  0.54367081364E+02  0.39999993584E+02 0.  0.
        -12    1    3    3    0    0  0.24504067990E+02 -0.12245492760E+02 -0.24604442855E+02  0.36820918636E+02  0.00000000000E+00 0.  1.
         11    1    4    4    0    0 -0.20563337071E+02  0.17394275206E+02  0.26904952339E+02  0.38069516703E+02  0.51100000000E-03 0. -1.
        -11    1    4    4    0    0 -0.71972807373E+01  0.36309404450E+00  0.31735888364E+01  0.78742843268E+01  0.51100000000E-03 0.  1.
        -12    1    4    4    0    0  0.32565498178E+01 -0.55118764903E+01 -0.54740983197E+01  0.84232803333E+01  0.00000000000E+00 0.  1.
</event>
<event>
 8    1  0.1238315E-006  0.9118800E+02  0.7816164E-02  0.1184000E+00
        -11   -1    0    0    0    0  0.00000000000E+00  0.00000000000E+00  0.45593999997E+02  0.45594000000E+02  0.51100000000E-03 0.  1.
         11   -1    0    0    0    0 -0.00000000000E+00 -0.00000000000E+00 -0.45593999997E+02  0.45594000000E+02  0.51100000000E-03 0. -1.
         23    2    1    2    0    0  0.00000000000E+00  0.35527136788E-14 -0.35527136788E-14  0.91188000000E+02  0.91188000000E+02 0.  0.
    9900012    2    3    3    0    0  0.10933741320E+02 -0.20506261518E+02  0.28560932550E+02  0.54367077567E+02  0.39999984930E+02 0.  0.
         12    1    3    3    0    0 -0.10933741320E+02  0.20506261518E+02 -0.28560932550E+02  0.36820922433E+02  0.00000000000E+00 0. -1.
         11    1    4    4    0    0  0.22567315569E+02 -0.26280376659E+01  0.73206193510E+01  0.23870102260E+02  0.51100000000E-03 0. -1.
        -11    1    4    4    0    0 -0.12803568220E+01 -0.58576635995E+01  0.52038017722E+01  0.79392121512E+01  0.51100000000E-03 0.  1.
         12    1    4    4    0    0 -0.10353217427E+02 -0.12020560252E+02  0.16036511427E+02  0.22557763156E+02  0.00000000000E+00 0. -1.
</event>
<event>
 8    1  0.1238315E-006  0.9118800E+02  0.7816164E-02  0.1184000E+00
        -11   -1    0    0    0    0  0.00000000000E+00  0.00000000000E+00  0.45593999997E+02  0.45594000000E+02  0.51100000000E-03 0.  1.
         11   -1    0    0    0    0 -0.00000000000E+00 -0.00000000000E+00 -0.45593999997E+02  0.45594000000E+02  0.51100000000E-03 0. -1.
         23    2    1    2    0    0 -0.44408920985E-15 -0.35527136788E-14 -0.35527136788E-14  0.91188000000E+02  0.91188000000E+02 0.  0.
    9900012    2    3    3    0    0  0.21666178377E+01  0.30056043622E+02  0.21159396850E+02  0.54367081134E+02  0.39999993062E+02 0.  0.
         12    1    3    3    0    0 -0.21666178377E+01 -0.30056043622E+02 -0.21159396850E+02  0.36820918866E+02  0.00000000000E+00 0. -1.
         11    1    4    4    0    0 -0.30924525100E+01 -0.46041924018E+01  0.10438617091E+02  0.11820599698E+02  0.51100000000E-03 0. -1.
        -11    1    4    4    0    0 -0.38348112003E+01  0.10382126490E+02  0.12333057050E+02  0.16571017587E+02  0.51100000000E-03 0.  1.
         12    1    4    4    0    0  0.90938815479E+01  0.24278109534E+02 -0.16122772905E+01  0.25975463850E+02  0.00000000000E+00 0. -1.
</event>
<event>
 8    1  0.1238315E-006  0.9118800E+02  0.7816164E-02  0.1184000E+00
        -11   -1    0    0    0    0  0.00000000000E+00  0.00000000000E+00  0.45593999997E+02  0.45594000000E+02  0.51100000000E-03 0.  1.
         11   -1    0    0    0    0 -0.00000000000E+00 -0.00000000000E+00 -0.45593999997E+02  0.45594000000E+02  0.51100000000E-03 0. -1.
         23    2    1    2    0    0  0.00000000000E+00  0.00000000000E+00 -0.35527136788E-14  0.91188000000E+02  0.91188000000E+02 0.  0.
    9900012    2    3    3    0    0 -0.72270769480E+01  0.24032339004E+02 -0.26944305249E+02  0.54367088216E+02  0.40000009207E+02 0.  0.
        -12    1    3    3    0    0  0.72270769480E+01 -0.24032339004E+02  0.26944305249E+02  0.36820911784E+02  0.00000000000E+00 0.  1.
         11    1    4    4    0    0  0.25249506876E+01  0.33561593597E+01 -0.30278965092E+01  0.51775804344E+01  0.51100000000E-03 0. -1.
        -11    1    4    4    0    0  0.79807671717E+01 -0.29201911961E+01 -0.16799776018E+02  0.18826912540E+02  0.51100000000E-03 0.  1.
        -12    1    4    4    0    0 -0.17732794807E+02  0.23596370841E+02 -0.71166327213E+01  0.30362595242E+02  0.00000000000E+00 0.  1.
</event>
<event>
 8    1  0.1238315E-006  0.9118800E+02  0.7816164E-02  0.1184000E+00
        -11   -1    0    0    0    0  0.00000000000E+00  0.00000000000E+00  0.45593999997E+02  0.45594000000E+02  0.51100000000E-03 0. -1.
         11   -1    0    0    0    0 -0.00000000000E+00 -0.00000000000E+00 -0.45593999997E+02  0.45594000000E+02  0.51100000000E-03 0.  1.
         23    2    1    2    0    0  0.00000000000E+00 -0.35527136788E-14  0.00000000000E+00  0.91188000000E+02  0.91188000000E+02 0.  0.
    9900012    2    3    3    0    0 -0.14092345699E+02 -0.20796111668E+02  0.26920417032E+02  0.54367064094E+02  0.39999954216E+02 0.  0.
        -12    1    3    3    0    0  0.14092345699E+02  0.20796111668E+02 -0.26920417032E+02  0.36820935906E+02  0.00000000000E+00 0.  1.
         11    1    4    4    0    0  0.76447715292E+01  0.16565111765E+01  0.10384634770E+02  0.13001046134E+02  0.51100000000E-03 0. -1.
        -11    1    4    4    0    0 -0.53211583748E+01  0.22892494768E+01 -0.22672930782E+01  0.62206115278E+01  0.51100000000E-03 0.  1.
        -12    1    4    4    0    0 -0.16415958854E+02 -0.24741872322E+02  0.18803075339E+02  0.35145406432E+02  0.00000000000E+00 0.  1.
</event>
<event>
 8    1  0.1238315E-006  0.9118800E+02  0.7816164E-02  0.1184000E+00
        -11   -1    0    0    0    0  0.00000000000E+00  0.00000000000E+00  0.45593999997E+02  0.45594000000E+02  0.51100000000E-03 0. -1.
         11   -1    0    0    0    0 -0.00000000000E+00 -0.00000000000E+00 -0.45593999997E+02  0.45594000000E+02  0.51100000000E-03 0.  1.
         23    2    1    2    0    0  0.00000000000E+00  0.00000000000E+00 -0.17763568394E-14  0.91188000000E+02  0.91188000000E+02 0.  0.
    9900012    2    3    3    0    0  0.13771043608E+02 -0.30909135940E+02 -0.14517884097E+02  0.54367010262E+02  0.39999831494E+02 0.  0.
         12    1    3    3    0    0 -0.13771043608E+02  0.30909135940E+02  0.14517884097E+02  0.36820989738E+02  0.00000000000E+00 0. -1.
         11    1    4    4    0    0  0.11873763028E+02 -0.20623821894E+02  0.26779980378E+01  0.23947859022E+02  0.51100000000E-03 0. -1.
        -11    1    4    4    0    0  0.18027281884E+01 -0.13379936119E+02 -0.21336425921E+02  0.25249071088E+02  0.51100000000E-03 0.  1.
         12    1    4    4    0    0  0.94552391637E-01  0.30946220724E+01  0.41405437868E+01  0.51700801518E+01  0.00000000000E+00 0. -1.
</event>
<event>
 8    1  0.1238315E-006  0.9118800E+02  0.7816164E-02  0.1184000E+00
        -11   -1    0    0    0    0  0.00000000000E+00  0.00000000000E+00  0.45593999997E+02  0.45594000000E+02  0.51100000000E-03 0. -1.
         11   -1    0    0    0    0 -0.00000000000E+00 -0.00000000000E+00 -0.45593999997E+02  0.45594000000E+02  0.51100000000E-03 0.  1.
         23    2    1    2    0    0  0.00000000000E+00  0.00000000000E+00  0.00000000000E+00  0.91188000000E+02  0.91188000000E+02 0.  0.
    9900012    2    3    3    0    0 -0.42735588073E+01 -0.92222799706E+01 -0.35390219972E+02  0.54367062717E+02  0.39999951076E+02 0.  0.
         12    1    3    3    0    0  0.42735588073E+01  0.92222799706E+01  0.35390219972E+02  0.36820937283E+02  0.00000000000E+00 0. -1.
         11    1    4    4    0    0 -0.87569107700E+01 -0.13232901611E+02 -0.62758219197E+01  0.17063971176E+02  0.51100000000E-03 0. -1.
        -11    1    4    4    0    0  0.64506547204E+01 -0.82149464021E+01 -0.17175919561E+02  0.20102450192E+02  0.51100000000E-03 0.  1.
         12    1    4    4    0    0 -0.19673027576E+01  0.12225568042E+02 -0.11938478492E+02  0.17200641348E+02  0.00000000000E+00 0. -1.
</event>
<event>
 8    1  0.1238315E-006  0.9118800E+02  0.7816164E-02  0.1184000E+00
        -11   -1    0    0    0    0  0.00000000000E+00  0.00000000000E+00  0.45593999997E+02  0.45594000000E+02  0.51100000000E-03 0.  1.
         11   -1    0    0    0    0 -0.00000000000E+00 -0.00000000000E+00 -0.45593999997E+02  0.45594000000E+02  0.51100000000E-03 0. -1.
         23    2    1    2    0    0  0.00000000000E+00  0.35527136788E-14  0.00000000000E+00  0.91188000000E+02  0.91188000000E+02 0.  0.
    9900012    2    3    3    0    0  0.18372818594E+02 -0.18442134252E+02  0.26040471915E+02  0.54367096204E+02  0.40000027415E+02 0.  0.
         12    1    3    3    0    0 -0.18372818594E+02  0.18442134252E+02 -0.26040471915E+02  0.36820903796E+02  0.00000000000E+00 0. -1.
         11    1    4    4    0    0  0.59753931276E+01  0.33904002510E+01  0.13445795549E+01  0.70005736431E+01  0.51100000000E-03 0. -1.
        -11    1    4    4    0    0  0.98984468804E+01 -0.23198270105E+02  0.29029624989E+01  0.25388307901E+02  0.51100000000E-03 0.  1.
         12    1    4    4    0    0  0.24989785855E+01  0.13657356022E+01  0.21792929861E+02  0.21978214660E+02  0.00000000000E+00 0. -1.
</event>
<event>
 8    1  0.1238315E-006  0.9118800E+02  0.7816164E-02  0.1184000E+00
        -11   -1    0    0    0    0  0.00000000000E+00  0.00000000000E+00  0.45593999997E+02  0.45594000000E+02  0.51100000000E-03 0. -1.
         11   -1    0    0    0    0 -0.00000000000E+00 -0.00000000000E+00 -0.45593999997E+02  0.45594000000E+02  0.51100000000E-03 0.  1.
         23    2    1    2    0    0  0.35527136788E-14  0.71054273576E-14 -0.17763568394E-14  0.91188000000E+02  0.91188000000E+02 0.  0.
    9900012    2    3    3    0    0  0.23254924830E+02  0.26675366748E+02 -0.10169165265E+02  0.54367100470E+02  0.40000037142E+02 0.  0.
         12    1    3    3    0    0 -0.23254924830E+02 -0.26675366748E+02  0.10169165265E+02  0.36820899530E+02  0.00000000000E+00 0. -1.
         11    1    4    4    0    0  0.23264468700E-01  0.32481393417E+01  0.52240166753E+01  0.61515283389E+01  0.51100000000E-03 0. -1.
        -11    1    4    4    0    0  0.26866298801E+02  0.27963412549E+02 -0.16758772812E+02  0.42244608166E+02  0.51100000000E-03 0.  1.
         12    1    4    4    0    0 -0.36346384397E+01 -0.45361851431E+01  0.13655908722E+01  0.59709639649E+01  0.00000000000E+00 0. -1.
</event>
<event>
 8    1  0.1238315E-006  0.9118800E+02  0.7816164E-02  0.1184000E+00
        -11   -1    0    0    0    0  0.00000000000E+00  0.00000000000E+00  0.45593999997E+02  0.45594000000E+02  0.51100000000E-03 0. -1.
         11   -1    0    0    0    0 -0.00000000000E+00 -0.00000000000E+00 -0.45593999997E+02  0.45594000000E+02  0.51100000000E-03 0.  1.
         23    2    1    2    0    0  0.00000000000E+00  0.44408920985E-15 -0.71054273576E-14  0.91188000000E+02  0.91188000000E+02 0.  0.
    9900012    2    3    3    0    0  0.21780315988E+01  0.25463878742E+01  0.36668128219E+02  0.54367088279E+02  0.40000009351E+02 0.  0.
        -12    1    3    3    0    0 -0.21780315988E+01 -0.25463878742E+01 -0.36668128219E+02  0.36820911721E+02  0.00000000000E+00 0.  1.
         11    1    4    4    0    0 -0.30610535219E+01 -0.61429729533E+01  0.11293379863E+02  0.13215392327E+02  0.51100000000E-03 0. -1.
        -11    1    4    4    0    0 -0.84064585742E+01  0.15128759615E+02  0.13379157031E+02  0.21875780132E+02  0.51100000000E-03 0.  1.
         12    1    4    4    0    0  0.13645543695E+02 -0.64393987878E+01  0.11995591325E+02  0.19275915820E+02  0.00000000000E+00 0. -1.
</event>
<event>
 8    1  0.1238315E-006  0.9118800E+02  0.7816164E-02  0.1184000E+00
        -11   -1    0    0    0    0  0.00000000000E+00  0.00000000000E+00  0.45593999997E+02  0.45594000000E+02  0.51100000000E-03 0.  1.
         11   -1    0    0    0    0 -0.00000000000E+00 -0.00000000000E+00 -0.45593999997E+02  0.45594000000E+02  0.51100000000E-03 0. -1.
         23    2    1    2    0    0 -0.17763568394E-14 -0.35527136788E-14  0.35527136788E-14  0.91188000000E+02  0.91188000000E+02 0.  0.
    9900012    2    3    3    0    0  0.13360799863E+02  0.26558562903E+02 -0.21723377288E+02  0.54367172236E+02  0.40000200745E+02 0.  0.
        -12    1    3    3    0    0 -0.13360799863E+02 -0.26558562903E+02  0.21723377288E+02  0.36820827764E+02  0.00000000000E+00 0.  1.
         11    1    4    4    0    0 -0.43626263294E+01  0.14905511267E+02  0.29961745573E+00  0.15533722847E+02  0.51100000000E-03 0. -1.
        -11    1    4    4    0    0 -0.58864067193E+01  0.14025337280E+01 -0.25895332000E+01  0.65819881022E+01  0.51100000000E-03 0.  1.
         12    1    4    4    0    0  0.23609832912E+02  0.10250517908E+02 -0.19433461544E+02  0.32251461286E+02  0.00000000000E+00 0. -1.
</event>
<event>
 8    1  0.1238315E-006  0.9118800E+02  0.7816164E-02  0.1184000E+00
        -11   -1    0    0    0    0  0.00000000000E+00  0.00000000000E+00  0.45593999997E+02  0.45594000000E+02  0.51100000000E-03 0.  1.
         11   -1    0    0    0    0 -0.00000000000E+00 -0.00000000000E+00 -0.45593999997E+02  0.45594000000E+02  0.51100000000E-03 0. -1.
         23    2    1    2    0    0  0.00000000000E+00 -0.88817841970E-15  0.35527136788E-14  0.91188000000E+02  0.91188000000E+02 0.  0.
    9900012    2    3    3    0    0 -0.21550323068E+02  0.29514547245E+01 -0.29709455571E+02  0.54367092085E+02  0.40000018027E+02 0.  0.
        -12    1    3    3    0    0  0.21550323068E+02 -0.29514547245E+01  0.29709455571E+02  0.36820907915E+02  0.00000000000E+00 0.  1.
         11    1    4    4    0    0  0.40990659790E+01 -0.64522668182E+01  0.20038955950E+01  0.79025114242E+01  0.51100000000E-03 0. -1.
        -11    1    4    4    0    0 -0.10047170720E+02  0.20473458099E+01  0.12423317308E+00  0.10254398982E+02  0.51100000000E-03 0.  1.
         12    1    4    4    0    0 -0.15602218327E+02  0.73563757328E+01 -0.31837584339E+02  0.36210181679E+02  0.00000000000E+00 0. -1.
</event>
<event>
 8    1  0.1238315E-006  0.9118800E+02  0.7816164E-02  0.1184000E+00
        -11   -1    0    0    0    0  0.00000000000E+00  0.00000000000E+00  0.45593999997E+02  0.45594000000E+02  0.51100000000E-03 0.  1.
         11   -1    0    0    0    0 -0.00000000000E+00 -0.00000000000E+00 -0.45593999997E+02  0.45594000000E+02  0.51100000000E-03 0. -1.
         23    2    1    2    0    0  0.00000000000E+00 -0.17763568394E-14  0.35527136788E-14  0.91188000000E+02  0.91188000000E+02 0.  0.
    9900012    2    3    3    0    0  0.28272914356E+02  0.15576127633E+02 -0.17714590855E+02  0.54367079759E+02  0.39999989928E+02 0.  0.
        -12    1    3    3    0    0 -0.28272914356E+02 -0.15576127633E+02  0.17714590855E+02  0.36820920241E+02  0.00000000000E+00 0.  1.
         11    1    4    4    0    0  0.29582420100E+02  0.14358025453E+02 -0.19528132349E+02  0.38244220834E+02  0.51100000000E-03 0. -1.
        -11    1    4    4    0    0  0.33119090956E+00 -0.66467184160E+01 -0.23704670566E+01  0.70645358975E+01  0.51100000000E-03 0.  1.
         12    1    4    4    0    0 -0.16406966539E+01  0.78648205964E+01  0.41840085512E+01  0.90583230280E+01  0.00000000000E+00 0. -1.
</event>
<event>
 8    1  0.1238315E-006  0.9118800E+02  0.7816164E-02  0.1184000E+00
        -11   -1    0    0    0    0  0.00000000000E+00  0.00000000000E+00  0.45593999997E+02  0.45594000000E+02  0.51100000000E-03 0.  1.
         11   -1    0    0    0    0 -0.00000000000E+00 -0.00000000000E+00 -0.45593999997E+02  0.45594000000E+02  0.51100000000E-03 0. -1.
         23    2    1    2    0    0 -0.71054273576E-14  0.11102230246E-14 -0.35527136788E-14  0.91188000000E+02  0.91188000000E+02 0.  0.
    9900012    2    3    3    0    0 -0.34200477436E+02 -0.14396089309E+01 -0.13565922292E+02  0.54367090473E+02  0.40000014352E+02 0.  0.
        -12    1    3    3    0    0  0.34200477436E+02  0.14396089309E+01  0.13565922292E+02  0.36820909527E+02  0.00000000000E+00 0.  1.
         11    1    4    4    0    0 -0.28408125709E+02  0.13297295746E+01  0.67345449621E+01  0.29225740079E+02  0.51100000000E-03 0. -1.
        -11    1    4    4    0    0 -0.40470120485E-01  0.40764345349E+01 -0.15377482234E+01  0.43570203360E+01  0.51100000000E-03 0.  1.
         12    1    4    4    0    0 -0.57518816063E+01 -0.68457730404E+01 -0.18762719031E+02  0.20784330058E+02  0.00000000000E+00 0. -1.
</event>
<event>
 8    1  0.1238315E-006  0.9118800E+02  0.7816164E-02  0.1184000E+00
        -11   -1    0    0    0    0  0.00000000000E+00  0.00000000000E+00  0.45593999997E+02  0.45594000000E+02  0.51100000000E-03 0.  1.
         11   -1    0    0    0    0 -0.00000000000E+00 -0.00000000000E+00 -0.45593999997E+02  0.45594000000E+02  0.51100000000E-03 0. -1.
         23    2    1    2    0    0 -0.17763568394E-14  0.00000000000E+00  0.00000000000E+00  0.91188000000E+02  0.91188000000E+02 0.  0.
    9900012    2    3    3    0    0  0.96872250338E+01 -0.81360161120E+01  0.34579482678E+02  0.54367113138E+02  0.40000066021E+02 0.  0.
         12    1    3    3    0    0 -0.96872250338E+01  0.81360161120E+01 -0.34579482678E+02  0.36820886862E+02  0.00000000000E+00 0. -1.
         11    1    4    4    0    0  0.10439589954E+02 -0.35131262054E+01 -0.26334332440E+01  0.11325284326E+02  0.51100000000E-03 0. -1.
        -11    1    4    4    0    0 -0.20263226403E+00 -0.11553544797E+02  0.32875997769E+02  0.34847620963E+02  0.51100000000E-03 0.  1.
         12    1    4    4    0    0 -0.54973265631E+00  0.69306548908E+01  0.43369181531E+01  0.81942078491E+01  0.00000000000E+00 0. -1.
</event>
<event>
 8    1  0.1238315E-006  0.9118800E+02  0.7816164E-02  0.1184000E+00
        -11   -1    0    0    0    0  0.00000000000E+00  0.00000000000E+00  0.45593999997E+02  0.45594000000E+02  0.51100000000E-03 0. -1.
         11   -1    0    0    0    0 -0.00000000000E+00 -0.00000000000E+00 -0.45593999997E+02  0.45594000000E+02  0.51100000000E-03 0.  1.
         23    2    1    2    0    0  0.35527136788E-14  0.00000000000E+00  0.17763568394E-14  0.91188000000E+02  0.91188000000E+02 0.  0.
    9900012    2    3    3    0    0  0.30312676641E+02 -0.19690562685E+02 -0.70144614867E+01  0.54367091620E+02  0.40000016966E+02 0.  0.
         12    1    3    3    0    0 -0.30312676641E+02  0.19690562685E+02  0.70144614867E+01  0.36820908380E+02  0.00000000000E+00 0. -1.
         11    1    4    4    0    0  0.11787027965E+02  0.72405690715E+01 -0.43696249100E+01  0.14507015229E+02  0.51100000000E-03 0. -1.
        -11    1    4    4    0    0  0.98769518869E+01 -0.91129938612E+01  0.96531486229E+01  0.16546423006E+02  0.51100000000E-03 0.  1.
        -12    1    4    4    0    0  0.86486967892E+01 -0.17818137895E+02 -0.12297985200E+02  0.23313653385E+02  0.00000000000E+00 0.  1.
</event>
<event>
 8    1  0.1238315E-006  0.9118800E+02  0.7816164E-02  0.1184000E+00
        -11   -1    0    0    0    0  0.00000000000E+00  0.00000000000E+00  0.45593999997E+02  0.45594000000E+02  0.51100000000E-03 0.  1.
         11   -1    0    0    0    0 -0.00000000000E+00 -0.00000000000E+00 -0.45593999997E+02  0.45594000000E+02  0.51100000000E-03 0. -1.
         23    2    1    2    0    0  0.71054273576E-14 -0.44408920985E-15 -0.17763568394E-14  0.91188000000E+02  0.91188000000E+02 0.  0.
    9900012    2    3    3    0    0  0.35916856776E+02  0.37868360542E+01 -0.71706777355E+01  0.54367090897E+02  0.40000015317E+02 0.  0.
        -12    1    3    3    0    0 -0.35916856776E+02 -0.37868360542E+01  0.71706777355E+01  0.36820909103E+02  0.00000000000E+00 0.  1.
         11    1    4    4    0    0  0.17373656721E+02  0.13841570095E+02 -0.10253697363E+02  0.24465717247E+02  0.51100000000E-03 0. -1.
        -11    1    4    4    0    0  0.36370432813E+00  0.56177202064E+01  0.16031323778E+01  0.58532977745E+01  0.51100000000E-03 0.  1.
        -12    1    4    4    0    0  0.18179495727E+02 -0.15672454247E+02  0.14798872501E+01  0.24048075875E+02  0.00000000000E+00 0.  1.
</event>
<event>
 8    1  0.1238315E-006  0.9118800E+02  0.7816164E-02  0.1184000E+00
        -11   -1    0    0    0    0  0.00000000000E+00  0.00000000000E+00  0.45593999997E+02  0.45594000000E+02  0.51100000000E-03 0.  1.
         11   -1    0    0    0    0 -0.00000000000E+00 -0.00000000000E+00 -0.45593999997E+02  0.45594000000E+02  0.51100000000E-03 0. -1.
         23    2    1    2    0    0  0.35527136788E-14  0.00000000000E+00  0.17763568394E-14  0.91188000000E+02  0.91188000000E+02 0.  0.
    9900012    2    3    3    0    0 -0.22281136586E+02  0.25817224281E+02 -0.13885376437E+02  0.54367057644E+02  0.39999939511E+02 0.  0.
        -12    1    3    3    0    0  0.22281136586E+02 -0.25817224281E+02  0.13885376437E+02  0.36820942356E+02  0.00000000000E+00 0.  1.
         11    1    4    4    0    0 -0.26839195256E+02  0.19620077674E+02 -0.62010903287E+01  0.33819275147E+02  0.51100000000E-03 0.  1.
        -11    1    4    4    0    0 -0.37036725126E+01  0.92552625704E+01 -0.23257327799E+01  0.10236508611E+02  0.51100000000E-03 0. -1.
        -12    1    4    4    0    0  0.82617311823E+01 -0.30581159629E+01 -0.53585533285E+01  0.10311273886E+02  0.00000000000E+00 0.  1.
</event>
<event>
 8    1  0.1238315E-006  0.9118800E+02  0.7816164E-02  0.1184000E+00
        -11   -1    0    0    0    0  0.00000000000E+00  0.00000000000E+00  0.45593999997E+02  0.45594000000E+02  0.51100000000E-03 0. -1.
         11   -1    0    0    0    0 -0.00000000000E+00 -0.00000000000E+00 -0.45593999997E+02  0.45594000000E+02  0.51100000000E-03 0.  1.
         23    2    1    2    0    0 -0.28588242884E-14  0.00000000000E+00  0.00000000000E+00  0.91188000000E+02  0.91188000000E+02 0.  0.
    9900012    2    3    3    0    0  0.18029677303E+00  0.69585206472E+01 -0.36156973276E+02  0.54367078868E+02  0.39999987894E+02 0.  0.
         12    1    3    3    0    0 -0.18029677303E+00 -0.69585206472E+01  0.36156973276E+02  0.36820921132E+02  0.00000000000E+00 0. -1.
         11    1    4    4    0    0 -0.13525322997E+02  0.58553432440E+01 -0.96693688819E+01  0.17627141048E+02  0.51100000000E-03 0. -1.
        -11    1    4    4    0    0  0.74001299960E+01  0.27939783026E+01 -0.28759662159E+02  0.29827611478E+02  0.51100000000E-03 0.  1.
         12    1    4    4    0    0  0.63054897743E+01 -0.16908008994E+01  0.22720577643E+01  0.69123263421E+01  0.00000000000E+00 0. -1.
</event>
<event>
 8    1  0.1238315E-006  0.9118800E+02  0.7816164E-02  0.1184000E+00
        -11   -1    0    0    0    0  0.00000000000E+00  0.00000000000E+00  0.45593999997E+02  0.45594000000E+02  0.51100000000E-03 0.  1.
         11   -1    0    0    0    0 -0.00000000000E+00 -0.00000000000E+00 -0.45593999997E+02  0.45594000000E+02  0.51100000000E-03 0. -1.
         23    2    1    2    0    0 -0.35527136788E-14  0.00000000000E+00  0.00000000000E+00  0.91188000000E+02  0.91188000000E+02 0.  0.
    9900012    2    3    3    0    0  0.24242905814E+02 -0.80505748912E+01 -0.26518868413E+02  0.54367073609E+02  0.39999975907E+02 0.  0.
         12    1    3    3    0    0 -0.24242905814E+02  0.80505748912E+01  0.26518868413E+02  0.36820926391E+02  0.00000000000E+00 0. -1.
         11    1    4    4    0    0  0.10139893911E+02 -0.15764941872E+02 -0.25698768186E+02  0.31808450564E+02  0.51100000000E-03 0. -1.
        -11    1    4    4    0    0  0.15685549867E+02  0.39006576804E+01  0.35477503168E+01  0.16548055401E+02  0.51100000000E-03 0.  1.
        -12    1    4    4    0    0 -0.15825379638E+01  0.38137093005E+01 -0.43678505437E+01  0.60105676443E+01  0.00000000000E+00 0.  1.
</event>
<event>
 8    1  0.1238315E-006  0.9118800E+02  0.7816164E-02  0.1184000E+00
        -11   -1    0    0    0    0  0.00000000000E+00  0.00000000000E+00  0.45593999997E+02  0.45594000000E+02  0.51100000000E-03 0.  1.
         11   -1    0    0    0    0 -0.00000000000E+00 -0.00000000000E+00 -0.45593999997E+02  0.45594000000E+02  0.51100000000E-03 0. -1.
         23    2    1    2    0    0 -0.35527136788E-14  0.00000000000E+00  0.00000000000E+00  0.91188000000E+02  0.91188000000E+02 0.  0.
    9900012    2    3    3    0    0 -0.29026854571E+02 -0.71481770628E+01 -0.21497004855E+02  0.54367137173E+02  0.40000120813E+02 0.  0.
        -12    1    3    3    0    0  0.29026854571E+02  0.71481770628E+01  0.21497004855E+02  0.36820862827E+02  0.00000000000E+00 0.  1.
         11    1    4    4    0    0 -0.81330104126E+01  0.76190662465E+01 -0.76446256093E+01  0.13514300937E+02  0.51100000000E-03 0.  1.
        -11    1    4    4    0    0 -0.18107662182E+02  0.61475464000E+00 -0.17070063429E+02  0.24892818617E+02  0.51100000000E-03 0. -1.
        -12    1    4    4    0    0 -0.27861819766E+01 -0.15381997949E+02  0.32176841833E+01  0.15960017620E+02  0.00000000000E+00 0.  1.
</event>
<event>
 8    1  0.1238315E-006  0.9118800E+02  0.7816164E-02  0.1184000E+00
        -11   -1    0    0    0    0  0.00000000000E+00  0.00000000000E+00  0.45593999997E+02  0.45594000000E+02  0.51100000000E-03 0. -1.
         11   -1    0    0    0    0 -0.00000000000E+00 -0.00000000000E+00 -0.45593999997E+02  0.45594000000E+02  0.51100000000E-03 0.  1.
         23    2    1    2    0    0  0.35527136788E-14  0.35527136788E-14  0.00000000000E+00  0.91188000000E+02  0.91188000000E+02 0.  0.
    9900012    2    3    3    0    0  0.17030022071E+02  0.22645319550E+02  0.23514950547E+02  0.54367013478E+02  0.39999838826E+02 0.  0.
        -12    1    3    3    0    0 -0.17030022071E+02 -0.22645319550E+02 -0.23514950547E+02  0.36820986522E+02  0.00000000000E+00 0.  1.
         11    1    4    4    0    0  0.16608957201E+02  0.83669983478E+01  0.13657710569E+02  0.23073733528E+02  0.51100000000E-03 0. -1.
        -11    1    4    4    0    0 -0.78686824245E+01 -0.43795206422E+01  0.50258316119E+01  0.10312872917E+02  0.51100000000E-03 0.  1.
        -12    1    4    4    0    0  0.82897472942E+01  0.18657841844E+02  0.48314083655E+01  0.20980407033E+02  0.00000000000E+00 0.  1.
</event>
<event>
 8    1  0.1238315E-006  0.9118800E+02  0.7816164E-02  0.1184000E+00
        -11   -1    0    0    0    0  0.00000000000E+00  0.00000000000E+00  0.45593999997E+02  0.45594000000E+02  0.51100000000E-03 0. -1.
         11   -1    0    0    0    0 -0.00000000000E+00 -0.00000000000E+00 -0.45593999997E+02  0.45594000000E+02  0.51100000000E-03 0.  1.
         23    2    1    2    0    0 -0.10658141036E-13  0.00000000000E+00  0.35527136788E-14  0.91188000000E+02  0.91188000000E+02 0.  0.
    9900012    2    3    3    0    0  0.30636255130E+02  0.61553905540E+01 -0.19475906881E+02  0.54367083253E+02  0.39999997892E+02 0.  0.
         12    1    3    3    0    0 -0.30636255130E+02 -0.61553905540E+01  0.19475906881E+02  0.36820916747E+02  0.00000000000E+00 0. -1.
         11    1    4    4    0    0 -0.16160396269E+01  0.17722194711E+01  0.20147831983E+01  0.31323629302E+01  0.51100000000E-03 0. -1.
        -11    1    4    4    0    0 -0.24149518151E+00 -0.71264920033E+01  0.41700314817E+01  0.82604098576E+01  0.51100000000E-03 0.  1.
         12    1    4    4    0    0  0.32493789938E+02  0.11509663086E+02 -0.25660721561E+02  0.42974310465E+02  0.00000000000E+00 0. -1.
</event>
<event>
 8    1  0.1238315E-006  0.9118800E+02  0.7816164E-02  0.1184000E+00
        -11   -1    0    0    0    0  0.00000000000E+00  0.00000000000E+00  0.45593999997E+02  0.45594000000E+02  0.51100000000E-03 0.  1.
         11   -1    0    0    0    0 -0.00000000000E+00 -0.00000000000E+00 -0.45593999997E+02  0.45594000000E+02  0.51100000000E-03 0. -1.
         23    2    1    2    0    0  0.00000000000E+00  0.00000000000E+00  0.17763568394E-14  0.91188000000E+02  0.91188000000E+02 0.  0.
    9900012    2    3    3    0    0  0.44690598355E+01  0.34443899295E+02 -0.12223867951E+02  0.54367114050E+02  0.40000068101E+02 0.  0.
        -12    1    3    3    0    0 -0.44690598355E+01 -0.34443899295E+02  0.12223867951E+02  0.36820885950E+02  0.00000000000E+00 0.  1.
         11    1    4    4    0    0  0.64060829867E+01  0.13705327575E+02 -0.29741324639E+01  0.15418150581E+02  0.51100000000E-03 0.  1.
        -11    1    4    4    0    0  0.90400785207E+01  0.10498249308E+02 -0.17100311586E+02  0.22008110205E+02  0.51100000000E-03 0. -1.
        -12    1    4    4    0    0 -0.10977101672E+02  0.10240322412E+02  0.78505760996E+01  0.16940853264E+02  0.00000000000E+00 0.  1.
</event>
<event>
 8    1  0.1238315E-006  0.9118800E+02  0.7816164E-02  0.1184000E+00
        -11   -1    0    0    0    0  0.00000000000E+00  0.00000000000E+00  0.45593999997E+02  0.45594000000E+02  0.51100000000E-03 0.  1.
         11   -1    0    0    0    0 -0.00000000000E+00 -0.00000000000E+00 -0.45593999997E+02  0.45594000000E+02  0.51100000000E-03 0. -1.
         23    2    1    2    0    0  0.00000000000E+00  0.00000000000E+00  0.35527136788E-14  0.91188000000E+02  0.91188000000E+02 0.  0.
    9900012    2    3    3    0    0  0.89893298036E+01  0.22872439572E+02 -0.27419419528E+02  0.54367066965E+02  0.39999960761E+02 0.  0.
        -12    1    3    3    0    0 -0.89893298036E+01 -0.22872439572E+02  0.27419419528E+02  0.36820933035E+02  0.00000000000E+00 0.  1.
         11    1    4    4    0    0  0.81459615501E+00  0.24503194235E+02 -0.14622855497E+02  0.28546418300E+02  0.51100000000E-03 0. -1.
        -11    1    4    4    0    0  0.36814202003E+01 -0.47028556757E+01  0.46344028190E+01  0.75595896679E+01  0.51100000000E-03 0.  1.
         12    1    4    4    0    0  0.44933134484E+01  0.30721010127E+01 -0.17430966850E+02  0.18261058998E+02  0.00000000000E+00 0. -1.
</event>
<event>
 8    1  0.1238315E-006  0.9118800E+02  0.7816164E-02  0.1184000E+00
        -11   -1    0    0    0    0  0.00000000000E+00  0.00000000000E+00  0.45593999997E+02  0.45594000000E+02  0.51100000000E-03 0.  1.
         11   -1    0    0    0    0 -0.00000000000E+00 -0.00000000000E+00 -0.45593999997E+02  0.45594000000E+02  0.51100000000E-03 0. -1.
         23    2    1    2    0    0 -0.35527136788E-14  0.35527136788E-14 -0.17763568394E-14  0.91188000000E+02  0.91188000000E+02 0.  0.
    9900012    2    3    3    0    0 -0.28859147406E+02  0.19123952963E+02  0.12538090844E+02  0.54367086270E+02  0.40000004769E+02 0.  0.
         12    1    3    3    0    0  0.28859147406E+02 -0.19123952963E+02 -0.12538090844E+02  0.36820913730E+02  0.00000000000E+00 0. -1.
         11    1    4    4    0    0  0.12988452822E+01  0.21181242009E+01  0.15425917321E+01  0.29245578658E+01  0.51100000000E-03 0. -1.
        -11    1    4    4    0    0  0.14350989271E+01 -0.86994934966E+01 -0.12659384674E+01  0.89074854192E+01  0.51100000000E-03 0.  1.
        -12    1    4    4    0    0 -0.31593091615E+02  0.25705322259E+02  0.12261437579E+02  0.42535042985E+02  0.00000000000E+00 0.  1.
</event>
<event>
 8    1  0.1238315E-006  0.9118800E+02  0.7816164E-02  0.1184000E+00
        -11   -1    0    0    0    0  0.00000000000E+00  0.00000000000E+00  0.45593999997E+02  0.45594000000E+02  0.51100000000E-03 0.  1.
         11   -1    0    0    0    0 -0.00000000000E+00 -0.00000000000E+00 -0.45593999997E+02  0.45594000000E+02  0.51100000000E-03 0. -1.
         23    2    1    2    0    0  0.17763568394E-14  0.00000000000E+00  0.00000000000E+00  0.91188000000E+02  0.91188000000E+02 0.  0.
    9900012    2    3    3    0    0 -0.13347426212E+02  0.19815952664E+02  0.28016912910E+02  0.54367174704E+02  0.40000206372E+02 0.  0.
         12    1    3    3    0    0  0.13347426212E+02 -0.19815952664E+02 -0.28016912910E+02  0.36820825296E+02  0.00000000000E+00 0. -1.
         11    1    4    4    0    0  0.77571757100E+00 -0.86504471442E+01 -0.14778593527E+01  0.88099967124E+01  0.51100000000E-03 0. -1.
        -11    1    4    4    0    0 -0.63370187430E+01  0.11822128533E+02  0.21884675076E+02  0.25668259252E+02  0.51100000000E-03 0.  1.
        -12    1    4    4    0    0 -0.77861250397E+01  0.16644271275E+02  0.76100971868E+01  0.19888918739E+02  0.00000000000E+00 0.  1.
</event>
<event>
 8    1  0.1238315E-006  0.9118800E+02  0.7816164E-02  0.1184000E+00
        -11   -1    0    0    0    0  0.00000000000E+00  0.00000000000E+00  0.45593999997E+02  0.45594000000E+02  0.51100000000E-03 0. -1.
         11   -1    0    0    0    0 -0.00000000000E+00 -0.00000000000E+00 -0.45593999997E+02  0.45594000000E+02  0.51100000000E-03 0.  1.
         23    2    1    2    0    0  0.71054273576E-14  0.17763568394E-14 -0.17763568394E-14  0.91188000000E+02  0.91188000000E+02 0.  0.
    9900012    2    3    3    0    0  0.32579775043E+02  0.11573431686E+02 -0.12664638569E+02  0.54367093806E+02  0.40000021950E+02 0.  0.
        -12    1    3    3    0    0 -0.32579775043E+02 -0.11573431686E+02  0.12664638569E+02  0.36820906194E+02  0.00000000000E+00 0.  1.
         11    1    4    4    0    0  0.28213149244E+02 -0.74349356687E+01 -0.74019183868E+00  0.29185748969E+02  0.51100000000E-03 0. -1.
        -11    1    4    4    0    0  0.56838541312E+01  0.15017516703E+02 -0.45431398990E+01  0.16687484116E+02  0.51100000000E-03 0.  1.
        -12    1    4    4    0    0 -0.13172283326E+01  0.39908506521E+01 -0.73813068316E+01  0.84938607211E+01  0.00000000000E+00 0.  1.
</event>
<event>
 8    1  0.1238315E-006  0.9118800E+02  0.7816164E-02  0.1184000E+00
        -11   -1    0    0    0    0  0.00000000000E+00  0.00000000000E+00  0.45593999997E+02  0.45594000000E+02  0.51100000000E-03 0. -1.
         11   -1    0    0    0    0 -0.00000000000E+00 -0.00000000000E+00 -0.45593999997E+02  0.45594000000E+02  0.51100000000E-03 0.  1.
         23    2    1    2    0    0 -0.71054273576E-14  0.35527136788E-14  0.17763568394E-14  0.91188000000E+02  0.91188000000E+02 0.  0.
    9900012    2    3    3    0    0 -0.25489036428E+02  0.24672321147E+02  0.98673843904E+01  0.54367086330E+02  0.40000004906E+02 0.  0.
         12    1    3    3    0    0  0.25489036428E+02 -0.24672321147E+02 -0.98673843904E+01  0.36820913670E+02  0.00000000000E+00 0. -1.
         11    1    4    4    0    0  0.57261763506E+01  0.31354495235E+01  0.47383115811E+00  0.65455829030E+01  0.51100000000E-03 0. -1.
        -11    1    4    4    0    0 -0.33785483917E+02  0.25035335968E+02  0.63672635719E+01  0.42529625159E+02  0.51100000000E-03 0.  1.
         12    1    4    4    0    0  0.25702711380E+01 -0.34984643442E+01  0.30262896603E+01  0.52918782676E+01  0.00000000000E+00 0. -1.
</event>
<event>
 8    1  0.1238315E-006  0.9118800E+02  0.7816164E-02  0.1184000E+00
        -11   -1    0    0    0    0  0.00000000000E+00  0.00000000000E+00  0.45593999997E+02  0.45594000000E+02  0.51100000000E-03 0.  1.
         11   -1    0    0    0    0 -0.00000000000E+00 -0.00000000000E+00 -0.45593999997E+02  0.45594000000E+02  0.51100000000E-03 0. -1.
         23    2    1    2    0    0  0.00000000000E+00 -0.22204460493E-15  0.00000000000E+00  0.91188000000E+02  0.91188000000E+02 0.  0.
    9900012    2    3    3    0    0  0.32764659193E+02  0.14370245633E+01 -0.16738865031E+02  0.54367115516E+02  0.40000071443E+02 0.  0.
        -12    1    3    3    0    0 -0.32764659193E+02 -0.14370245633E+01  0.16738865031E+02  0.36820884484E+02  0.00000000000E+00 0.  1.
         11    1    4    4    0    0  0.79405901799E+01  0.62615355478E+01 -0.10761898075E+02  0.14767472711E+02  0.51100000000E-03 0. -1.
        -11    1    4    4    0    0  0.19446051551E+02 -0.25264494482E+01  0.10409261080E+02  0.22201004127E+02  0.51100000000E-03 0.  1.
        -12    1    4    4    0    0  0.53780174619E+01 -0.22980615362E+01 -0.16386228035E+02  0.17398638679E+02  0.00000000000E+00 0.  1.
</event>
<event>
 8    1  0.1238315E-006  0.9118800E+02  0.7816164E-02  0.1184000E+00
        -11   -1    0    0    0    0  0.00000000000E+00  0.00000000000E+00  0.45593999997E+02  0.45594000000E+02  0.51100000000E-03 0.  1.
         11   -1    0    0    0    0 -0.00000000000E+00 -0.00000000000E+00 -0.45593999997E+02  0.45594000000E+02  0.51100000000E-03 0. -1.
         23    2    1    2    0    0  0.00000000000E+00  0.00000000000E+00 -0.71054273576E-14  0.91188000000E+02  0.91188000000E+02 0.  0.
    9900012    2    3    3    0    0  0.13915069198E+02  0.86171619909E+01  0.32983239933E+02  0.54367099032E+02  0.40000033864E+02 0.  0.
         12    1    3    3    0    0 -0.13915069198E+02 -0.86171619909E+01 -0.32983239933E+02  0.36820900968E+02  0.00000000000E+00 0. -1.
         11    1    4    4    0    0  0.36597647736E+01  0.97677635301E+01 -0.11033341951E+01  0.10489062360E+02  0.51100000000E-03 0. -1.
        -11    1    4    4    0    0 -0.39516155051E+01 -0.88424952487E+01  0.57610653764E+01  0.11269199699E+02  0.51100000000E-03 0.  1.
        -12    1    4    4    0    0  0.14206919929E+02  0.76918937095E+01  0.28325508752E+02  0.32608836974E+02  0.00000000000E+00 0.  1.
</event>
<event>
 8    1  0.1238315E-006  0.9118800E+02  0.7816164E-02  0.1184000E+00
        -11   -1    0    0    0    0  0.00000000000E+00  0.00000000000E+00  0.45593999997E+02  0.45594000000E+02  0.51100000000E-03 0.  1.
         11   -1    0    0    0    0 -0.00000000000E+00 -0.00000000000E+00 -0.45593999997E+02  0.45594000000E+02  0.51100000000E-03 0. -1.
         23    2    1    2    0    0  0.00000000000E+00  0.17763568394E-14  0.00000000000E+00  0.91188000000E+02  0.91188000000E+02 0.  0.
    9900012    2    3    3    0    0  0.33092989135E+01 -0.12315760015E+02 -0.34542009858E+02  0.54367084081E+02  0.39999999781E+02 0.  0.
        -12    1    3    3    0    0 -0.33092989135E+01  0.12315760015E+02  0.34542009858E+02  0.36820915919E+02  0.00000000000E+00 0.  1.
         11    1    4    4    0    0 -0.52378898941E+01  0.68647528686E+01 -0.15066185398E+02  0.17365202711E+02  0.51100000000E-03 0. -1.
        -11    1    4    4    0    0  0.12843889336E+02 -0.11260420037E+01 -0.75323899011E+01  0.14932192128E+02  0.51100000000E-03 0.  1.
        -12    1    4    4    0    0 -0.42967005283E+01 -0.18054470880E+02 -0.11943434559E+02  0.22069689242E+02  0.00000000000E+00 0.  1.
</event>
<event>
 8    1  0.1238315E-006  0.9118800E+02  0.7816164E-02  0.1184000E+00
        -11   -1    0    0    0    0  0.00000000000E+00  0.00000000000E+00  0.45593999997E+02  0.45594000000E+02  0.51100000000E-03 0.  1.
         11   -1    0    0    0    0 -0.00000000000E+00 -0.00000000000E+00 -0.45593999997E+02  0.45594000000E+02  0.51100000000E-03 0. -1.
         23    2    1    2    0    0  0.00000000000E+00 -0.66613381478E-15 -0.35527136788E-14  0.91188000000E+02  0.91188000000E+02 0.  0.
    9900012    2    3    3    0    0  0.31923751072E+02  0.12642542712E+00  0.18347682027E+02  0.54367091515E+02  0.40000016727E+02 0.  0.
         12    1    3    3    0    0 -0.31923751072E+02 -0.12642542712E+00 -0.18347682027E+02  0.36820908485E+02  0.00000000000E+00 0. -1.
         11    1    4    4    0    0 -0.45454449960E+00  0.19058235161E+01 -0.42777918481E+01  0.47051330835E+01  0.51100000000E-03 0. -1.
        -11    1    4    4    0    0  0.29919302123E+02 -0.31791917790E+01  0.34568971220E+01  0.30285673806E+02  0.51100000000E-03 0.  1.
        -12    1    4    4    0    0  0.24589934487E+01  0.13997936901E+01  0.19168576753E+02  0.19376284626E+02  0.00000000000E+00 0.  1.
</event>
<event>
 8    1  0.1238315E-006  0.9118800E+02  0.7816164E-02  0.1184000E+00
        -11   -1    0    0    0    0  0.00000000000E+00  0.00000000000E+00  0.45593999997E+02  0.45594000000E+02  0.51100000000E-03 0. -1.
         11   -1    0    0    0    0 -0.00000000000E+00 -0.00000000000E+00 -0.45593999997E+02  0.45594000000E+02  0.51100000000E-03 0.  1.
         23    2    1    2    0    0  0.00000000000E+00  0.00000000000E+00  0.00000000000E+00  0.91188000000E+02  0.91188000000E+02 0.  0.
    9900012    2    3    3    0    0  0.30543228275E+02  0.45336427475E+01 -0.20058334843E+02  0.54367088730E+02  0.40000010379E+02 0.  0.
         12    1    3    3    0    0 -0.30543228275E+02 -0.45336427475E+01  0.20058334843E+02  0.36820911270E+02  0.00000000000E+00 0. -1.
         11    1    4    4    0    0 -0.64184814221E+01  0.20072768156E+01  0.41435340202E+01  0.78990466778E+01  0.51100000000E-03 0. -1.
        -11    1    4    4    0    0  0.97817328557E+01  0.67984467652E+01 -0.50142807979E+01  0.12924557565E+02  0.51100000000E-03 0.  1.
         12    1    4    4    0    0  0.27179976842E+02 -0.42720808333E+01 -0.19187588066E+02  0.33543484487E+02  0.00000000000E+00 0. -1.
</event>
<event>
 8    1  0.1238315E-006  0.9118800E+02  0.7816164E-02  0.1184000E+00
        -11   -1    0    0    0    0  0.00000000000E+00  0.00000000000E+00  0.45593999997E+02  0.45594000000E+02  0.51100000000E-03 0. -1.
         11   -1    0    0    0    0 -0.00000000000E+00 -0.00000000000E+00 -0.45593999997E+02  0.45594000000E+02  0.51100000000E-03 0.  1.
         23    2    1    2    0    0 -0.35527136788E-14  0.88817841970E-15 -0.35527136788E-14  0.91188000000E+02  0.91188000000E+02 0.  0.
    9900012    2    3    3    0    0 -0.29525635711E+02  0.75792386386E+01  0.20653606235E+02  0.54367089189E+02  0.40000011423E+02 0.  0.
        -12    1    3    3    0    0  0.29525635711E+02 -0.75792386386E+01 -0.20653606235E+02  0.36820910811E+02  0.00000000000E+00 0.  1.
         11    1    4    4    0    0 -0.16572804269E+01 -0.59717751555E+01  0.45946892567E+01  0.77149106637E+01  0.51100000000E-03 0. -1.
        -11    1    4    4    0    0 -0.61925978648E+01  0.52647509383E+01 -0.92508411497E+01  0.12314379115E+02  0.51100000000E-03 0.  1.
        -12    1    4    4    0    0 -0.21675757419E+02  0.82862628558E+01  0.25309758128E+02  0.34337799410E+02  0.00000000000E+00 0.  1.
</event>
<event>
 8    1  0.1238315E-006  0.9118800E+02  0.7816164E-02  0.1184000E+00
        -11   -1    0    0    0    0  0.00000000000E+00  0.00000000000E+00  0.45593999997E+02  0.45594000000E+02  0.51100000000E-03 0. -1.
         11   -1    0    0    0    0 -0.00000000000E+00 -0.00000000000E+00 -0.45593999997E+02  0.45594000000E+02  0.51100000000E-03 0.  1.
         23    2    1    2    0    0  0.00000000000E+00  0.35527136788E-14  0.00000000000E+00  0.91188000000E+02  0.91188000000E+02 0.  0.
    9900012    2    3    3    0    0  0.30238461612E+02  0.17126127620E+02  0.12170117191E+02  0.54367074423E+02  0.39999977762E+02 0.  0.
        -12    1    3    3    0    0 -0.30238461612E+02 -0.17126127620E+02 -0.12170117191E+02  0.36820925577E+02  0.00000000000E+00 0.  1.
         11    1    4    4    0    0  0.30472448681E+02  0.18087874390E+02  0.47475095891E-01  0.35436472493E+02  0.51100000000E-03 0. -1.
        -11    1    4    4    0    0  0.43162883223E+01  0.43143549570E+01  0.98772027017E+01  0.11610475315E+02  0.51100000000E-03 0.  1.
        -12    1    4    4    0    0 -0.45502753918E+01 -0.52761017278E+01  0.22454393937E+01  0.73201266146E+01  0.00000000000E+00 0.  1.
</event>
<event>
 8    1  0.1238315E-006  0.9118800E+02  0.7816164E-02  0.1184000E+00
        -11   -1    0    0    0    0  0.00000000000E+00  0.00000000000E+00  0.45593999997E+02  0.45594000000E+02  0.51100000000E-03 0. -1.
         11   -1    0    0    0    0 -0.00000000000E+00 -0.00000000000E+00 -0.45593999997E+02  0.45594000000E+02  0.51100000000E-03 0.  1.
         23    2    1    2    0    0 -0.11102230246E-15  0.00000000000E+00  0.00000000000E+00  0.91188000000E+02  0.91188000000E+02 0.  0.
    9900012    2    3    3    0    0 -0.67549908660E+00 -0.29347510321E+02 -0.22227185504E+02  0.54367076104E+02  0.39999981595E+02 0.  0.
         12    1    3    3    0    0  0.67549908660E+00  0.29347510321E+02  0.22227185504E+02  0.36820923896E+02  0.00000000000E+00 0. -1.
         11    1    4    4    0    0  0.24998310277E+01  0.11188902803E+01 -0.59138670860E+01  0.65172766397E+01  0.51100000000E-03 0. -1.
        -11    1    4    4    0    0 -0.17609430980E+01 -0.13984353583E+02 -0.25346263363E+02  0.29001657409E+02  0.51100000000E-03 0.  1.
         12    1    4    4    0    0 -0.14143870163E+01 -0.16482047019E+02  0.90329449450E+01  0.18848142056E+02  0.00000000000E+00 0. -1.
</event>
<event>
 8    1  0.1238315E-006  0.9118800E+02  0.7816164E-02  0.1184000E+00
        -11   -1    0    0    0    0  0.00000000000E+00  0.00000000000E+00  0.45593999997E+02  0.45594000000E+02  0.51100000000E-03 0.  1.
         11   -1    0    0    0    0 -0.00000000000E+00 -0.00000000000E+00 -0.45593999997E+02  0.45594000000E+02  0.51100000000E-03 0. -1.
         23    2    1    2    0    0  0.00000000000E+00  0.00000000000E+00 -0.35527136788E-14  0.91188000000E+02  0.91188000000E+02 0.  0.
    9900012    2    3    3    0    0 -0.25697181963E+02  0.13694848943E+02  0.22536329676E+02  0.54367079267E+02  0.39999988805E+02 0.  0.
         12    1    3    3    0    0  0.25697181963E+02 -0.13694848943E+02 -0.22536329676E+02  0.36820920733E+02  0.00000000000E+00 0. -1.
         11    1    4    4    0    0 -0.20525291969E+02  0.18715228313E+02  0.20113012598E+02  0.34294032385E+02  0.51100000000E-03 0. -1.
        -11    1    4    4    0    0  0.32415427068E+01 -0.41396357567E+00  0.82337277600E+01  0.88585121803E+01  0.51100000000E-03 0.  1.
         12    1    4    4    0    0 -0.84134327007E+01 -0.46064157943E+01 -0.58104106822E+01  0.11214534702E+02  0.00000000000E+00 0. -1.
</event>
<event>
 8    1  0.1238315E-006  0.9118800E+02  0.7816164E-02  0.1184000E+00
        -11   -1    0    0    0    0  0.00000000000E+00  0.00000000000E+00  0.45593999997E+02  0.45594000000E+02  0.51100000000E-03 0. -1.
         11   -1    0    0    0    0 -0.00000000000E+00 -0.00000000000E+00 -0.45593999997E+02  0.45594000000E+02  0.51100000000E-03 0.  1.
         23    2    1    2    0    0  0.88817841970E-15  0.00000000000E+00 -0.35527136788E-14  0.91188000000E+02  0.91188000000E+02 0.  0.
    9900012    2    3    3    0    0  0.72376904629E+01  0.24175974909E+02 -0.26812669155E+02  0.54367066372E+02  0.39999959409E+02 0.  0.
         12    1    3    3    0    0 -0.72376904629E+01 -0.24175974909E+02  0.26812669155E+02  0.36820933628E+02  0.00000000000E+00 0. -1.
         11    1    4    4    0    0 -0.55697769493E+01  0.29626844273E+01 -0.24646579830E+01  0.67730682497E+01  0.51100000000E-03 0. -1.
        -11    1    4    4    0    0 -0.27356754764E+01  0.76167272289E+01 -0.25655608493E+02  0.26901834536E+02  0.51100000000E-03 0.  1.
        -12    1    4    4    0    0  0.15543142889E+02  0.13596563252E+02  0.13075973219E+01  0.20692163586E+02  0.00000000000E+00 0.  1.
</event>
<event>
 8    1  0.1238315E-006  0.9118800E+02  0.7816164E-02  0.1184000E+00
        -11   -1    0    0    0    0  0.00000000000E+00  0.00000000000E+00  0.45593999997E+02  0.45594000000E+02  0.51100000000E-03 0.  1.
         11   -1    0    0    0    0 -0.00000000000E+00 -0.00000000000E+00 -0.45593999997E+02  0.45594000000E+02  0.51100000000E-03 0. -1.
         23    2    1    2    0    0 -0.88817841970E-15  0.00000000000E+00  0.00000000000E+00  0.91188000000E+02  0.91188000000E+02 0.  0.
    9900012    2    3    3    0    0 -0.57069402877E+01  0.24130001269E+02 -0.27220473852E+02  0.54367077613E+02  0.39999985035E+02 0.  0.
        -12    1    3    3    0    0  0.57069402877E+01 -0.24130001269E+02  0.27220473852E+02  0.36820922387E+02  0.00000000000E+00 0.  1.
         11    1    4    4    0    0  0.18669509411E+01 -0.32185134216E+01  0.68458284726E+01  0.77916431001E+01  0.51100000000E-03 0. -1.
        -11    1    4    4    0    0  0.87133955446E+00 -0.10878843252E+01 -0.44288440020E+01  0.46429930411E+01  0.51100000000E-03 0.  1.
         12    1    4    4    0    0 -0.84452307832E+01  0.28436399016E+02 -0.29637458323E+02  0.41932441472E+02  0.00000000000E+00 0. -1.
</event>
<event>
 8    1  0.1238315E-006  0.9118800E+02  0.7816164E-02  0.1184000E+00
        -11   -1    0    0    0    0  0.00000000000E+00  0.00000000000E+00  0.45593999997E+02  0.45594000000E+02  0.51100000000E-03 0. -1.
         11   -1    0    0    0    0 -0.00000000000E+00 -0.00000000000E+00 -0.45593999997E+02  0.45594000000E+02  0.51100000000E-03 0.  1.
         23    2    1    2    0    0  0.17763568394E-14 -0.71054273576E-14 -0.35527136788E-14  0.91188000000E+02  0.91188000000E+02 0.  0.
    9900012    2    3    3    0    0 -0.68488816322E+01 -0.34513398695E+02  0.10848868892E+02  0.54367084404E+02  0.40000000516E+02 0.  0.
        -12    1    3    3    0    0  0.68488816322E+01  0.34513398695E+02 -0.10848868892E+02  0.36820915596E+02  0.00000000000E+00 0.  1.
         11    1    4    4    0    0  0.59850904681E+01 -0.15072346573E+02  0.11005035672E+02  0.19598667034E+02  0.51100000000E-03 0. -1.
        -11    1    4    4    0    0 -0.16536685834E+02 -0.14071281425E+02 -0.92299469109E+01  0.23593534274E+02  0.51100000000E-03 0.  1.
        -12    1    4    4    0    0  0.37027137335E+01 -0.53697706971E+01  0.90737801306E+01  0.11174883095E+02  0.00000000000E+00 0.  1.
</event>
<event>
 8    1  0.1238315E-006  0.9118800E+02  0.7816164E-02  0.1184000E+00
        -11   -1    0    0    0    0  0.00000000000E+00  0.00000000000E+00  0.45593999997E+02  0.45594000000E+02  0.51100000000E-03 0. -1.
         11   -1    0    0    0    0 -0.00000000000E+00 -0.00000000000E+00 -0.45593999997E+02  0.45594000000E+02  0.51100000000E-03 0.  1.
         23    2    1    2    0    0  0.00000000000E+00  0.13322676296E-14  0.00000000000E+00  0.91188000000E+02  0.91188000000E+02 0.  0.
    9900012    2    3    3    0    0 -0.32911048455E+02 -0.19776324305E+01  0.16393041885E+02  0.54367082539E+02  0.39999996265E+02 0.  0.
        -12    1    3    3    0    0  0.32911048455E+02  0.19776324305E+01 -0.16393041885E+02  0.36820917461E+02  0.00000000000E+00 0.  1.
         11    1    4    4    0    0 -0.11727576107E+02 -0.38893748013E+01 -0.22336791820E+01  0.12555978681E+02  0.51100000000E-03 0. -1.
        -11    1    4    4    0    0 -0.12375556601E+02  0.16108742758E+02  0.71227886176E+01  0.21526265639E+02  0.51100000000E-03 0.  1.
         12    1    4    4    0    0 -0.88079157474E+01 -0.14197000387E+02  0.11503932449E+02  0.20284838220E+02  0.00000000000E+00 0. -1.
</event>
<event>
 8    1  0.1238315E-006  0.9118800E+02  0.7816164E-02  0.1184000E+00
        -11   -1    0    0    0    0  0.00000000000E+00  0.00000000000E+00  0.45593999997E+02  0.45594000000E+02  0.51100000000E-03 0.  1.
         11   -1    0    0    0    0 -0.00000000000E+00 -0.00000000000E+00 -0.45593999997E+02  0.45594000000E+02  0.51100000000E-03 0. -1.
         23    2    1    2    0    0  0.17763568394E-14 -0.35527136788E-14  0.35527136788E-14  0.91188000000E+02  0.91188000000E+02 0.  0.
    9900012    2    3    3    0    0 -0.70906757203E+01  0.26859587703E+02 -0.24167408615E+02  0.54367098696E+02  0.40000033096E+02 0.  0.
        -12    1    3    3    0    0  0.70906757203E+01 -0.26859587703E+02  0.24167408615E+02  0.36820901304E+02  0.00000000000E+00 0.  1.
         11    1    4    4    0    0 -0.14979853370E+02  0.11660855486E+02 -0.25686596846E+02  0.31940144261E+02  0.51100000000E-03 0. -1.
        -11    1    4    4    0    0 -0.15626963414E+01  0.96126174711E+01  0.49494813820E+01  0.10924367291E+02  0.51100000000E-03 0.  1.
        -12    1    4    4    0    0  0.94518739906E+01  0.55861147462E+01 -0.34302931505E+01  0.11502587143E+02  0.00000000000E+00 0.  1.
</event>
<event>
 8    1  0.1238315E-006  0.9118800E+02  0.7816164E-02  0.1184000E+00
        -11   -1    0    0    0    0  0.00000000000E+00  0.00000000000E+00  0.45593999997E+02  0.45594000000E+02  0.51100000000E-03 0.  1.
         11   -1    0    0    0    0 -0.00000000000E+00 -0.00000000000E+00 -0.45593999997E+02  0.45594000000E+02  0.51100000000E-03 0. -1.
         23    2    1    2    0    0 -0.99920072216E-15  0.00000000000E+00  0.88817841970E-15  0.91188000000E+02  0.91188000000E+02 0.  0.
    9900012    2    3    3    0    0 -0.50393891307E+00  0.36286592969E+02 -0.62295387366E+01  0.54367110051E+02  0.40000058984E+02 0.  0.
        -12    1    3    3    0    0  0.50393891307E+00 -0.36286592969E+02  0.62295387366E+01  0.36820889949E+02  0.00000000000E+00 0.  1.
         11    1    4    4    0    0 -0.47942827055E+01  0.10983099254E+02 -0.70402896986E+01  0.13898895466E+02  0.51100000000E-03 0. -1.
        -11    1    4    4    0    0  0.15645559965E+02  0.37355163328E+01  0.25684878525E+00  0.16087373945E+02  0.51100000000E-03 0.  1.
        -12    1    4    4    0    0 -0.11355216173E+02  0.21567977383E+02  0.55390217675E+00  0.24380840640E+02  0.00000000000E+00 0.  1.
</event>
<event>
 8    1  0.1238315E-006  0.9118800E+02  0.7816164E-02  0.1184000E+00
        -11   -1    0    0    0    0  0.00000000000E+00  0.00000000000E+00  0.45593999997E+02  0.45594000000E+02  0.51100000000E-03 0. -1.
         11   -1    0    0    0    0 -0.00000000000E+00 -0.00000000000E+00 -0.45593999997E+02  0.45594000000E+02  0.51100000000E-03 0.  1.
         23    2    1    2    0    0  0.13322676296E-14  0.00000000000E+00 -0.71054273576E-14  0.91188000000E+02  0.91188000000E+02 0.  0.
    9900012    2    3    3    0    0 -0.20385639914E+01  0.81162443739E+01  0.35857367816E+02  0.54367082133E+02  0.39999995339E+02 0.  0.
        -12    1    3    3    0    0  0.20385639914E+01 -0.81162443739E+01 -0.35857367816E+02  0.36820917867E+02  0.00000000000E+00 0.  1.
         11    1    4    4    0    0 -0.10719065634E+02  0.73381115723E+01  0.21137559290E+02  0.24810132255E+02  0.51100000000E-03 0. -1.
        -11    1    4    4    0    0  0.11768667344E+01 -0.95809947812E+01  0.13653680185E+02  0.16721347409E+02  0.51100000000E-03 0.  1.
        -12    1    4    4    0    0  0.75036349082E+01  0.10359127583E+02  0.10661283409E+01  0.12835602469E+02  0.00000000000E+00 0.  1.
</event>
<event>
 8    1  0.1238315E-006  0.9118800E+02  0.7816164E-02  0.1184000E+00
        -11   -1    0    0    0    0  0.00000000000E+00  0.00000000000E+00  0.45593999997E+02  0.45594000000E+02  0.51100000000E-03 0.  1.
         11   -1    0    0    0    0 -0.00000000000E+00 -0.00000000000E+00 -0.45593999997E+02  0.45594000000E+02  0.51100000000E-03 0. -1.
         23    2    1    2    0    0  0.71054273576E-14  0.15543122345E-14  0.00000000000E+00  0.91188000000E+02  0.91188000000E+02 0.  0.
    9900012    2    3    3    0    0  0.33444321596E+02  0.10437368007E+01  0.15367741398E+02  0.54367088697E+02  0.40000010303E+02 0.  0.
         12    1    3    3    0    0 -0.33444321596E+02 -0.10437368007E+01 -0.15367741398E+02  0.36820911303E+02  0.00000000000E+00 0. -1.
         11    1    4    4    0    0 -0.55466420114E+00 -0.49628724299E+01 -0.19665662057E+01  0.53670418327E+01  0.51100000000E-03 0. -1.
        -11    1    4    4    0    0  0.46593203174E+00  0.73791383132E+01  0.13273812504E+02  0.15194172355E+02  0.51100000000E-03 0.  1.
         12    1    4    4    0    0  0.33533053765E+02 -0.13725290826E+01  0.40604950996E+01  0.33805874509E+02  0.00000000000E+00 0. -1.
</event>
<event>
 8    1  0.1238315E-006  0.9118800E+02  0.7816164E-02  0.1184000E+00
        -11   -1    0    0    0    0  0.00000000000E+00  0.00000000000E+00  0.45593999997E+02  0.45594000000E+02  0.51100000000E-03 0. -1.
         11   -1    0    0    0    0 -0.00000000000E+00 -0.00000000000E+00 -0.45593999997E+02  0.45594000000E+02  0.51100000000E-03 0.  1.
         23    2    1    2    0    0  0.00000000000E+00  0.00000000000E+00  0.00000000000E+00  0.91188000000E+02  0.91188000000E+02 0.  0.
    9900012    2    3    3    0    0  0.27941434637E+02 -0.22397786314E+02  0.85670938499E+01  0.54367086128E+02  0.40000004445E+02 0.  0.
         12    1    3    3    0    0 -0.27941434637E+02  0.22397786314E+02 -0.85670938499E+01  0.36820913872E+02  0.00000000000E+00 0. -1.
         11    1    4    4    0    0  0.99252119048E+01 -0.27655420458E+02  0.97550424049E+01  0.30959537539E+02  0.51100000000E-03 0. -1.
        -11    1    4    4    0    0  0.15682872826E+02  0.50078382751E+01  0.46570733284E+01  0.17109040783E+02  0.51100000000E-03 0.  1.
        -12    1    4    4    0    0  0.23333499067E+01  0.24979586872E+00 -0.58450218834E+01  0.62985078059E+01  0.00000000000E+00 0.  1.
</event>
<event>
 8    1  0.1238315E-006  0.9118800E+02  0.7816164E-02  0.1184000E+00
        -11   -1    0    0    0    0  0.00000000000E+00  0.00000000000E+00  0.45593999997E+02  0.45594000000E+02  0.51100000000E-03 0. -1.
         11   -1    0    0    0    0 -0.00000000000E+00 -0.00000000000E+00 -0.45593999997E+02  0.45594000000E+02  0.51100000000E-03 0.  1.
         23    2    1    2    0    0  0.00000000000E+00  0.00000000000E+00 -0.35527136788E-14  0.91188000000E+02  0.91188000000E+02 0.  0.
    9900012    2    3    3    0    0 -0.16960162529E+02 -0.10697645618E+02 -0.30881894909E+02  0.54367106910E+02  0.40000051823E+02 0.  0.
         12    1    3    3    0    0  0.16960162529E+02  0.10697645618E+02  0.30881894909E+02  0.36820893090E+02  0.00000000000E+00 0. -1.
         11    1    4    4    0    0 -0.55442530891E+01 -0.75926573493E+01  0.63474705718E+01  0.11343613660E+02  0.51100000000E-03 0. -1.
        -11    1    4    4    0    0 -0.14372057612E+02  0.28809934959E+01 -0.22522856779E+02  0.26872574146E+02  0.51100000000E-03 0.  1.
        -12    1    4    4    0    0  0.29561481720E+01 -0.59859817648E+01 -0.14706508702E+02  0.16150919104E+02  0.00000000000E+00 0.  1.
</event>
<event>
 8    1  0.1238315E-006  0.9118800E+02  0.7816164E-02  0.1184000E+00
        -11   -1    0    0    0    0  0.00000000000E+00  0.00000000000E+00  0.45593999997E+02  0.45594000000E+02  0.51100000000E-03 0. -1.
         11   -1    0    0    0    0 -0.00000000000E+00 -0.00000000000E+00 -0.45593999997E+02  0.45594000000E+02  0.51100000000E-03 0.  1.
         23    2    1    2    0    0  0.00000000000E+00  0.35527136788E-14  0.00000000000E+00  0.91188000000E+02  0.91188000000E+02 0.  0.
    9900012    2    3    3    0    0 -0.77686769317E+01 -0.31190127240E+02 -0.17961178847E+02  0.54367077631E+02  0.39999985076E+02 0.  0.
         12    1    3    3    0    0  0.77686769317E+01  0.31190127240E+02  0.17961178847E+02  0.36820922369E+02  0.00000000000E+00 0. -1.
         11    1    4    4    0    0  0.39097256208E+01  0.58914565832E+01  0.36794040095E+01  0.79707734398E+01  0.51100000000E-03 0. -1.
        -11    1    4    4    0    0 -0.13028511223E+02 -0.19987028591E+02 -0.11655873932E+02  0.26553395526E+02  0.51100000000E-03 0.  1.
        -12    1    4    4    0    0  0.13501086700E+01 -0.17094555233E+02 -0.99847089244E+01  0.19842908666E+02  0.00000000000E+00 0.  1.
</event>
<event>
 8    1  0.1238315E-006  0.9118800E+02  0.7816164E-02  0.1184000E+00
        -11   -1    0    0    0    0  0.00000000000E+00  0.00000000000E+00  0.45593999997E+02  0.45594000000E+02  0.51100000000E-03 0. -1.
         11   -1    0    0    0    0 -0.00000000000E+00 -0.00000000000E+00 -0.45593999997E+02  0.45594000000E+02  0.51100000000E-03 0.  1.
         23    2    1    2    0    0  0.00000000000E+00 -0.35527136788E-14  0.00000000000E+00  0.91188000000E+02  0.91188000000E+02 0.  0.
    9900012    2    3    3    0    0  0.18994018306E+02 -0.22431978179E+02  0.22176859289E+02  0.54367089306E+02  0.40000011690E+02 0.  0.
        -12    1    3    3    0    0 -0.18994018306E+02  0.22431978179E+02 -0.22176859289E+02  0.36820910694E+02  0.00000000000E+00 0.  1.
         11    1    4    4    0    0  0.23794546837E+02 -0.19704602710E+02  0.18040534037E+02  0.35775867505E+02  0.51100000000E-03 0. -1.
        -11    1    4    4    0    0  0.43057679805E+01 -0.16951020305E+01 -0.41650642304E+01  0.62258147338E+01  0.51100000000E-03 0.  1.
         12    1    4    4    0    0 -0.91062965110E+01 -0.10322734382E+01  0.83013894825E+01  0.12365407067E+02  0.00000000000E+00 0. -1.
</event>
<event>
 8    1  0.1238315E-006  0.9118800E+02  0.7816164E-02  0.1184000E+00
        -11   -1    0    0    0    0  0.00000000000E+00  0.00000000000E+00  0.45593999997E+02  0.45594000000E+02  0.51100000000E-03 0. -1.
         11   -1    0    0    0    0 -0.00000000000E+00 -0.00000000000E+00 -0.45593999997E+02  0.45594000000E+02  0.51100000000E-03 0.  1.
         23    2    1    2    0    0  0.00000000000E+00  0.00000000000E+00 -0.88817841970E-15  0.91188000000E+02  0.91188000000E+02 0.  0.
    9900012    2    3    3    0    0  0.98413851545E+01  0.35426954594E+02 -0.19642465015E+01  0.54367078801E+02  0.39999987744E+02 0.  0.
        -12    1    3    3    0    0 -0.98413851545E+01 -0.35426954594E+02  0.19642465015E+01  0.36820921199E+02  0.00000000000E+00 0.  1.
         11    1    4    4    0    0  0.14099197256E+02  0.20183799792E+02  0.60479635489E+01  0.25352534403E+02  0.51100000000E-03 0. -1.
        -11    1    4    4    0    0  0.23842682093E+01 -0.19695872968E+01 -0.99912179629E+01  0.10458893137E+02  0.51100000000E-03 0.  1.
        -12    1    4    4    0    0 -0.66420803103E+01  0.17212742099E+02  0.19790079124E+01  0.18555651261E+02  0.00000000000E+00 0.  1.
</event>
<event>
 8    1  0.1238315E-006  0.9118800E+02  0.7816164E-02  0.1184000E+00
        -11   -1    0    0    0    0  0.00000000000E+00  0.00000000000E+00  0.45593999997E+02  0.45594000000E+02  0.51100000000E-03 0.  1.
         11   -1    0    0    0    0 -0.00000000000E+00 -0.00000000000E+00 -0.45593999997E+02  0.45594000000E+02  0.51100000000E-03 0. -1.
         23    2    1    2    0    0 -0.88817841970E-15  0.00000000000E+00  0.88817841970E-15  0.91188000000E+02  0.91188000000E+02 0.  0.
    9900012    2    3    3    0    0  0.53093782281E+01  0.35911697369E+02  0.61596051286E+01  0.54367078767E+02  0.39999987665E+02 0.  0.
        -12    1    3    3    0    0 -0.53093782281E+01 -0.35911697369E+02 -0.61596051286E+01  0.36820921233E+02  0.00000000000E+00 0.  1.
         11    1    4    4    0    0  0.18331237295E+02  0.14767726809E+02 -0.58119764526E+01  0.24246630413E+02  0.51100000000E-03 0. -1.
        -11    1    4    4    0    0 -0.11181328792E+02  0.12242751587E+02  0.21184722683E+01  0.16715113071E+02  0.51100000000E-03 0.  1.
        -12    1    4    4    0    0 -0.18405302754E+01  0.89012189731E+01  0.98531093129E+01  0.13405335282E+02  0.00000000000E+00 0.  1.
</event>
<event>
 8    1  0.1238315E-006  0.9118800E+02  0.7816164E-02  0.1184000E+00
        -11   -1    0    0    0    0  0.00000000000E+00  0.00000000000E+00  0.45593999997E+02  0.45594000000E+02  0.51100000000E-03 0.  1.
         11   -1    0    0    0    0 -0.00000000000E+00 -0.00000000000E+00 -0.45593999997E+02  0.45594000000E+02  0.51100000000E-03 0. -1.
         23    2    1    2    0    0  0.00000000000E+00  0.00000000000E+00  0.35527136788E-14  0.91188000000E+02  0.91188000000E+02 0.  0.
    9900012    2    3    3    0    0 -0.14633630363E+02 -0.26259614933E+02 -0.21261926358E+02  0.54367081673E+02  0.39999994289E+02 0.  0.
        -12    1    3    3    0    0  0.14633630363E+02  0.26259614933E+02  0.21261926358E+02  0.36820918327E+02  0.00000000000E+00 0.  1.
         11    1    4    4    0    0 -0.67540518527E+01 -0.25870998766E+02 -0.18504914303E+02  0.32517036261E+02  0.51100000000E-03 0. -1.
        -11    1    4    4    0    0 -0.37874663743E+01 -0.89169481414E+01 -0.65115193431E+01  0.11672906669E+02  0.51100000000E-03 0.  1.
        -12    1    4    4    0    0 -0.40921121361E+01  0.85283319744E+01  0.37545072888E+01  0.10177138742E+02  0.00000000000E+00 0.  1.
</event>
<event>
 8    1  0.1238315E-006  0.9118800E+02  0.7816164E-02  0.1184000E+00
        -11   -1    0    0    0    0  0.00000000000E+00  0.00000000000E+00  0.45593999997E+02  0.45594000000E+02  0.51100000000E-03 0. -1.
         11   -1    0    0    0    0 -0.00000000000E+00 -0.00000000000E+00 -0.45593999997E+02  0.45594000000E+02  0.51100000000E-03 0.  1.
         23    2    1    2    0    0  0.35527136788E-14  0.00000000000E+00  0.35527136788E-14  0.91188000000E+02  0.91188000000E+02 0.  0.
    9900012    2    3    3    0    0 -0.14561952411E+02 -0.23442986380E+02 -0.24375321919E+02  0.54367076776E+02  0.39999983126E+02 0.  0.
         12    1    3    3    0    0  0.14561952411E+02  0.23442986380E+02  0.24375321919E+02  0.36820923224E+02  0.00000000000E+00 0. -1.
         11    1    4    4    0    0  0.76878064027E+01 -0.11485397685E+02 -0.17634378952E+01  0.13932926496E+02  0.51100000000E-03 0. -1.
        -11    1    4    4    0    0 -0.10170918381E+02 -0.73970375793E+01 -0.24350596048E+02  0.27406482332E+02  0.51100000000E-03 0.  1.
         12    1    4    4    0    0 -0.12078840433E+02 -0.45605511159E+01  0.17387120237E+01  0.13027667949E+02  0.00000000000E+00 0. -1.
</event>
<event>
 8    1  0.1238315E-006  0.9118800E+02  0.7816164E-02  0.1184000E+00
        -11   -1    0    0    0    0  0.00000000000E+00  0.00000000000E+00  0.45593999997E+02  0.45594000000E+02  0.51100000000E-03 0.  1.
         11   -1    0    0    0    0 -0.00000000000E+00 -0.00000000000E+00 -0.45593999997E+02  0.45594000000E+02  0.51100000000E-03 0. -1.
         23    2    1    2    0    0  0.35527136788E-14  0.35527136788E-14  0.00000000000E+00  0.91188000000E+02  0.91188000000E+02 0.  0.
    9900012    2    3    3    0    0  0.19417946864E+02  0.29912520450E+02 -0.91633245964E+01  0.54367054089E+02  0.39999931408E+02 0.  0.
        -12    1    3    3    0    0 -0.19417946864E+02 -0.29912520450E+02  0.91633245964E+01  0.36820945911E+02  0.00000000000E+00 0.  1.
         11    1    4    4    0    0  0.24074811495E+02  0.12701973182E+02 -0.32779471683E+01  0.27416812527E+02  0.51100000000E-03 0. -1.
        -11    1    4    4    0    0 -0.37637391368E+01 -0.27817296213E+00  0.50502690516E+01  0.63046276846E+01  0.51100000000E-03 0.  1.
        -12    1    4    4    0    0 -0.89312549490E+00  0.17488720231E+02 -0.10935646480E+02  0.20645613878E+02  0.00000000000E+00 0.  1.
</event>
<event>
 8    1  0.1238315E-006  0.9118800E+02  0.7816164E-02  0.1184000E+00
        -11   -1    0    0    0    0  0.00000000000E+00  0.00000000000E+00  0.45593999997E+02  0.45594000000E+02  0.51100000000E-03 0.  1.
         11   -1    0    0    0    0 -0.00000000000E+00 -0.00000000000E+00 -0.45593999997E+02  0.45594000000E+02  0.51100000000E-03 0. -1.
         23    2    1    2    0    0  0.30531133177E-15  0.00000000000E+00  0.71054273576E-14  0.91188000000E+02  0.91188000000E+02 0.  0.
    9900012    2    3    3    0    0 -0.87878127046E-01  0.17448473248E+02  0.32424113598E+02  0.54367080894E+02  0.39999992513E+02 0.  0.
         12    1    3    3    0    0  0.87878127046E-01 -0.17448473248E+02 -0.32424113598E+02  0.36820919106E+02  0.00000000000E+00 0. -1.
         11    1    4    4    0    0  0.14655771007E+02  0.11791616870E+02  0.80098470313E+01  0.20444840473E+02  0.51100000000E-03 0. -1.
        -11    1    4    4    0    0 -0.42076791577E+00  0.67569938429E+01  0.15909569106E+01  0.69545061352E+01  0.51100000000E-03 0.  1.
        -12    1    4    4    0    0 -0.14322881219E+02 -0.11001374656E+01  0.22823309656E+02  0.26967734286E+02  0.00000000000E+00 0.  1.
</event>
<event>
 8    1  0.1238315E-006  0.9118800E+02  0.7816164E-02  0.1184000E+00
        -11   -1    0    0    0    0  0.00000000000E+00  0.00000000000E+00  0.45593999997E+02  0.45594000000E+02  0.51100000000E-03 0.  1.
         11   -1    0    0    0    0 -0.00000000000E+00 -0.00000000000E+00 -0.45593999997E+02  0.45594000000E+02  0.51100000000E-03 0. -1.
         23    2    1    2    0    0 -0.17763568394E-14 -0.27755575616E-15  0.00000000000E+00  0.91188000000E+02  0.91188000000E+02 0.  0.
    9900012    2    3    3    0    0  0.15195673939E+02 -0.20187016711E+00 -0.33538496438E+02  0.54367082014E+02  0.39999995067E+02 0.  0.
        -12    1    3    3    0    0 -0.15195673939E+02  0.20187016711E+00  0.33538496438E+02  0.36820917986E+02  0.00000000000E+00 0.  1.
         11    1    4    4    0    0  0.18832100244E+01  0.67920435181E+01 -0.11574879239E+02  0.13551980106E+02  0.51100000000E-03 0. -1.
        -11    1    4    4    0    0 -0.12203545782E+01  0.99091833246E+01 -0.13891047902E+02  0.17106793724E+02  0.51100000000E-03 0.  1.
        -12    1    4    4    0    0  0.14532818493E+02 -0.16903097010E+02 -0.80725692972E+01  0.23708308183E+02  0.00000000000E+00 0.  1.
</event>
<event>
 8    1  0.1238315E-006  0.9118800E+02  0.7816164E-02  0.1184000E+00
        -11   -1    0    0    0    0  0.00000000000E+00  0.00000000000E+00  0.45593999997E+02  0.45594000000E+02  0.51100000000E-03 0. -1.
         11   -1    0    0    0    0 -0.00000000000E+00 -0.00000000000E+00 -0.45593999997E+02  0.45594000000E+02  0.51100000000E-03 0.  1.
         23    2    1    2    0    0  0.00000000000E+00  0.88817841970E-15  0.35527136788E-14  0.91188000000E+02  0.91188000000E+02 0.  0.
    9900012    2    3    3    0    0 -0.21870928995E+02 -0.78806349634E+01  0.28554115833E+02  0.54367089181E+02  0.40000011406E+02 0.  0.
        -12    1    3    3    0    0  0.21870928995E+02  0.78806349634E+01 -0.28554115833E+02  0.36820910819E+02  0.00000000000E+00 0.  1.
         11    1    4    4    0    0 -0.23030450967E+02 -0.14129274732E+02  0.12893868185E+02  0.29938101363E+02  0.51100000000E-03 0. -1.
        -11    1    4    4    0    0 -0.14556995358E+01  0.12114991337E+02  0.88926172872E+01  0.15098699239E+02  0.51100000000E-03 0.  1.
        -12    1    4    4    0    0  0.26152215082E+01 -0.58663515681E+01  0.67676303608E+01  0.93302885785E+01  0.00000000000E+00 0.  1.
</event>
<event>
 8    1  0.1238315E-006  0.9118800E+02  0.7816164E-02  0.1184000E+00
        -11   -1    0    0    0    0  0.00000000000E+00  0.00000000000E+00  0.45593999997E+02  0.45594000000E+02  0.51100000000E-03 0. -1.
         11   -1    0    0    0    0 -0.00000000000E+00 -0.00000000000E+00 -0.45593999997E+02  0.45594000000E+02  0.51100000000E-03 0.  1.
         23    2    1    2    0    0  0.17763568394E-14  0.00000000000E+00  0.00000000000E+00  0.91188000000E+02  0.91188000000E+02 0.  0.
    9900012    2    3    3    0    0 -0.13845726999E+02 -0.24365315063E+02  0.23883156357E+02  0.54367110659E+02  0.40000060370E+02 0.  0.
        -12    1    3    3    0    0  0.13845726999E+02  0.24365315063E+02 -0.23883156357E+02  0.36820889341E+02  0.00000000000E+00 0.  1.
         11    1    4    4    0    0 -0.10810636470E+02 -0.20850983032E+02  0.71084055193E+01  0.24539005350E+02  0.51100000000E-03 0. -1.
        -11    1    4    4    0    0  0.54158255821E+01 -0.14828169840E+01  0.19834185452E+02  0.20613704804E+02  0.51100000000E-03 0.  1.
         12    1    4    4    0    0 -0.84509161112E+01 -0.20315150470E+01 -0.30594346145E+01  0.92144005049E+01  0.00000000000E+00 0. -1.
</event>
<event>
 8    1  0.1238315E-006  0.9118800E+02  0.7816164E-02  0.1184000E+00
        -11   -1    0    0    0    0  0.00000000000E+00  0.00000000000E+00  0.45593999997E+02  0.45594000000E+02  0.51100000000E-03 0.  1.
         11   -1    0    0    0    0 -0.00000000000E+00 -0.00000000000E+00 -0.45593999997E+02  0.45594000000E+02  0.51100000000E-03 0. -1.
         23    2    1    2    0    0  0.00000000000E+00 -0.35527136788E-14  0.35527136788E-14  0.91188000000E+02  0.91188000000E+02 0.  0.
    9900012    2    3    3    0    0  0.42633777428E+01 -0.22260180820E+02 -0.29018759355E+02  0.54367076133E+02  0.39999981661E+02 0.  0.
        -12    1    3    3    0    0 -0.42633777428E+01  0.22260180820E+02  0.29018759355E+02  0.36820923867E+02  0.00000000000E+00 0.  1.
         11    1    4    4    0    0 -0.10615400722E+01 -0.63939729083E+01 -0.10982968037E+02  0.12752856309E+02  0.51100000000E-03 0. -1.
        -11    1    4    4    0    0 -0.32495055248E+01 -0.19320690794E+02  0.18556083413E+01  0.19679727170E+02  0.51100000000E-03 0.  1.
         12    1    4    4    0    0  0.85744233398E+01  0.34544828826E+01 -0.19891399659E+02  0.21934492654E+02  0.00000000000E+00 0. -1.
</event>
<event>
 8    1  0.1238315E-006  0.9118800E+02  0.7816164E-02  0.1184000E+00
        -11   -1    0    0    0    0  0.00000000000E+00  0.00000000000E+00  0.45593999997E+02  0.45594000000E+02  0.51100000000E-03 0. -1.
         11   -1    0    0    0    0 -0.00000000000E+00 -0.00000000000E+00 -0.45593999997E+02  0.45594000000E+02  0.51100000000E-03 0.  1.
         23    2    1    2    0    0  0.99920072216E-15  0.00000000000E+00  0.71054273576E-14  0.91188000000E+02  0.91188000000E+02 0.  0.
    9900012    2    3    3    0    0  0.87925938851E+00 -0.15619863179E+02 -0.33332079060E+02  0.54367072292E+02  0.39999972905E+02 0.  0.
         12    1    3    3    0    0 -0.87925938851E+00  0.15619863179E+02  0.33332079060E+02  0.36820927708E+02  0.00000000000E+00 0. -1.
         11    1    4    4    0    0 -0.74019147997E+01 -0.13511615273E+00 -0.11998382058E+01  0.74997473997E+01  0.51100000000E-03 0. -1.
        -11    1    4    4    0    0 -0.25510962229E+01  0.68634818460E+00  0.45955830471E+01  0.53008065022E+01  0.51100000000E-03 0.  1.
        -12    1    4    4    0    0  0.10832270411E+02 -0.16171095211E+02 -0.36727823901E+02  0.41566518390E+02  0.00000000000E+00 0.  1.
</event>
<event>
 8    1  0.1238315E-006  0.9118800E+02  0.7816164E-02  0.1184000E+00
        -11   -1    0    0    0    0  0.00000000000E+00  0.00000000000E+00  0.45593999997E+02  0.45594000000E+02  0.51100000000E-03 0. -1.
         11   -1    0    0    0    0 -0.00000000000E+00 -0.00000000000E+00 -0.45593999997E+02  0.45594000000E+02  0.51100000000E-03 0.  1.
         23    2    1    2    0    0  0.00000000000E+00  0.00000000000E+00  0.00000000000E+00  0.91188000000E+02  0.91188000000E+02 0.  0.
    9900012    2    3    3    0    0  0.34549655156E+02 -0.12290072962E+02  0.33255757517E+01  0.54367027458E+02  0.39999870696E+02 0.  0.
         12    1    3    3    0    0 -0.34549655156E+02  0.12290072962E+02 -0.33255757517E+01  0.36820972542E+02  0.00000000000E+00 0. -1.
         11    1    4    4    0    0  0.20414346714E+02  0.12916300973E+02  0.26095058236E+01  0.24297858002E+02  0.51100000000E-03 0. -1.
        -11    1    4    4    0    0  0.37770134138E+01 -0.32943605293E+01 -0.25326851473E+01  0.56154372885E+01  0.51100000000E-03 0.  1.
        -12    1    4    4    0    0  0.10358295028E+02 -0.21912013406E+02  0.32487550754E+01  0.24453732168E+02  0.00000000000E+00 0.  1.
</event>
<event>
 8    1  0.1238315E-006  0.9118800E+02  0.7816164E-02  0.1184000E+00
        -11   -1    0    0    0    0  0.00000000000E+00  0.00000000000E+00  0.45593999997E+02  0.45594000000E+02  0.51100000000E-03 0.  1.
         11   -1    0    0    0    0 -0.00000000000E+00 -0.00000000000E+00 -0.45593999997E+02  0.45594000000E+02  0.51100000000E-03 0. -1.
         23    2    1    2    0    0  0.13322676296E-14  0.00000000000E+00 -0.71054273576E-14  0.91188000000E+02  0.91188000000E+02 0.  0.
    9900012    2    3    3    0    0  0.39593319732E+01  0.13838408317E+02 -0.33891035288E+02  0.54367080303E+02  0.39999991168E+02 0.  0.
        -12    1    3    3    0    0 -0.39593319732E+01 -0.13838408317E+02  0.33891035288E+02  0.36820919697E+02  0.00000000000E+00 0.  1.
         11    1    4    4    0    0 -0.44180563090E+01 -0.43357740549E+01 -0.41539051372E+01  0.74547358340E+01  0.51100000000E-03 0. -1.
        -11    1    4    4    0    0 -0.23919572298E+01 -0.11671674547E+01  0.50328078574E+01  0.56932323374E+01  0.51100000000E-03 0.  1.
         12    1    4    4    0    0  0.10769345512E+02  0.19341349827E+02 -0.34769938008E+02  0.41219112132E+02  0.00000000000E+00 0. -1.
</event>
<event>
 8    1  0.1238315E-006  0.9118800E+02  0.7816164E-02  0.1184000E+00
        -11   -1    0    0    0    0  0.00000000000E+00  0.00000000000E+00  0.45593999997E+02  0.45594000000E+02  0.51100000000E-03 0.  1.
         11   -1    0    0    0    0 -0.00000000000E+00 -0.00000000000E+00 -0.45593999997E+02  0.45594000000E+02  0.51100000000E-03 0. -1.
         23    2    1    2    0    0  0.00000000000E+00 -0.35527136788E-14  0.17763568394E-14  0.91188000000E+02  0.91188000000E+02 0.  0.
    9900012    2    3    3    0    0 -0.25146372493E+02  0.22057576265E+02  0.15391659924E+02  0.54367083180E+02  0.39999997725E+02 0.  0.
         12    1    3    3    0    0  0.25146372493E+02 -0.22057576265E+02 -0.15391659924E+02  0.36820916820E+02  0.00000000000E+00 0. -1.
         11    1    4    4    0    0  0.24585471948E+01 -0.33341568967E+01 -0.33153389984E+01  0.53058957261E+01  0.51100000000E-03 0. -1.
        -11    1    4    4    0    0 -0.22491587557E+02  0.81682627906E+01  0.19804258588E+02  0.31061240902E+02  0.51100000000E-03 0.  1.
        -12    1    4    4    0    0 -0.51133321308E+01  0.17223470371E+02 -0.10972596653E+01  0.17999946552E+02  0.00000000000E+00 0.  1.
</event>
<event>
 8    1  0.1238315E-006  0.9118800E+02  0.7816164E-02  0.1184000E+00
        -11   -1    0    0    0    0  0.00000000000E+00  0.00000000000E+00  0.45593999997E+02  0.45594000000E+02  0.51100000000E-03 0.  1.
         11   -1    0    0    0    0 -0.00000000000E+00 -0.00000000000E+00 -0.45593999997E+02  0.45594000000E+02  0.51100000000E-03 0. -1.
         23    2    1    2    0    0 -0.35527136788E-14  0.00000000000E+00  0.00000000000E+00  0.91188000000E+02  0.91188000000E+02 0.  0.
    9900012    2    3    3    0    0  0.29857807951E+02 -0.53243122827E+01  0.20879232409E+02  0.54367090955E+02  0.40000015449E+02 0.  0.
         12    1    3    3    0    0 -0.29857807951E+02  0.53243122827E+01 -0.20879232409E+02  0.36820909045E+02  0.00000000000E+00 0. -1.
         11    1    4    4    0    0  0.23430486429E+02  0.60226016699E+01  0.87295932725E+00  0.24207880605E+02  0.51100000000E-03 0. -1.
        -11    1    4    4    0    0 -0.28775914774E+01  0.35660609392E+01  0.66814904393E+01  0.81018293048E+01  0.51100000000E-03 0.  1.
        -12    1    4    4    0    0  0.93049129998E+01 -0.14912974892E+02  0.13324782643E+02  0.22057381044E+02  0.00000000000E+00 0.  1.
</event>
<event>
 8    1  0.1238315E-006  0.9118800E+02  0.7816164E-02  0.1184000E+00
        -11   -1    0    0    0    0  0.00000000000E+00  0.00000000000E+00  0.45593999997E+02  0.45594000000E+02  0.51100000000E-03 0. -1.
         11   -1    0    0    0    0 -0.00000000000E+00 -0.00000000000E+00 -0.45593999997E+02  0.45594000000E+02  0.51100000000E-03 0.  1.
         23    2    1    2    0    0  0.00000000000E+00 -0.17763568394E-14  0.17763568394E-14  0.91188000000E+02  0.91188000000E+02 0.  0.
    9900012    2    3    3    0    0  0.32803952156E+02  0.13097669673E+02 -0.10398603757E+02  0.54367093059E+02  0.40000020246E+02 0.  0.
         12    1    3    3    0    0 -0.32803952156E+02 -0.13097669673E+02  0.10398603757E+02  0.36820906941E+02  0.00000000000E+00 0. -1.
         11    1    4    4    0    0  0.17372442383E+02 -0.62942128610E+01 -0.19243163694E+02  0.26678047513E+02  0.51100000000E-03 0. -1.
        -11    1    4    4    0    0  0.14262722303E+02  0.11811281163E+02  0.54702974505E+01  0.19309473443E+02  0.51100000000E-03 0.  1.
         12    1    4    4    0    0  0.11687874698E+01  0.75806013712E+01  0.33742624864E+01  0.83795721028E+01  0.00000000000E+00 0. -1.
</event>
<event>
 8    1  0.1238315E-006  0.9118800E+02  0.7816164E-02  0.1184000E+00
        -11   -1    0    0    0    0  0.00000000000E+00  0.00000000000E+00  0.45593999997E+02  0.45594000000E+02  0.51100000000E-03 0.  1.
         11   -1    0    0    0    0 -0.00000000000E+00 -0.00000000000E+00 -0.45593999997E+02  0.45594000000E+02  0.51100000000E-03 0. -1.
         23    2    1    2    0    0  0.17763568394E-14  0.00000000000E+00  0.00000000000E+00  0.91188000000E+02  0.91188000000E+02 0.  0.
    9900012    2    3    3    0    0  0.15574073597E+02 -0.29123362898E+02  0.16280565651E+02  0.54367097610E+02  0.40000030621E+02 0.  0.
         12    1    3    3    0    0 -0.15574073597E+02  0.29123362898E+02 -0.16280565651E+02  0.36820902390E+02  0.00000000000E+00 0. -1.
         11    1    4    4    0    0  0.10225894841E+02 -0.29812302113E+02  0.15353968839E+02  0.35058331990E+02  0.51100000000E-03 0. -1.
        -11    1    4    4    0    0  0.12636406316E+01 -0.61840815503E+00  0.95631162788E+01  0.96660441503E+01  0.51100000000E-03 0.  1.
         12    1    4    4    0    0  0.40845381245E+01  0.13073473702E+01 -0.86365194665E+01  0.96427214692E+01  0.00000000000E+00 0. -1.
</event>
<event>
 8    1  0.1238315E-006  0.9118800E+02  0.7816164E-02  0.1184000E+00
        -11   -1    0    0    0    0  0.00000000000E+00  0.00000000000E+00  0.45593999997E+02  0.45594000000E+02  0.51100000000E-03 0. -1.
         11   -1    0    0    0    0 -0.00000000000E+00 -0.00000000000E+00 -0.45593999997E+02  0.45594000000E+02  0.51100000000E-03 0.  1.
         23    2    1    2    0    0  0.00000000000E+00  0.00000000000E+00  0.00000000000E+00  0.91188000000E+02  0.91188000000E+02 0.  0.
    9900012    2    3    3    0    0  0.15129897480E+02  0.23146100031E+02  0.24313038848E+02  0.54367087431E+02  0.40000007416E+02 0.  0.
        -12    1    3    3    0    0 -0.15129897480E+02 -0.23146100031E+02 -0.24313038848E+02  0.36820912569E+02  0.00000000000E+00 0.  1.
         11    1    4    4    0    0 -0.12903034387E+01 -0.90382932986E+00  0.13439067329E+02  0.13531087220E+02  0.51100000000E-03 0. -1.
        -11    1    4    4    0    0  0.20204020429E+02  0.11785116763E+02 -0.91567184901E+00  0.23407901952E+02  0.51100000000E-03 0.  1.
        -12    1    4    4    0    0 -0.37838195104E+01  0.12264812598E+02  0.11789643368E+02  0.17428098258E+02  0.00000000000E+00 0.  1.
</event>
<event>
 8    1  0.1238315E-006  0.9118800E+02  0.7816164E-02  0.1184000E+00
        -11   -1    0    0    0    0  0.00000000000E+00  0.00000000000E+00  0.45593999997E+02  0.45594000000E+02  0.51100000000E-03 0.  1.
         11   -1    0    0    0    0 -0.00000000000E+00 -0.00000000000E+00 -0.45593999997E+02  0.45594000000E+02  0.51100000000E-03 0. -1.
         23    2    1    2    0    0 -0.88817841970E-15  0.00000000000E+00 -0.55511151231E-15  0.91188000000E+02  0.91188000000E+02 0.  0.
    9900012    2    3    3    0    0  0.74156236580E+01 -0.36061138471E+02  0.61851454409E+00  0.54367085531E+02  0.40000003085E+02 0.  0.
         12    1    3    3    0    0 -0.74156236580E+01  0.36061138471E+02 -0.61851454409E+00  0.36820914469E+02  0.00000000000E+00 0. -1.
         11    1    4    4    0    0  0.53017485657E+01 -0.17965580476E+02 -0.62572491748E+01  0.19749019905E+02  0.51100000000E-03 0. -1.
        -11    1    4    4    0    0  0.14753704555E+02 -0.10347528738E+02  0.80687869036E+01  0.19744580812E+02  0.51100000000E-03 0.  1.
        -12    1    4    4    0    0 -0.12639829463E+02 -0.77480292573E+01 -0.11930231846E+01  0.14873484815E+02  0.00000000000E+00 0.  1.
</event>
<event>
 8    1  0.1238315E-006  0.9118800E+02  0.7816164E-02  0.1184000E+00
        -11   -1    0    0    0    0  0.00000000000E+00  0.00000000000E+00  0.45593999997E+02  0.45594000000E+02  0.51100000000E-03 0. -1.
         11   -1    0    0    0    0 -0.00000000000E+00 -0.00000000000E+00 -0.45593999997E+02  0.45594000000E+02  0.51100000000E-03 0.  1.
         23    2    1    2    0    0  0.00000000000E+00 -0.44408920985E-15  0.00000000000E+00  0.91188000000E+02  0.91188000000E+02 0.  0.
    9900012    2    3    3    0    0  0.28518239874E+02  0.23175419956E+01 -0.23175826350E+02  0.54367082936E+02  0.39999997169E+02 0.  0.
        -12    1    3    3    0    0 -0.28518239874E+02 -0.23175419956E+01  0.23175826350E+02  0.36820917064E+02  0.00000000000E+00 0.  1.
         11    1    4    4    0    0  0.18581832020E+02 -0.26606870542E+01 -0.38066220471E+00  0.18775213468E+02  0.51100000000E-03 0. -1.
        -11    1    4    4    0    0  0.10366009745E+02  0.14397709977E+02 -0.12989197413E+02  0.21987893494E+02  0.51100000000E-03 0.  1.
         12    1    4    4    0    0 -0.42960189060E+00 -0.94194809270E+01 -0.98059667328E+01  0.13603975973E+02  0.00000000000E+00 0. -1.
</event>
<event>
 8    1  0.1238315E-006  0.9118800E+02  0.7816164E-02  0.1184000E+00
        -11   -1    0    0    0    0  0.00000000000E+00  0.00000000000E+00  0.45593999997E+02  0.45594000000E+02  0.51100000000E-03 0.  1.
         11   -1    0    0    0    0 -0.00000000000E+00 -0.00000000000E+00 -0.45593999997E+02  0.45594000000E+02  0.51100000000E-03 0. -1.
         23    2    1    2    0    0  0.00000000000E+00  0.00000000000E+00  0.00000000000E+00  0.91188000000E+02  0.91188000000E+02 0.  0.
    9900012    2    3    3    0    0  0.95224910016E+01  0.33467155727E+02 -0.12043767948E+02  0.54367072612E+02  0.39999973633E+02 0.  0.
        -12    1    3    3    0    0 -0.95224910016E+01 -0.33467155727E+02  0.12043767948E+02  0.36820927388E+02  0.00000000000E+00 0.  1.
         11    1    4    4    0    0  0.30417433929E+01  0.33414453448E+02 -0.20182703739E+02  0.39155069053E+02  0.51100000000E-03 0. -1.
        -11    1    4    4    0    0  0.89646866335E+01  0.25489397397E+01  0.61721732096E+01  0.11178480336E+02  0.51100000000E-03 0.  1.
         12    1    4    4    0    0 -0.24839390248E+01 -0.24962374603E+01  0.19667625809E+01  0.40335232225E+01  0.00000000000E+00 0. -1.
</event>
<event>
 8    1  0.1238315E-006  0.9118800E+02  0.7816164E-02  0.1184000E+00
        -11   -1    0    0    0    0  0.00000000000E+00  0.00000000000E+00  0.45593999997E+02  0.45594000000E+02  0.51100000000E-03 0.  1.
         11   -1    0    0    0    0 -0.00000000000E+00 -0.00000000000E+00 -0.45593999997E+02  0.45594000000E+02  0.51100000000E-03 0. -1.
         23    2    1    2    0    0  0.17763568394E-14  0.35527136788E-14  0.35527136788E-14  0.91188000000E+02  0.91188000000E+02 0.  0.
    9900012    2    3    3    0    0  0.14915081644E+02 -0.14799165288E+02  0.30237483982E+02  0.54367076720E+02  0.39999982998E+02 0.  0.
         12    1    3    3    0    0 -0.14915081644E+02  0.14799165288E+02 -0.30237483982E+02  0.36820923280E+02  0.00000000000E+00 0. -1.
         11    1    4    4    0    0 -0.46931691833E+01  0.31475979522E+01  0.59177475343E+01  0.81824779860E+01  0.51100000000E-03 0. -1.
        -11    1    4    4    0    0 -0.28732618601E+01  0.83007139776E+00  0.15221731199E+02  0.15512760979E+02  0.51100000000E-03 0.  1.
         12    1    4    4    0    0  0.22481512687E+02 -0.18776834638E+02  0.90980052481E+01  0.30671837754E+02  0.00000000000E+00 0. -1.
</event>
<event>
 8    1  0.1238315E-006  0.9118800E+02  0.7816164E-02  0.1184000E+00
        -11   -1    0    0    0    0  0.00000000000E+00  0.00000000000E+00  0.45593999997E+02  0.45594000000E+02  0.51100000000E-03 0.  1.
         11   -1    0    0    0    0 -0.00000000000E+00 -0.00000000000E+00 -0.45593999997E+02  0.45594000000E+02  0.51100000000E-03 0. -1.
         23    2    1    2    0    0  0.00000000000E+00  0.27200464103E-14 -0.71054273576E-14  0.91188000000E+02  0.91188000000E+02 0.  0.
    9900012    2    3    3    0    0  0.50328526963E+01  0.40647715792E+00 -0.36473022465E+02  0.54367133665E+02  0.40000112816E+02 0.  0.
        -12    1    3    3    0    0 -0.50328526963E+01 -0.40647715792E+00  0.36473022465E+02  0.36820866335E+02  0.00000000000E+00 0.  1.
         11    1    4    4    0    0  0.76552219980E+01 -0.13296328831E+02 -0.28966014686E+02  0.32778419597E+02  0.51100000000E-03 0. -1.
        -11    1    4    4    0    0  0.53382703575E+00  0.15829250144E+02 -0.80123893067E+01  0.17749606027E+02  0.51100000000E-03 0.  1.
         12    1    4    4    0    0 -0.31561963374E+01 -0.21264441559E+01  0.50538152803E+00  0.38391080419E+01  0.00000000000E+00 0. -1.
</event>
<event>
 8    1  0.1238315E-006  0.9118800E+02  0.7816164E-02  0.1184000E+00
        -11   -1    0    0    0    0  0.00000000000E+00  0.00000000000E+00  0.45593999997E+02  0.45594000000E+02  0.51100000000E-03 0.  1.
         11   -1    0    0    0    0 -0.00000000000E+00 -0.00000000000E+00 -0.45593999997E+02  0.45594000000E+02  0.51100000000E-03 0. -1.
         23    2    1    2    0    0  0.00000000000E+00  0.35527136788E-14  0.00000000000E+00  0.91188000000E+02  0.91188000000E+02 0.  0.
    9900012    2    3    3    0    0  0.11320565530E+02  0.31133856884E+02  0.16072023178E+02  0.54367052464E+02  0.39999927702E+02 0.  0.
         12    1    3    3    0    0 -0.11320565530E+02 -0.31133856884E+02 -0.16072023178E+02  0.36820947536E+02  0.00000000000E+00 0. -1.
         11    1    4    4    0    0  0.80642262504E+01 -0.15963310582E+01 -0.58341166847E+01  0.10080522586E+02  0.51100000000E-03 0. -1.
        -11    1    4    4    0    0 -0.85786040186E-01  0.33765300072E+02  0.22715775322E+02  0.40695322789E+02  0.51100000000E-03 0.  1.
        -12    1    4    4    0    0  0.33421253198E+01 -0.10351121293E+01 -0.80963545942E+00  0.35912070882E+01  0.00000000000E+00 0.  1.
</event>
<event>
 8    1  0.1238315E-006  0.9118800E+02  0.7816164E-02  0.1184000E+00
        -11   -1    0    0    0    0  0.00000000000E+00  0.00000000000E+00  0.45593999997E+02  0.45594000000E+02  0.51100000000E-03 0.  1.
         11   -1    0    0    0    0 -0.00000000000E+00 -0.00000000000E+00 -0.45593999997E+02  0.45594000000E+02  0.51100000000E-03 0. -1.
         23    2    1    2    0    0  0.35527136788E-14  0.17763568394E-14  0.00000000000E+00  0.91188000000E+02  0.91188000000E+02 0.  0.
    9900012    2    3    3    0    0  0.28274851403E+02  0.11681156452E+02 -0.20490586657E+02  0.54367071448E+02  0.39999970980E+02 0.  0.
        -12    1    3    3    0    0 -0.28274851403E+02 -0.11681156452E+02  0.20490586657E+02  0.36820928552E+02  0.00000000000E+00 0.  1.
         11    1    4    4    0    0  0.14277333635E+02  0.17768980589E+01 -0.22018760462E+02  0.26302574683E+02  0.51100000000E-03 0. -1.
        -11    1    4    4    0    0  0.14183705803E+01 -0.66761028026E+01  0.23982941412E+01  0.72342199844E+01  0.51100000000E-03 0.  1.
        -12    1    4    4    0    0  0.12579147187E+02  0.16580361196E+02 -0.87012033640E+00  0.20830276780E+02  0.00000000000E+00 0.  1.
</event>
<event>
 8    1  0.1238315E-006  0.9118800E+02  0.7816164E-02  0.1184000E+00
        -11   -1    0    0    0    0  0.00000000000E+00  0.00000000000E+00  0.45593999997E+02  0.45594000000E+02  0.51100000000E-03 0.  1.
         11   -1    0    0    0    0 -0.00000000000E+00 -0.00000000000E+00 -0.45593999997E+02  0.45594000000E+02  0.51100000000E-03 0. -1.
         23    2    1    2    0    0  0.00000000000E+00  0.00000000000E+00  0.00000000000E+00  0.91188000000E+02  0.91188000000E+02 0.  0.
    9900012    2    3    3    0    0 -0.28898420008E+02 -0.86976687561E+01  0.21095217089E+02  0.54367132211E+02  0.40000109500E+02 0.  0.
        -12    1    3    3    0    0  0.28898420008E+02  0.86976687561E+01 -0.21095217089E+02  0.36820867789E+02  0.00000000000E+00 0.  1.
         11    1    4    4    0    0 -0.77544583934E+01 -0.10232162782E+02  0.75813962760E+00  0.12860931387E+02  0.51100000000E-03 0. -1.
        -11    1    4    4    0    0 -0.26542217634E+01 -0.71958755257E+01  0.19598272826E+02  0.21045612744E+02  0.51100000000E-03 0.  1.
        -12    1    4    4    0    0 -0.18489739851E+02  0.87303695519E+01  0.73880463518E+00  0.20460588079E+02  0.00000000000E+00 0.  1.
</event>
<event>
 8    1  0.1238315E-006  0.9118800E+02  0.7816164E-02  0.1184000E+00
        -11   -1    0    0    0    0  0.00000000000E+00  0.00000000000E+00  0.45593999997E+02  0.45594000000E+02  0.51100000000E-03 0.  1.
         11   -1    0    0    0    0 -0.00000000000E+00 -0.00000000000E+00 -0.45593999997E+02  0.45594000000E+02  0.51100000000E-03 0. -1.
         23    2    1    2    0    0  0.00000000000E+00  0.00000000000E+00  0.00000000000E+00  0.91188000000E+02  0.91188000000E+02 0.  0.
    9900012    2    3    3    0    0 -0.56246667055E+01 -0.17754181442E+02 -0.31763867802E+02  0.54366930869E+02  0.39999650501E+02 0.  0.
        -12    1    3    3    0    0  0.56246667055E+01  0.17754181442E+02  0.31763867802E+02  0.36821069131E+02  0.00000000000E+00 0.  1.
         11    1    4    4    0    0  0.59575161882E+01 -0.21141760739E+02 -0.11099997699E+02  0.24610485478E+02  0.51100000000E-03 0. -1.
        -11    1    4    4    0    0 -0.75764682057E+01  0.13768336741E+01 -0.23311737147E+02  0.24550674747E+02  0.51100000000E-03 0.  1.
        -12    1    4    4    0    0 -0.40057146880E+01  0.20107456229E+01  0.26478670440E+01  0.52057706447E+01  0.00000000000E+00 0.  1.
</event>
<event>
 8    1  0.1238315E-006  0.9118800E+02  0.7816164E-02  0.1184000E+00
        -11   -1    0    0    0    0  0.00000000000E+00  0.00000000000E+00  0.45593999997E+02  0.45594000000E+02  0.51100000000E-03 0. -1.
         11   -1    0    0    0    0 -0.00000000000E+00 -0.00000000000E+00 -0.45593999997E+02  0.45594000000E+02  0.51100000000E-03 0.  1.
         23    2    1    2    0    0  0.00000000000E+00  0.35527136788E-14  0.17763568394E-14  0.91188000000E+02  0.91188000000E+02 0.  0.
    9900012    2    3    3    0    0 -0.20098588340E+02 -0.29154843590E+02 -0.10090652841E+02  0.54367089735E+02  0.40000012668E+02 0.  0.
        -12    1    3    3    0    0  0.20098588340E+02  0.29154843590E+02  0.10090652841E+02  0.36820910265E+02  0.00000000000E+00 0.  1.
         11    1    4    4    0    0  0.35678368810E+00  0.67199435509E+00  0.51757474657E+01  0.52313700981E+01  0.51100000000E-03 0. -1.
        -11    1    4    4    0    0 -0.23313200196E+02 -0.79416581952E+01 -0.77227195953E+01  0.25811153335E+02  0.51100000000E-03 0.  1.
        -12    1    4    4    0    0  0.28578281675E+01 -0.21885179750E+02 -0.75436807112E+01  0.23324566302E+02  0.00000000000E+00 0.  1.
</event>
<event>
 8    1  0.1238315E-006  0.9118800E+02  0.7816164E-02  0.1184000E+00
        -11   -1    0    0    0    0  0.00000000000E+00  0.00000000000E+00  0.45593999997E+02  0.45594000000E+02  0.51100000000E-03 0. -1.
         11   -1    0    0    0    0 -0.00000000000E+00 -0.00000000000E+00 -0.45593999997E+02  0.45594000000E+02  0.51100000000E-03 0.  1.
         23    2    1    2    0    0  0.00000000000E+00 -0.35527136788E-14  0.00000000000E+00  0.91188000000E+02  0.91188000000E+02 0.  0.
    9900012    2    3    3    0    0  0.18265224175E+02 -0.31592679118E+02 -0.49063831678E+01  0.54366968187E+02  0.39999735575E+02 0.  0.
         12    1    3    3    0    0 -0.18265224175E+02  0.31592679118E+02  0.49063831678E+01  0.36821031813E+02  0.00000000000E+00 0. -1.
         11    1    4    4    0    0  0.20872156375E+01  0.59098317490E+01  0.71131037015E+01  0.94804443434E+01  0.51100000000E-03 0. -1.
        -11    1    4    4    0    0  0.30825133927E+01 -0.23174537015E+02 -0.97984379438E+01  0.25348973176E+02  0.51100000000E-03 0.  1.
         12    1    4    4    0    0  0.13095495144E+02 -0.14327973851E+02 -0.22210489256E+01  0.19537550668E+02  0.00000000000E+00 0. -1.
</event>
<event>
 8    1  0.1238315E-006  0.9118800E+02  0.7816164E-02  0.1184000E+00
        -11   -1    0    0    0    0  0.00000000000E+00  0.00000000000E+00  0.45593999997E+02  0.45594000000E+02  0.51100000000E-03 0.  1.
         11   -1    0    0    0    0 -0.00000000000E+00 -0.00000000000E+00 -0.45593999997E+02  0.45594000000E+02  0.51100000000E-03 0. -1.
         23    2    1    2    0    0 -0.35527136788E-14 -0.17763568394E-14 -0.35527136788E-14  0.91188000000E+02  0.91188000000E+02 0.  0.
    9900012    2    3    3    0    0  0.23936169521E+02  0.15327403510E+02 -0.23407472446E+02  0.54367091863E+02  0.40000017521E+02 0.  0.
        -12    1    3    3    0    0 -0.23936169521E+02 -0.15327403510E+02  0.23407472446E+02  0.36820908137E+02  0.00000000000E+00 0.  1.
         11    1    4    4    0    0  0.41137410482E+01  0.13405649958E+02 -0.13718377851E+02  0.19617038699E+02  0.51100000000E-03 0. -1.
        -11    1    4    4    0    0  0.12245510270E+02 -0.69451215348E+01 -0.16143806599E+02  0.21419844226E+02  0.51100000000E-03 0.  1.
        -12    1    4    4    0    0  0.75769182033E+01  0.88668750872E+01  0.64547120046E+01  0.13330208938E+02  0.00000000000E+00 0.  1.
</event>
<event>
 8    1  0.1238315E-006  0.9118800E+02  0.7816164E-02  0.1184000E+00
        -11   -1    0    0    0    0  0.00000000000E+00  0.00000000000E+00  0.45593999997E+02  0.45594000000E+02  0.51100000000E-03 0. -1.
         11   -1    0    0    0    0 -0.00000000000E+00 -0.00000000000E+00 -0.45593999997E+02  0.45594000000E+02  0.51100000000E-03 0.  1.
         23    2    1    2    0    0 -0.35527136788E-14  0.71054273576E-14  0.00000000000E+00  0.91188000000E+02  0.91188000000E+02 0.  0.
    9900012    2    3    3    0    0 -0.16610121866E+02  0.32827147578E+02 -0.15040445061E+01  0.54367083168E+02  0.39999997697E+02 0.  0.
        -12    1    3    3    0    0  0.16610121866E+02 -0.32827147578E+02  0.15040445061E+01  0.36820916832E+02  0.00000000000E+00 0.  1.
         11    1    4    4    0    0  0.18296378363E+01  0.25330445899E+02  0.64299444660E+01  0.26197771854E+02  0.51100000000E-03 0. -1.
        -11    1    4    4    0    0 -0.15496436666E+01  0.96624865324E+01 -0.12061527909E+01  0.98600124898E+01  0.51100000000E-03 0.  1.
        -12    1    4    4    0    0 -0.16890116036E+02 -0.21657848532E+01 -0.67278361812E+01  0.18309298824E+02  0.00000000000E+00 0.  1.
</event>
<event>
 8    1  0.1238315E-006  0.9118800E+02  0.7816164E-02  0.1184000E+00
        -11   -1    0    0    0    0  0.00000000000E+00  0.00000000000E+00  0.45593999997E+02  0.45594000000E+02  0.51100000000E-03 0.  1.
         11   -1    0    0    0    0 -0.00000000000E+00 -0.00000000000E+00 -0.45593999997E+02  0.45594000000E+02  0.51100000000E-03 0. -1.
         23    2    1    2    0    0 -0.17763568394E-14  0.35527136788E-14 -0.35527136788E-14  0.91188000000E+02  0.91188000000E+02 0.  0.
    9900012    2    3    3    0    0 -0.73952678604E+01 -0.17442700523E+02 -0.31572809612E+02  0.54367080741E+02  0.39999992165E+02 0.  0.
        -12    1    3    3    0    0  0.73952678604E+01  0.17442700523E+02  0.31572809612E+02  0.36820919259E+02  0.00000000000E+00 0.  1.
         11    1    4    4    0    0 -0.12570403558E+02 -0.45055473506E+01 -0.26407625171E+01  0.13612076604E+02  0.51100000000E-03 0. -1.
        -11    1    4    4    0    0  0.11741229532E+02 -0.11957468902E+02 -0.29669733865E+02  0.34075367075E+02  0.51100000000E-03 0.  1.
        -12    1    4    4    0    0 -0.65660938339E+01 -0.97968427033E+00  0.73768676933E+00  0.66796370616E+01  0.00000000000E+00 0.  1.
</event>
<event>
 8    1  0.1238315E-006  0.9118800E+02  0.7816164E-02  0.1184000E+00
        -11   -1    0    0    0    0  0.00000000000E+00  0.00000000000E+00  0.45593999997E+02  0.45594000000E+02  0.51100000000E-03 0. -1.
         11   -1    0    0    0    0 -0.00000000000E+00 -0.00000000000E+00 -0.45593999997E+02  0.45594000000E+02  0.51100000000E-03 0.  1.
         23    2    1    2    0    0  0.00000000000E+00  0.00000000000E+00  0.00000000000E+00  0.91188000000E+02  0.91188000000E+02 0.  0.
    9900012    2    3    3    0    0  0.24802483449E+02 -0.26436818979E+02  0.64584704306E+01  0.54367076285E+02  0.39999982007E+02 0.  0.
        -12    1    3    3    0    0 -0.24802483449E+02  0.26436818979E+02 -0.64584704306E+01  0.36820923715E+02  0.00000000000E+00 0.  1.
         11    1    4    4    0    0  0.17371871227E+02 -0.14942265193E+02  0.84051246823E+01  0.24406952292E+02  0.51100000000E-03 0. -1.
        -11    1    4    4    0    0 -0.25708594158E+01 -0.15054381812E+02 -0.85057736043E+01  0.17481187453E+02  0.51100000000E-03 0.  1.
        -12    1    4    4    0    0  0.10001471638E+02  0.35598280264E+01  0.65591193525E+01  0.12478936540E+02  0.00000000000E+00 0.  1.
</event>
<event>
 8    1  0.1238315E-006  0.9118800E+02  0.7816164E-02  0.1184000E+00
        -11   -1    0    0    0    0  0.00000000000E+00  0.00000000000E+00  0.45593999997E+02  0.45594000000E+02  0.51100000000E-03 0. -1.
         11   -1    0    0    0    0 -0.00000000000E+00 -0.00000000000E+00 -0.45593999997E+02  0.45594000000E+02  0.51100000000E-03 0.  1.
         23    2    1    2    0    0  0.17763568394E-14  0.00000000000E+00  0.35527136788E-14  0.91188000000E+02  0.91188000000E+02 0.  0.
    9900012    2    3    3    0    0 -0.80610918050E+01 -0.23544529558E+02 -0.27137660437E+02  0.54367099859E+02  0.40000035748E+02 0.  0.
         12    1    3    3    0    0  0.80610918050E+01  0.23544529558E+02  0.27137660437E+02  0.36820900141E+02  0.00000000000E+00 0. -1.
         11    1    4    4    0    0  0.12569221583E+02 -0.19963822493E+01 -0.27172621742E+01  0.13013623141E+02  0.51100000000E-03 0. -1.
        -11    1    4    4    0    0 -0.63863032926E+01 -0.83766695497E+01 -0.18113470681E+02  0.20953550603E+02  0.51100000000E-03 0.  1.
        -12    1    4    4    0    0 -0.14244010095E+02 -0.13171477759E+02 -0.63069275818E+01  0.20399926114E+02  0.00000000000E+00 0.  1.
</event>
<event>
 8    1  0.1238315E-006  0.9118800E+02  0.7816164E-02  0.1184000E+00
        -11   -1    0    0    0    0  0.00000000000E+00  0.00000000000E+00  0.45593999997E+02  0.45594000000E+02  0.51100000000E-03 0. -1.
         11   -1    0    0    0    0 -0.00000000000E+00 -0.00000000000E+00 -0.45593999997E+02  0.45594000000E+02  0.51100000000E-03 0.  1.
         23    2    1    2    0    0  0.00000000000E+00  0.88817841970E-15  0.00000000000E+00  0.91188000000E+02  0.91188000000E+02 0.  0.
    9900012    2    3    3    0    0 -0.34409754960E+02  0.69072085328E+01 -0.11137276343E+02  0.54367086235E+02  0.40000004690E+02 0.  0.
        -12    1    3    3    0    0  0.34409754960E+02 -0.69072085328E+01  0.11137276343E+02  0.36820913765E+02  0.00000000000E+00 0.  1.
         11    1    4    4    0    0 -0.95106429470E+01  0.78823221872E+01 -0.15115157240E+02  0.19520535623E+02  0.51100000000E-03 0. -1.
        -11    1    4    4    0    0 -0.15645690802E+02 -0.12286145865E+02  0.36737177559E+01  0.20229513670E+02  0.51100000000E-03 0.  1.
        -12    1    4    4    0    0 -0.92534212109E+01  0.11311032211E+02  0.30416314136E+00  0.14617036943E+02  0.00000000000E+00 0.  1.
</event>
<event>
 8    1  0.1238315E-006  0.9118800E+02  0.7816164E-02  0.1184000E+00
        -11   -1    0    0    0    0  0.00000000000E+00  0.00000000000E+00  0.45593999997E+02  0.45594000000E+02  0.51100000000E-03 0.  1.
         11   -1    0    0    0    0 -0.00000000000E+00 -0.00000000000E+00 -0.45593999997E+02  0.45594000000E+02  0.51100000000E-03 0. -1.
         23    2    1    2    0    0 -0.88817841970E-15  0.35527136788E-14  0.35527136788E-14  0.91188000000E+02  0.91188000000E+02 0.  0.
    9900012    2    3    3    0    0 -0.29086327260E+01  0.27941705920E+02  0.23802894372E+02  0.54367124745E+02  0.40000092481E+02 0.  0.
        -12    1    3    3    0    0  0.29086327260E+01 -0.27941705920E+02 -0.23802894372E+02  0.36820875255E+02  0.00000000000E+00 0.  1.
         11    1    4    4    0    0 -0.17121308625E+02  0.52847164400E+01  0.15340836622E+02  0.23588317138E+02  0.51100000000E-03 0. -1.
        -11    1    4    4    0    0 -0.11038220094E+01 -0.94724905747E+00  0.42383815648E+00  0.15150388937E+01  0.51100000000E-03 0.  1.
        -12    1    4    4    0    0  0.15316497908E+02  0.23604238537E+02  0.80382195940E+01  0.29263768714E+02  0.00000000000E+00 0.  1.
</event>
<event>
 8    1  0.1238315E-006  0.9118800E+02  0.7816164E-02  0.1184000E+00
        -11   -1    0    0    0    0  0.00000000000E+00  0.00000000000E+00  0.45593999997E+02  0.45594000000E+02  0.51100000000E-03 0. -1.
         11   -1    0    0    0    0 -0.00000000000E+00 -0.00000000000E+00 -0.45593999997E+02  0.45594000000E+02  0.51100000000E-03 0.  1.
         23    2    1    2    0    0  0.35527136788E-14  0.17763568394E-14  0.35527136788E-14  0.91188000000E+02  0.91188000000E+02 0.  0.
    9900012    2    3    3    0    0 -0.16056393546E+02  0.93755328053E+01  0.31781610860E+02  0.54367093195E+02  0.40000020558E+02 0.  0.
        -12    1    3    3    0    0  0.16056393546E+02 -0.93755328053E+01 -0.31781610860E+02  0.36820906805E+02  0.00000000000E+00 0.  1.
         11    1    4    4    0    0  0.92869333509E+01 -0.50296336797E+01  0.10694583446E+02  0.15030584199E+02  0.51100000000E-03 0. -1.
        -11    1    4    4    0    0  0.21564220300E+00 -0.25347006986E+01  0.16000453059E+01  0.30052211954E+01  0.51100000000E-03 0.  1.
         12    1    4    4    0    0 -0.25558969099E+02  0.16939867184E+02  0.19486982108E+02  0.36331287801E+02  0.00000000000E+00 0. -1.
</event>
<event>
 8    1  0.1238315E-006  0.9118800E+02  0.7816164E-02  0.1184000E+00
        -11   -1    0    0    0    0  0.00000000000E+00  0.00000000000E+00  0.45593999997E+02  0.45594000000E+02  0.51100000000E-03 0.  1.
         11   -1    0    0    0    0 -0.00000000000E+00 -0.00000000000E+00 -0.45593999997E+02  0.45594000000E+02  0.51100000000E-03 0. -1.
         23    2    1    2    0    0  0.66613381478E-15  0.71054273576E-14 -0.88817841970E-15  0.91188000000E+02  0.91188000000E+02 0.  0.
    9900012    2    3    3    0    0 -0.15186905251E+01 -0.35952782506E+02 -0.78018696184E+01  0.54367107012E+02  0.40000052056E+02 0.  0.
         12    1    3    3    0    0  0.15186905251E+01  0.35952782506E+02  0.78018696184E+01  0.36820892988E+02  0.00000000000E+00 0. -1.
         11    1    4    4    0    0  0.40559453356E+01  0.27969836819E+01  0.92492318510E-01  0.49277140108E+01  0.51100000000E-03 0. -1.
        -11    1    4    4    0    0  0.28489880296E+01 -0.29663327056E+02 -0.16773349089E+02  0.34196124703E+02  0.51100000000E-03 0.  1.
         12    1    4    4    0    0 -0.84236238902E+01 -0.90864391327E+01  0.88789871525E+01  0.15243268298E+02  0.00000000000E+00 0. -1.
</event>
<event>
 8    1  0.1238315E-006  0.9118800E+02  0.7816164E-02  0.1184000E+00
        -11   -1    0    0    0    0  0.00000000000E+00  0.00000000000E+00  0.45593999997E+02  0.45594000000E+02  0.51100000000E-03 0.  1.
         11   -1    0    0    0    0 -0.00000000000E+00 -0.00000000000E+00 -0.45593999997E+02  0.45594000000E+02  0.51100000000E-03 0. -1.
         23    2    1    2    0    0  0.00000000000E+00  0.00000000000E+00  0.00000000000E+00  0.91188000000E+02  0.91188000000E+02 0.  0.
    9900012    2    3    3    0    0 -0.14792747575E+02 -0.17774609317E+02 -0.28653412242E+02  0.54367079991E+02  0.39999990456E+02 0.  0.
        -12    1    3    3    0    0  0.14792747575E+02  0.17774609317E+02  0.28653412242E+02  0.36820920009E+02  0.00000000000E+00 0.  1.
         11    1    4    4    0    0 -0.16755506328E+02 -0.40480115444E+01 -0.28324363339E+02  0.33157245794E+02  0.51100000000E-03 0. -1.
        -11    1    4    4    0    0  0.87951310497E+01 -0.50035235234E+01 -0.45155605874E+00  0.10128844009E+02  0.51100000000E-03 0.  1.
         12    1    4    4    0    0 -0.68323722963E+01 -0.87230742490E+01  0.12250715579E+00  0.11080990188E+02  0.00000000000E+00 0. -1.
</event>
<event>
 8    1  0.1238315E-006  0.9118800E+02  0.7816164E-02  0.1184000E+00
        -11   -1    0    0    0    0  0.00000000000E+00  0.00000000000E+00  0.45593999997E+02  0.45594000000E+02  0.51100000000E-03 0.  1.
         11   -1    0    0    0    0 -0.00000000000E+00 -0.00000000000E+00 -0.45593999997E+02  0.45594000000E+02  0.51100000000E-03 0. -1.
         23    2    1    2    0    0  0.33306690739E-15 -0.17763568394E-14  0.00000000000E+00  0.91188000000E+02  0.91188000000E+02 0.  0.
    9900012    2    3    3    0    0  0.29027135816E+00  0.10939171682E+02 -0.35157245888E+02  0.54367059314E+02  0.39999943318E+02 0.  0.
        -12    1    3    3    0    0 -0.29027135816E+00 -0.10939171682E+02  0.35157245888E+02  0.36820940686E+02  0.00000000000E+00 0.  1.
         11    1    4    4    0    0  0.32485681366E+01 -0.92995025427E+01 -0.97017183459E+01  0.13825964039E+02  0.51100000000E-03 0. -1.
        -11    1    4    4    0    0 -0.57972920326E+01 -0.37141164599E+01 -0.27464171451E+01  0.74125611893E+01  0.51100000000E-03 0.  1.
         12    1    4    4    0    0  0.28389952543E+01  0.23952790685E+02 -0.22709110397E+02  0.33128534086E+02  0.00000000000E+00 0. -1.
</event>
<event>
 8    1  0.1238315E-006  0.9118800E+02  0.7816164E-02  0.1184000E+00
        -11   -1    0    0    0    0  0.00000000000E+00  0.00000000000E+00  0.45593999997E+02  0.45594000000E+02  0.51100000000E-03 0.  1.
         11   -1    0    0    0    0 -0.00000000000E+00 -0.00000000000E+00 -0.45593999997E+02  0.45594000000E+02  0.51100000000E-03 0. -1.
         23    2    1    2    0    0 -0.35527136788E-14  0.00000000000E+00  0.35527136788E-14  0.91188000000E+02  0.91188000000E+02 0.  0.
    9900012    2    3    3    0    0  0.18551592910E+02 -0.17025006380E+02 -0.26865733644E+02  0.54367080865E+02  0.39999992448E+02 0.  0.
        -12    1    3    3    0    0 -0.18551592910E+02  0.17025006380E+02  0.26865733644E+02  0.36820919135E+02  0.00000000000E+00 0.  1.
         11    1    4    4    0    0  0.11037976497E+02  0.74113947302E+01 -0.12018931734E+02  0.17922623058E+02  0.51100000000E-03 0. -1.
        -11    1    4    4    0    0  0.63726003274E+01 -0.18378849909E+02  0.96235624079E+00  0.19476095315E+02  0.51100000000E-03 0.  1.
        -12    1    4    4    0    0  0.11410160856E+01 -0.60575512007E+01 -0.15809158150E+02  0.16968362492E+02  0.00000000000E+00 0.  1.
</event>
<event>
 8    1  0.1238315E-006  0.9118800E+02  0.7816164E-02  0.1184000E+00
        -11   -1    0    0    0    0  0.00000000000E+00  0.00000000000E+00  0.45593999997E+02  0.45594000000E+02  0.51100000000E-03 0.  1.
         11   -1    0    0    0    0 -0.00000000000E+00 -0.00000000000E+00 -0.45593999997E+02  0.45594000000E+02  0.51100000000E-03 0. -1.
         23    2    1    2    0    0  0.00000000000E+00  0.00000000000E+00  0.35527136788E-14  0.91188000000E+02  0.91188000000E+02 0.  0.
    9900012    2    3    3    0    0 -0.91454132085E+01  0.28090434969E+02  0.21978855300E+02  0.54367065740E+02  0.39999957967E+02 0.  0.
         12    1    3    3    0    0  0.91454132085E+01 -0.28090434969E+02 -0.21978855300E+02  0.36820934260E+02  0.00000000000E+00 0. -1.
         11    1    4    4    0    0  0.17519036293E+01 -0.45243900914E+01  0.53796872508E+01  0.72443293135E+01  0.51100000000E-03 0. -1.
        -11    1    4    4    0    0 -0.15210957193E+02  0.19247525945E+02  0.21115672783E+02  0.32368381348E+02  0.51100000000E-03 0.  1.
        -12    1    4    4    0    0  0.43136403556E+01  0.13367299116E+02 -0.45165047339E+01  0.14754355078E+02  0.00000000000E+00 0.  1.
</event>
<event>
 8    1  0.1238315E-006  0.9118800E+02  0.7816164E-02  0.1184000E+00
        -11   -1    0    0    0    0  0.00000000000E+00  0.00000000000E+00  0.45593999997E+02  0.45594000000E+02  0.51100000000E-03 0. -1.
         11   -1    0    0    0    0 -0.00000000000E+00 -0.00000000000E+00 -0.45593999997E+02  0.45594000000E+02  0.51100000000E-03 0.  1.
         23    2    1    2    0    0  0.00000000000E+00  0.00000000000E+00  0.00000000000E+00  0.91188000000E+02  0.91188000000E+02 0.  0.
    9900012    2    3    3    0    0  0.12252490529E+02  0.29269634469E+02 -0.18680061270E+02  0.54367085900E+02  0.40000003926E+02 0.  0.
         12    1    3    3    0    0 -0.12252490529E+02 -0.29269634469E+02  0.18680061270E+02  0.36820914100E+02  0.00000000000E+00 0. -1.
         11    1    4    4    0    0  0.60412056455E+01  0.57476861743E+01 -0.58140116659E+01  0.10165372296E+02  0.51100000000E-03 0. -1.
        -11    1    4    4    0    0 -0.91906811106E+01  0.25093923681E+02 -0.68155835019E+01  0.27579445312E+02  0.51100000000E-03 0.  1.
         12    1    4    4    0    0  0.15401965994E+02 -0.15719753857E+01 -0.60504661018E+01  0.16622268292E+02  0.00000000000E+00 0. -1.
</event>
<event>
 8    1  0.1238315E-006  0.9118800E+02  0.7816164E-02  0.1184000E+00
        -11   -1    0    0    0    0  0.00000000000E+00  0.00000000000E+00  0.45593999997E+02  0.45594000000E+02  0.51100000000E-03 0.  1.
         11   -1    0    0    0    0 -0.00000000000E+00 -0.00000000000E+00 -0.45593999997E+02  0.45594000000E+02  0.51100000000E-03 0. -1.
         23    2    1    2    0    0 -0.88817841970E-15  0.00000000000E+00  0.71054273576E-14  0.91188000000E+02  0.91188000000E+02 0.  0.
    9900012    2    3    3    0    0  0.77394271809E+01  0.84048706131E+01 -0.35003424743E+02  0.54367077594E+02  0.39999984990E+02 0.  0.
        -12    1    3    3    0    0 -0.77394271809E+01 -0.84048706131E+01  0.35003424743E+02  0.36820922406E+02  0.00000000000E+00 0.  1.
         11    1    4    4    0    0 -0.41541341145E+01  0.39471255050E+01 -0.12134144279E+02  0.13419168664E+02  0.51100000000E-03 0. -1.
        -11    1    4    4    0    0 -0.81478787324E+01 -0.64002847116E+01 -0.32087864766E+01  0.10846560890E+02  0.51100000000E-03 0.  1.
         12    1    4    4    0    0  0.20041440028E+02  0.10858029820E+02 -0.19660493988E+02  0.30101348040E+02  0.00000000000E+00 0. -1.
</event>
<event>
 8    1  0.1238315E-006  0.9118800E+02  0.7816164E-02  0.1184000E+00
        -11   -1    0    0    0    0  0.00000000000E+00  0.00000000000E+00  0.45593999997E+02  0.45594000000E+02  0.51100000000E-03 0.  1.
         11   -1    0    0    0    0 -0.00000000000E+00 -0.00000000000E+00 -0.45593999997E+02  0.45594000000E+02  0.51100000000E-03 0. -1.
         23    2    1    2    0    0 -0.17763568394E-14  0.00000000000E+00  0.35527136788E-14  0.91188000000E+02  0.91188000000E+02 0.  0.
    9900012    2    3    3    0    0 -0.11624935940E+02 -0.26501502396E+02  0.22766459682E+02  0.54367075904E+02  0.39999981138E+02 0.  0.
        -12    1    3    3    0    0  0.11624935940E+02  0.26501502396E+02 -0.22766459682E+02  0.36820924096E+02  0.00000000000E+00 0.  1.
         11    1    4    4    0    0  0.20488135695E+01 -0.18686156512E+02  0.34402323547E+00  0.18801288107E+02  0.51100000000E-03 0. -1.
        -11    1    4    4    0    0 -0.25498192513E+01 -0.40353400979E+01  0.23300470111E+02  0.23784395212E+02  0.51100000000E-03 0.  1.
         12    1    4    4    0    0 -0.11123930258E+02 -0.37800057856E+01 -0.87803366482E+00  0.11781392585E+02  0.00000000000E+00 0. -1.
</event>
<event>
 8    1  0.1238315E-006  0.9118800E+02  0.7816164E-02  0.1184000E+00
        -11   -1    0    0    0    0  0.00000000000E+00  0.00000000000E+00  0.45593999997E+02  0.45594000000E+02  0.51100000000E-03 0. -1.
         11   -1    0    0    0    0 -0.00000000000E+00 -0.00000000000E+00 -0.45593999997E+02  0.45594000000E+02  0.51100000000E-03 0.  1.
         23    2    1    2    0    0  0.00000000000E+00 -0.17763568394E-14  0.00000000000E+00  0.91188000000E+02  0.91188000000E+02 0.  0.
    9900012    2    3    3    0    0  0.34882211700E+02 -0.93438097224E+01 -0.71905046154E+01  0.54367097922E+02  0.40000031332E+02 0.  0.
         12    1    3    3    0    0 -0.34882211700E+02  0.93438097224E+01  0.71905046154E+01  0.36820902078E+02  0.00000000000E+00 0. -1.
         11    1    4    4    0    0 -0.35138421768E+01 -0.91255129807E+01  0.52934088030E+01  0.11119453720E+02  0.51100000000E-03 0. -1.
        -11    1    4    4    0    0  0.10344734176E+02  0.13659756387E+01 -0.10926433428E+02  0.15108486434E+02  0.51100000000E-03 0.  1.
        -12    1    4    4    0    0  0.28051319702E+02 -0.15842723804E+01 -0.15574799905E+01  0.28139157768E+02  0.00000000000E+00 0.  1.
</event>
<event>
 8    1  0.1238315E-006  0.9118800E+02  0.7816164E-02  0.1184000E+00
        -11   -1    0    0    0    0  0.00000000000E+00  0.00000000000E+00  0.45593999997E+02  0.45594000000E+02  0.51100000000E-03 0.  1.
         11   -1    0    0    0    0 -0.00000000000E+00 -0.00000000000E+00 -0.45593999997E+02  0.45594000000E+02  0.51100000000E-03 0. -1.
         23    2    1    2    0    0  0.00000000000E+00  0.00000000000E+00 -0.17763568394E-14  0.91188000000E+02  0.91188000000E+02 0.  0.
    9900012    2    3    3    0    0 -0.29579398781E+02  0.16396241880E+02 -0.14560277670E+02  0.54367092002E+02  0.40000017836E+02 0.  0.
        -12    1    3    3    0    0  0.29579398781E+02 -0.16396241880E+02  0.14560277670E+02  0.36820907998E+02  0.00000000000E+00 0.  1.
         11    1    4    4    0    0 -0.61345851731E+01  0.90760137309E+01  0.25672092343E+01  0.11251565402E+02  0.51100000000E-03 0. -1.
        -11    1    4    4    0    0 -0.13441129627E+01 -0.10318517333E+02 -0.73649399641E+00  0.10431723888E+02  0.51100000000E-03 0.  1.
         12    1    4    4    0    0 -0.22100700645E+02  0.17638745482E+02 -0.16390992907E+02  0.32683802711E+02  0.00000000000E+00 0. -1.
</event>
<event>
 8    1  0.1238315E-006  0.9118800E+02  0.7816164E-02  0.1184000E+00
        -11   -1    0    0    0    0  0.00000000000E+00  0.00000000000E+00  0.45593999997E+02  0.45594000000E+02  0.51100000000E-03 0. -1.
         11   -1    0    0    0    0 -0.00000000000E+00 -0.00000000000E+00 -0.45593999997E+02  0.45594000000E+02  0.51100000000E-03 0.  1.
         23    2    1    2    0    0  0.00000000000E+00  0.00000000000E+00  0.00000000000E+00  0.91188000000E+02  0.91188000000E+02 0.  0.
    9900012    2    3    3    0    0  0.24007660590E+02  0.21807616040E+02 -0.17430993836E+02  0.54367089766E+02  0.40000012739E+02 0.  0.
         12    1    3    3    0    0 -0.24007660590E+02 -0.21807616040E+02  0.17430993836E+02  0.36820910234E+02  0.00000000000E+00 0. -1.
         11    1    4    4    0    0  0.32739326227E+01  0.80740991651E+01 -0.23578668562E+02  0.25136891684E+02  0.51100000000E-03 0. -1.
        -11    1    4    4    0    0  0.66003380212E+00 -0.15737762326E+01 -0.20694552323E+01  0.26823611744E+01  0.51100000000E-03 0.  1.
         12    1    4    4    0    0  0.20073694165E+02  0.15307293108E+02  0.82171299578E+01  0.26547836907E+02  0.00000000000E+00 0. -1.
</event>
<event>
 8    1  0.1238315E-006  0.9118800E+02  0.7816164E-02  0.1184000E+00
        -11   -1    0    0    0    0  0.00000000000E+00  0.00000000000E+00  0.45593999997E+02  0.45594000000E+02  0.51100000000E-03 0. -1.
         11   -1    0    0    0    0 -0.00000000000E+00 -0.00000000000E+00 -0.45593999997E+02  0.45594000000E+02  0.51100000000E-03 0.  1.
         23    2    1    2    0    0  0.35527136788E-14  0.00000000000E+00 -0.88817841970E-15  0.91188000000E+02  0.91188000000E+02 0.  0.
    9900012    2    3    3    0    0 -0.22706992687E+02  0.28837041828E+02  0.29323072554E+01  0.54367069483E+02  0.39999966501E+02 0.  0.
        -12    1    3    3    0    0  0.22706992687E+02 -0.28837041828E+02 -0.29323072554E+01  0.36820930517E+02  0.00000000000E+00 0.  1.
         11    1    4    4    0    0  0.13688644856E+01  0.20911558622E+02  0.46324371279E+01  0.21462212094E+02  0.51100000000E-03 0. -1.
        -11    1    4    4    0    0  0.11722846194E+01  0.10434654662E+01  0.55355190293E+01  0.57536981666E+01  0.51100000000E-03 0.  1.
        -12    1    4    4    0    0 -0.25248141792E+02  0.68820177404E+01 -0.72356489018E+01  0.27151159223E+02  0.00000000000E+00 0.  1.
</event>
<event>
 8    1  0.1238315E-006  0.9118800E+02  0.7816164E-02  0.1184000E+00
        -11   -1    0    0    0    0  0.00000000000E+00  0.00000000000E+00  0.45593999997E+02  0.45594000000E+02  0.51100000000E-03 0. -1.
         11   -1    0    0    0    0 -0.00000000000E+00 -0.00000000000E+00 -0.45593999997E+02  0.45594000000E+02  0.51100000000E-03 0.  1.
         23    2    1    2    0    0  0.00000000000E+00  0.00000000000E+00  0.00000000000E+00  0.91188000000E+02  0.91188000000E+02 0.  0.
    9900012    2    3    3    0    0  0.55525554976E+01 -0.25217557469E+02 -0.26249226137E+02  0.54367109869E+02  0.40000058568E+02 0.  0.
         12    1    3    3    0    0 -0.55525554976E+01  0.25217557469E+02  0.26249226137E+02  0.36820890131E+02  0.00000000000E+00 0. -1.
         11    1    4    4    0    0 -0.56527050054E+00  0.97367146130E+00  0.55168563445E+01  0.56305657833E+01  0.51100000000E-03 0. -1.
        -11    1    4    4    0    0 -0.51137399188E+01 -0.27608919139E+01 -0.18839420365E+02  0.19715390436E+02  0.51100000000E-03 0.  1.
         12    1    4    4    0    0  0.11231565917E+02 -0.23430337017E+02 -0.12926662117E+02  0.29021153649E+02  0.00000000000E+00 0. -1.
</event>
<event>
 8    1  0.1238315E-006  0.9118800E+02  0.7816164E-02  0.1184000E+00
        -11   -1    0    0    0    0  0.00000000000E+00  0.00000000000E+00  0.45593999997E+02  0.45594000000E+02  0.51100000000E-03 0.  1.
         11   -1    0    0    0    0 -0.00000000000E+00 -0.00000000000E+00 -0.45593999997E+02  0.45594000000E+02  0.51100000000E-03 0. -1.
         23    2    1    2    0    0  0.35527136788E-14 -0.88817841970E-15  0.35527136788E-14  0.91188000000E+02  0.91188000000E+02 0.  0.
    9900012    2    3    3    0    0  0.28094618352E+02  0.64194908744E+01  0.22918603743E+02  0.54367084191E+02  0.40000000031E+02 0.  0.
         12    1    3    3    0    0 -0.28094618352E+02 -0.64194908744E+01 -0.22918603743E+02  0.36820915809E+02  0.00000000000E+00 0. -1.
         11    1    4    4    0    0  0.45864538459E+01  0.34047609846E+01  0.59080990761E+01  0.82178824035E+01  0.51100000000E-03 0. -1.
        -11    1    4    4    0    0  0.91346659585E+01  0.19157334775E+02  0.71907760985E+01  0.22408767459E+02  0.51100000000E-03 0.  1.
        -12    1    4    4    0    0  0.14373498548E+02 -0.16142604885E+02  0.98197285687E+01  0.23740434329E+02  0.00000000000E+00 0.  1.
</event>
<event>
 8    1  0.1238315E-006  0.9118800E+02  0.7816164E-02  0.1184000E+00
        -11   -1    0    0    0    0  0.00000000000E+00  0.00000000000E+00  0.45593999997E+02  0.45594000000E+02  0.51100000000E-03 0.  1.
         11   -1    0    0    0    0 -0.00000000000E+00 -0.00000000000E+00 -0.45593999997E+02  0.45594000000E+02  0.51100000000E-03 0. -1.
         23    2    1    2    0    0  0.19984014443E-14  0.00000000000E+00  0.00000000000E+00  0.91188000000E+02  0.91188000000E+02 0.  0.
    9900012    2    3    3    0    0 -0.15065719423E+01  0.47928386365E+01 -0.36476562457E+02  0.54367072936E+02  0.39999974372E+02 0.  0.
        -12    1    3    3    0    0  0.15065719423E+01 -0.47928386365E+01  0.36476562457E+02  0.36820927064E+02  0.00000000000E+00 0.  1.
         11    1    4    4    0    0 -0.11735479517E+02 -0.96218141995E+01 -0.13616312990E+02  0.20388839292E+02  0.51100000000E-03 0. -1.
        -11    1    4    4    0    0  0.76919454404E+01  0.43008046562E+00 -0.81285312669E+00  0.77467234578E+01  0.51100000000E-03 0.  1.
         12    1    4    4    0    0  0.25369621341E+01  0.13984572370E+02 -0.22047396340E+02  0.26231510186E+02  0.00000000000E+00 0. -1.
</event>
<event>
 8    1  0.1238315E-006  0.9118800E+02  0.7816164E-02  0.1184000E+00
        -11   -1    0    0    0    0  0.00000000000E+00  0.00000000000E+00  0.45593999997E+02  0.45594000000E+02  0.51100000000E-03 0.  1.
         11   -1    0    0    0    0 -0.00000000000E+00 -0.00000000000E+00 -0.45593999997E+02  0.45594000000E+02  0.51100000000E-03 0. -1.
         23    2    1    2    0    0  0.00000000000E+00 -0.35527136788E-14  0.00000000000E+00  0.91188000000E+02  0.91188000000E+02 0.  0.
    9900012    2    3    3    0    0  0.61468263905E+01  0.27436934400E+02 -0.23774159551E+02  0.54367088736E+02  0.40000010392E+02 0.  0.
        -12    1    3    3    0    0 -0.61468263905E+01 -0.27436934400E+02  0.23774159551E+02  0.36820911264E+02  0.00000000000E+00 0.  1.
         11    1    4    4    0    0  0.16958595473E+01 -0.15376575587E+01 -0.23353565402E+01  0.32702019514E+01  0.51100000000E-03 0. -1.
        -11    1    4    4    0    0 -0.11044809857E+02 -0.41895543992E+00 -0.12503748720E+02  0.16688531413E+02  0.51100000000E-03 0.  1.
         12    1    4    4    0    0  0.15495776700E+02  0.29393547398E+02 -0.89350542917E+01  0.34408355372E+02  0.00000000000E+00 0. -1.
</event>
<event>
 8    1  0.1238315E-006  0.9118800E+02  0.7816164E-02  0.1184000E+00
        -11   -1    0    0    0    0  0.00000000000E+00  0.00000000000E+00  0.45593999997E+02  0.45594000000E+02  0.51100000000E-03 0. -1.
         11   -1    0    0    0    0 -0.00000000000E+00 -0.00000000000E+00 -0.45593999997E+02  0.45594000000E+02  0.51100000000E-03 0.  1.
         23    2    1    2    0    0  0.00000000000E+00  0.00000000000E+00  0.44408920985E-15  0.91188000000E+02  0.91188000000E+02 0.  0.
    9900012    2    3    3    0    0  0.23419480846E+02  0.28191445879E+02  0.35424893376E+01  0.54367096500E+02  0.40000028092E+02 0.  0.
         12    1    3    3    0    0 -0.23419480846E+02 -0.28191445879E+02 -0.35424893376E+01  0.36820903500E+02  0.00000000000E+00 0. -1.
         11    1    4    4    0    0 -0.96676781157E+01  0.72112792895E+01 -0.23739343076E+01  0.12292359964E+02  0.51100000000E-03 0. -1.
        -11    1    4    4    0    0  0.34635584742E+01  0.51121685286E+01  0.57955481361E+01  0.84687001852E+01  0.51100000000E-03 0.  1.
        -12    1    4    4    0    0  0.29623600488E+02  0.15867998060E+02  0.12087550911E+00  0.33606036351E+02  0.00000000000E+00 0.  1.
</event>
<event>
 8    1  0.1238315E-006  0.9118800E+02  0.7816164E-02  0.1184000E+00
        -11   -1    0    0    0    0  0.00000000000E+00  0.00000000000E+00  0.45593999997E+02  0.45594000000E+02  0.51100000000E-03 0.  1.
         11   -1    0    0    0    0 -0.00000000000E+00 -0.00000000000E+00 -0.45593999997E+02  0.45594000000E+02  0.51100000000E-03 0. -1.
         23    2    1    2    0    0  0.00000000000E+00  0.00000000000E+00  0.71054273576E-14  0.91188000000E+02  0.91188000000E+02 0.  0.
    9900012    2    3    3    0    0 -0.11049723729E+02  0.64279745451E+01  0.34530635437E+02  0.54367081558E+02  0.39999994027E+02 0.  0.
         12    1    3    3    0    0  0.11049723729E+02 -0.64279745451E+01 -0.34530635437E+02  0.36820918442E+02  0.00000000000E+00 0. -1.
         11    1    4    4    0    0 -0.15827329992E+01  0.84389773437E+00 -0.71345562852E+01  0.73565685466E+01  0.51100000000E-03 0. -1.
        -11    1    4    4    0    0 -0.13838627349E+02  0.84916088281E+01  0.27933856426E+02  0.32309679084E+02  0.51100000000E-03 0.  1.
         12    1    4    4    0    0  0.43716366187E+01 -0.29075320173E+01  0.13731335296E+02  0.14700833928E+02  0.00000000000E+00 0. -1.
</event>
<event>
 8    1  0.1238315E-006  0.9118800E+02  0.7816164E-02  0.1184000E+00
        -11   -1    0    0    0    0  0.00000000000E+00  0.00000000000E+00  0.45593999997E+02  0.45594000000E+02  0.51100000000E-03 0.  1.
         11   -1    0    0    0    0 -0.00000000000E+00 -0.00000000000E+00 -0.45593999997E+02  0.45594000000E+02  0.51100000000E-03 0. -1.
         23    2    1    2    0    0 -0.35527136788E-14  0.00000000000E+00  0.13322676296E-14  0.91188000000E+02  0.91188000000E+02 0.  0.
    9900012    2    3    3    0    0 -0.31731179644E+02  0.18486939315E+02 -0.26729487016E+01  0.54367090972E+02  0.40000015489E+02 0.  0.
        -12    1    3    3    0    0  0.31731179644E+02 -0.18486939315E+02  0.26729487016E+01  0.36820909028E+02  0.00000000000E+00 0.  1.
         11    1    4    4    0    0 -0.10602154602E+02  0.13818566392E+02 -0.15169355097E+02  0.23096921735E+02  0.51100000000E-03 0. -1.
        -11    1    4    4    0    0 -0.13750745826E+01 -0.29456637002E+01  0.93099225857E+01  0.98611573132E+01  0.51100000000E-03 0.  1.
         12    1    4    4    0    0 -0.19753950460E+02  0.76140366236E+01  0.31864838096E+01  0.21409011924E+02  0.00000000000E+00 0. -1.
</event>
<event>
 8    1  0.1238315E-006  0.9118800E+02  0.7816164E-02  0.1184000E+00
        -11   -1    0    0    0    0  0.00000000000E+00  0.00000000000E+00  0.45593999997E+02  0.45594000000E+02  0.51100000000E-03 0.  1.
         11   -1    0    0    0    0 -0.00000000000E+00 -0.00000000000E+00 -0.45593999997E+02  0.45594000000E+02  0.51100000000E-03 0. -1.
         23    2    1    2    0    0  0.35527136788E-14 -0.35527136788E-14 -0.17763568394E-14  0.91188000000E+02  0.91188000000E+02 0.  0.
    9900012    2    3    3    0    0  0.16501925215E+02 -0.31387301272E+02 -0.99148562036E+01  0.54367074013E+02  0.39999976829E+02 0.  0.
         12    1    3    3    0    0 -0.16501925215E+02  0.31387301272E+02  0.99148562036E+01  0.36820925987E+02  0.00000000000E+00 0. -1.
         11    1    4    4    0    0  0.15273741739E+02 -0.25177156873E+02 -0.17287910541E+01  0.29498561553E+02  0.51100000000E-03 0. -1.
        -11    1    4    4    0    0 -0.44633645483E+01 -0.12701506301E+02 -0.76579798212E+00  0.13484670267E+02  0.51100000000E-03 0.  1.
         12    1    4    4    0    0  0.56915480244E+01  0.64913619015E+01 -0.74202671674E+01  0.11383842193E+02  0.00000000000E+00 0. -1.
</event>
<event>
 8    1  0.1238315E-006  0.9118800E+02  0.7816164E-02  0.1184000E+00
        -11   -1    0    0    0    0  0.00000000000E+00  0.00000000000E+00  0.45593999997E+02  0.45594000000E+02  0.51100000000E-03 0.  1.
         11   -1    0    0    0    0 -0.00000000000E+00 -0.00000000000E+00 -0.45593999997E+02  0.45594000000E+02  0.51100000000E-03 0. -1.
         23    2    1    2    0    0  0.00000000000E+00  0.00000000000E+00 -0.17763568394E-14  0.91188000000E+02  0.91188000000E+02 0.  0.
    9900012    2    3    3    0    0 -0.11758457475E+02  0.34624453746E+02  0.43203667153E+01  0.54367086269E+02  0.40000004768E+02 0.  0.
         12    1    3    3    0    0  0.11758457475E+02 -0.34624453746E+02 -0.43203667153E+01  0.36820913731E+02  0.00000000000E+00 0. -1.
         11    1    4    4    0    0  0.24195332990E+01  0.59156394054E+01 -0.81230317960E+01  0.10335984558E+02  0.51100000000E-03 0. -1.
        -11    1    4    4    0    0  0.71252568039E+01  0.91378674784E+01  0.94423186563E+01  0.14947484352E+02  0.51100000000E-03 0.  1.
         12    1    4    4    0    0 -0.21303247578E+02  0.19570946863E+02  0.30010798550E+01  0.29083617360E+02  0.00000000000E+00 0. -1.
</event>
<event>
 8    1  0.1238315E-006  0.9118800E+02  0.7816164E-02  0.1184000E+00
        -11   -1    0    0    0    0  0.00000000000E+00  0.00000000000E+00  0.45593999997E+02  0.45594000000E+02  0.51100000000E-03 0.  1.
         11   -1    0    0    0    0 -0.00000000000E+00 -0.00000000000E+00 -0.45593999997E+02  0.45594000000E+02  0.51100000000E-03 0. -1.
         23    2    1    2    0    0  0.88817841970E-15  0.17763568394E-14  0.00000000000E+00  0.91188000000E+02  0.91188000000E+02 0.  0.
    9900012    2    3    3    0    0 -0.51371996664E+01 -0.12216953747E+02  0.34353084696E+02  0.54367092795E+02  0.40000019646E+02 0.  0.
         12    1    3    3    0    0  0.51371996664E+01  0.12216953747E+02 -0.34353084696E+02  0.36820907205E+02  0.00000000000E+00 0. -1.
         11    1    4    4    0    0 -0.15136700386E+02 -0.92000640961E+00  0.22821526919E+02  0.27400514622E+02  0.51100000000E-03 0. -1.
        -11    1    4    4    0    0  0.52463421472E+01 -0.18740544861E+01  0.14884519022E+02  0.15892925876E+02  0.51100000000E-03 0.  1.
         12    1    4    4    0    0  0.47531585721E+01 -0.94228928509E+01 -0.33529612449E+01  0.11073652297E+02  0.00000000000E+00 0. -1.
</event>
<event>
 8    1  0.1238315E-006  0.9118800E+02  0.7816164E-02  0.1184000E+00
        -11   -1    0    0    0    0  0.00000000000E+00  0.00000000000E+00  0.45593999997E+02  0.45594000000E+02  0.51100000000E-03 0. -1.
         11   -1    0    0    0    0 -0.00000000000E+00 -0.00000000000E+00 -0.45593999997E+02  0.45594000000E+02  0.51100000000E-03 0.  1.
         23    2    1    2    0    0  0.00000000000E+00 -0.35527136788E-14  0.35527136788E-14  0.91188000000E+02  0.91188000000E+02 0.  0.
    9900012    2    3    3    0    0 -0.16778001637E+02  0.22022697962E+02 -0.24275072400E+02  0.54367086045E+02  0.40000004258E+02 0.  0.
         12    1    3    3    0    0  0.16778001637E+02 -0.22022697962E+02  0.24275072400E+02  0.36820913955E+02  0.00000000000E+00 0. -1.
         11    1    4    4    0    0 -0.21711979204E+02  0.46698064799E+01  0.46587445941E+00  0.22213378239E+02  0.51100000000E-03 0. -1.
        -11    1    4    4    0    0  0.57532848460E+01  0.13759073709E+02 -0.12788558505E+02  0.19645855154E+02  0.51100000000E-03 0.  1.
         12    1    4    4    0    0 -0.81930727875E+00  0.35938177734E+01 -0.11952388354E+02  0.12507852652E+02  0.00000000000E+00 0. -1.
</event>
<event>
 8    1  0.1238315E-006  0.9118800E+02  0.7816164E-02  0.1184000E+00
        -11   -1    0    0    0    0  0.00000000000E+00  0.00000000000E+00  0.45593999997E+02  0.45594000000E+02  0.51100000000E-03 0.  1.
         11   -1    0    0    0    0 -0.00000000000E+00 -0.00000000000E+00 -0.45593999997E+02  0.45594000000E+02  0.51100000000E-03 0. -1.
         23    2    1    2    0    0  0.55511151231E-16  0.00000000000E+00  0.00000000000E+00  0.91188000000E+02  0.91188000000E+02 0.  0.
    9900012    2    3    3    0    0  0.35588246215E+00  0.33566444748E+02  0.15131007885E+02  0.54367078434E+02  0.39999986905E+02 0.  0.
         12    1    3    3    0    0 -0.35588246215E+00 -0.33566444748E+02 -0.15131007885E+02  0.36820921566E+02  0.00000000000E+00 0. -1.
         11    1    4    4    0    0  0.83164793308E+01  0.80479820457E+01  0.10767856305E+01  0.11622964812E+02  0.51100000000E-03 0. -1.
        -11    1    4    4    0    0  0.68835052514E+01  0.21643849284E+02  0.15248756019E+02  0.27356231772E+02  0.51100000000E-03 0.  1.
        -12    1    4    4    0    0 -0.14844102120E+02  0.38746134185E+01 -0.11945337643E+01  0.15387881849E+02  0.00000000000E+00 0.  1.
</event>
<event>
 8    1  0.1238315E-006  0.9118800E+02  0.7816164E-02  0.1184000E+00
        -11   -1    0    0    0    0  0.00000000000E+00  0.00000000000E+00  0.45593999997E+02  0.45594000000E+02  0.51100000000E-03 0. -1.
         11   -1    0    0    0    0 -0.00000000000E+00 -0.00000000000E+00 -0.45593999997E+02  0.45594000000E+02  0.51100000000E-03 0.  1.
         23    2    1    2    0    0  0.35527136788E-14  0.35527136788E-14 -0.88817841970E-15  0.91188000000E+02  0.91188000000E+02 0.  0.
    9900012    2    3    3    0    0 -0.23455265719E+02 -0.27548149576E+02  0.68359077226E+01  0.54367086521E+02  0.40000005343E+02 0.  0.
        -12    1    3    3    0    0  0.23455265719E+02  0.27548149576E+02 -0.68359077226E+01  0.36820913479E+02  0.00000000000E+00 0.  1.
         11    1    4    4    0    0  0.31178462993E+01 -0.15819688216E+02 -0.70185618927E+00  0.16139272077E+02  0.51100000000E-03 0. -1.
        -11    1    4    4    0    0 -0.92207715179E+01  0.71194892493E+01  0.50337573425E+00  0.11660323407E+02  0.51100000000E-03 0.  1.
         12    1    4    4    0    0 -0.17352340501E+02 -0.18847950609E+02  0.70343881776E+01  0.26567491038E+02  0.00000000000E+00 0. -1.
</event>
<event>
 8    1  0.1238315E-006  0.9118800E+02  0.7816164E-02  0.1184000E+00
        -11   -1    0    0    0    0  0.00000000000E+00  0.00000000000E+00  0.45593999997E+02  0.45594000000E+02  0.51100000000E-03 0. -1.
         11   -1    0    0    0    0 -0.00000000000E+00 -0.00000000000E+00 -0.45593999997E+02  0.45594000000E+02  0.51100000000E-03 0.  1.
         23    2    1    2    0    0  0.35527136788E-14 -0.35527136788E-14  0.00000000000E+00  0.91188000000E+02  0.91188000000E+02 0.  0.
    9900012    2    3    3    0    0 -0.18326140703E+02  0.29936311584E+02 -0.11124315474E+02  0.54367074168E+02  0.39999977182E+02 0.  0.
         12    1    3    3    0    0  0.18326140703E+02 -0.29936311584E+02  0.11124315474E+02  0.36820925832E+02  0.00000000000E+00 0. -1.
         11    1    4    4    0    0 -0.20130071199E+02  0.12407023840E+02  0.37512228935E+01  0.23942131913E+02  0.51100000000E-03 0. -1.
        -11    1    4    4    0    0 -0.76058300800E+01  0.11555211664E+02 -0.30333148701E+01  0.14162364463E+02  0.51100000000E-03 0.  1.
        -12    1    4    4    0    0  0.94097605765E+01  0.59740760798E+01 -0.11842223497E+02  0.16262577793E+02  0.00000000000E+00 0.  1.
</event>
<event>
 8    1  0.1238315E-006  0.9118800E+02  0.7816164E-02  0.1184000E+00
        -11   -1    0    0    0    0  0.00000000000E+00  0.00000000000E+00  0.45593999997E+02  0.45594000000E+02  0.51100000000E-03 0.  1.
         11   -1    0    0    0    0 -0.00000000000E+00 -0.00000000000E+00 -0.45593999997E+02  0.45594000000E+02  0.51100000000E-03 0. -1.
         23    2    1    2    0    0  0.35527136788E-14 -0.88817841970E-15  0.00000000000E+00  0.91188000000E+02  0.91188000000E+02 0.  0.
    9900012    2    3    3    0    0 -0.21094344194E+02  0.51021163273E+01 -0.29745200566E+02  0.54367083327E+02  0.39999998060E+02 0.  0.
        -12    1    3    3    0    0  0.21094344194E+02 -0.51021163273E+01  0.29745200566E+02  0.36820916673E+02  0.00000000000E+00 0.  1.
         11    1    4    4    0    0  0.14345972002E+01  0.14106859209E+01  0.21650856501E+01  0.29556217667E+01  0.51100000000E-03 0.  1.
        -11    1    4    4    0    0 -0.96049283128E+01  0.87910585288E+01  0.34074606736E+01  0.13459128741E+02  0.51100000000E-03 0. -1.
         12    1    4    4    0    0 -0.12924013081E+02 -0.50996281225E+01 -0.35317746889E+02  0.37952332819E+02  0.00000000000E+00 0. -1.
</event>
<event>
 8    1  0.1238315E-006  0.9118800E+02  0.7816164E-02  0.1184000E+00
        -11   -1    0    0    0    0  0.00000000000E+00  0.00000000000E+00  0.45593999997E+02  0.45594000000E+02  0.51100000000E-03 0.  1.
         11   -1    0    0    0    0 -0.00000000000E+00 -0.00000000000E+00 -0.45593999997E+02  0.45594000000E+02  0.51100000000E-03 0. -1.
         23    2    1    2    0    0 -0.35527136788E-14  0.13322676296E-14  0.00000000000E+00  0.91188000000E+02  0.91188000000E+02 0.  0.
    9900012    2    3    3    0    0  0.22207079329E+02 -0.36965165623E+01 -0.29136946245E+02  0.54367078725E+02  0.39999987569E+02 0.  0.
        -12    1    3    3    0    0 -0.22207079329E+02  0.36965165623E+01  0.29136946245E+02  0.36820921275E+02  0.00000000000E+00 0.  1.
         11    1    4    4    0    0  0.12314545919E+02  0.89264301748E+01 -0.96984362322E+01  0.18038538258E+02  0.51100000000E-03 0. -1.
        -11    1    4    4    0    0 -0.27818709274E+01 -0.28473886253E+01 -0.19921117011E+02  0.20314953386E+02  0.51100000000E-03 0.  1.
        -12    1    4    4    0    0  0.12674404338E+02 -0.97755581118E+01  0.48260699780E+00  0.16013587082E+02  0.00000000000E+00 0.  1.
</event>
<event>
 8    1  0.1238315E-006  0.9118800E+02  0.7816164E-02  0.1184000E+00
        -11   -1    0    0    0    0  0.00000000000E+00  0.00000000000E+00  0.45593999997E+02  0.45594000000E+02  0.51100000000E-03 0. -1.
         11   -1    0    0    0    0 -0.00000000000E+00 -0.00000000000E+00 -0.45593999997E+02  0.45594000000E+02  0.51100000000E-03 0.  1.
         23    2    1    2    0    0  0.00000000000E+00  0.00000000000E+00  0.35527136788E-14  0.91188000000E+02  0.91188000000E+02 0.  0.
    9900012    2    3    3    0    0  0.28562492428E+02  0.22498694244E+02  0.58115160563E+01  0.54367069332E+02  0.39999966156E+02 0.  0.
        -12    1    3    3    0    0 -0.28562492428E+02 -0.22498694244E+02 -0.58115160563E+01  0.36820930668E+02  0.00000000000E+00 0.  1.
         11    1    4    4    0    0  0.25320230756E+02  0.89257260069E+01 -0.81143462544E+01  0.28046840921E+02  0.51100000000E-03 0.  1.
        -11    1    4    4    0    0 -0.56072140135E+01 -0.16860644781E+00  0.57932270973E+01  0.80641650275E+01  0.51100000000E-03 0. -1.
         12    1    4    4    0    0  0.88494756857E+01  0.13741574685E+02  0.81326352134E+01  0.18256063383E+02  0.00000000000E+00 0. -1.
</event>
<event>
 8    1  0.1238315E-006  0.9118800E+02  0.7816164E-02  0.1184000E+00
        -11   -1    0    0    0    0  0.00000000000E+00  0.00000000000E+00  0.45593999997E+02  0.45594000000E+02  0.51100000000E-03 0. -1.
         11   -1    0    0    0    0 -0.00000000000E+00 -0.00000000000E+00 -0.45593999997E+02  0.45594000000E+02  0.51100000000E-03 0.  1.
         23    2    1    2    0    0  0.17763568394E-14  0.44408920985E-15  0.00000000000E+00  0.91188000000E+02  0.91188000000E+02 0.  0.
    9900012    2    3    3    0    0 -0.88182522733E+01  0.36098782412E+01 -0.35566660775E+02  0.54367079958E+02  0.39999990381E+02 0.  0.
         12    1    3    3    0    0  0.88182522733E+01 -0.36098782412E+01  0.35566660775E+02  0.36820920042E+02  0.00000000000E+00 0. -1.
         11    1    4    4    0    0  0.61446520550E+01  0.92742574187E+01 -0.18829446740E+01  0.11283354131E+02  0.51100000000E-03 0. -1.
        -11    1    4    4    0    0 -0.78002153893E+01 -0.13199077017E+02 -0.13714618066E+02  0.20570603860E+02  0.51100000000E-03 0.  1.
         12    1    4    4    0    0 -0.71626889390E+01  0.75346978396E+01 -0.19969098034E+02  0.22513121967E+02  0.00000000000E+00 0. -1.
</event>
<event>
 8    1  0.1238315E-006  0.9118800E+02  0.7816164E-02  0.1184000E+00
        -11   -1    0    0    0    0  0.00000000000E+00  0.00000000000E+00  0.45593999997E+02  0.45594000000E+02  0.51100000000E-03 0. -1.
         11   -1    0    0    0    0 -0.00000000000E+00 -0.00000000000E+00 -0.45593999997E+02  0.45594000000E+02  0.51100000000E-03 0.  1.
         23    2    1    2    0    0 -0.35527136788E-14  0.00000000000E+00  0.00000000000E+00  0.91188000000E+02  0.91188000000E+02 0.  0.
    9900012    2    3    3    0    0 -0.28962965923E+02  0.16556662686E+02  0.15582099224E+02  0.54367105245E+02  0.40000048026E+02 0.  0.
         12    1    3    3    0    0  0.28962965923E+02 -0.16556662686E+02 -0.15582099224E+02  0.36820894755E+02  0.00000000000E+00 0. -1.
         11    1    4    4    0    0 -0.99079814789E+01  0.71207760239E+01  0.16268643659E+02  0.20335739842E+02  0.51100000000E-03 0. -1.
        -11    1    4    4    0    0 -0.34154329995E+01  0.16208152429E+02  0.23185893991E+01  0.16725586531E+02  0.51100000000E-03 0.  1.
        -12    1    4    4    0    0 -0.15639551445E+02 -0.67722657667E+01 -0.30051338336E+01  0.17305778872E+02  0.00000000000E+00 0.  1.
</event>
<event>
 8    1  0.1238315E-006  0.9118800E+02  0.7816164E-02  0.1184000E+00
        -11   -1    0    0    0    0  0.00000000000E+00  0.00000000000E+00  0.45593999997E+02  0.45594000000E+02  0.51100000000E-03 0. -1.
         11   -1    0    0    0    0 -0.00000000000E+00 -0.00000000000E+00 -0.45593999997E+02  0.45594000000E+02  0.51100000000E-03 0.  1.
         23    2    1    2    0    0  0.17763568394E-14  0.00000000000E+00  0.00000000000E+00  0.91188000000E+02  0.91188000000E+02 0.  0.
    9900012    2    3    3    0    0 -0.56788735603E+01 -0.13410405087E+02  0.33818509838E+02  0.54367079626E+02  0.39999989624E+02 0.  0.
        -12    1    3    3    0    0  0.56788735603E+01  0.13410405087E+02 -0.33818509838E+02  0.36820920374E+02  0.00000000000E+00 0.  1.
         11    1    4    4    0    0  0.58386822415E+01 -0.33445499787E+01  0.22283450839E+02  0.23277207875E+02  0.51100000000E-03 0. -1.
        -11    1    4    4    0    0 -0.17008600539E+02  0.22499498335E+00  0.86075594236E+01  0.19063923902E+02  0.51100000000E-03 0.  1.
         12    1    4    4    0    0  0.54910447373E+01 -0.10290850092E+02  0.29274995751E+01  0.12025947850E+02  0.00000000000E+00 0. -1.
</event>
<event>
 8    1  0.1238315E-006  0.9118800E+02  0.7816164E-02  0.1184000E+00
        -11   -1    0    0    0    0  0.00000000000E+00  0.00000000000E+00  0.45593999997E+02  0.45594000000E+02  0.51100000000E-03 0. -1.
         11   -1    0    0    0    0 -0.00000000000E+00 -0.00000000000E+00 -0.45593999997E+02  0.45594000000E+02  0.51100000000E-03 0.  1.
         23    2    1    2    0    0 -0.71054273576E-14  0.00000000000E+00  0.00000000000E+00  0.91188000000E+02  0.91188000000E+02 0.  0.
    9900012    2    3    3    0    0 -0.27827285502E+02  0.22601804505E+02  0.84010118313E+01  0.54367131120E+02  0.40000107014E+02 0.  0.
        -12    1    3    3    0    0  0.27827285502E+02 -0.22601804505E+02 -0.84010118313E+01  0.36820868880E+02  0.00000000000E+00 0.  1.
         11    1    4    4    0    0 -0.14852218912E+02 -0.43090865813E+01  0.17851135844E+01  0.15567378216E+02  0.51100000000E-03 0. -1.
        -11    1    4    4    0    0  0.61120625248E+01  0.15897719531E+01  0.26291669416E+01  0.68408480642E+01  0.51100000000E-03 0.  1.
        -12    1    4    4    0    0 -0.19087129115E+02  0.25321119134E+02  0.39867313054E+01  0.31958904839E+02  0.00000000000E+00 0.  1.
</event>
<event>
 8    1  0.1238315E-006  0.9118800E+02  0.7816164E-02  0.1184000E+00
        -11   -1    0    0    0    0  0.00000000000E+00  0.00000000000E+00  0.45593999997E+02  0.45594000000E+02  0.51100000000E-03 0.  1.
         11   -1    0    0    0    0 -0.00000000000E+00 -0.00000000000E+00 -0.45593999997E+02  0.45594000000E+02  0.51100000000E-03 0. -1.
         23    2    1    2    0    0  0.00000000000E+00  0.00000000000E+00  0.00000000000E+00  0.91188000000E+02  0.91188000000E+02 0.  0.
    9900012    2    3    3    0    0 -0.26891214266E+02 -0.16889590723E+02 -0.18638252157E+02  0.54367080363E+02  0.39999991303E+02 0.  0.
        -12    1    3    3    0    0  0.26891214266E+02  0.16889590723E+02  0.18638252157E+02  0.36820919637E+02  0.00000000000E+00 0.  1.
         11    1    4    4    0    0 -0.11049992124E+02 -0.81950554445E+01  0.29192345546E+01  0.14063541173E+02  0.51100000000E-03 0. -1.
        -11    1    4    4    0    0 -0.18218527653E+02 -0.90092735679E+01 -0.27326410998E+02  0.34056049365E+02  0.51100000000E-03 0.  1.
         12    1    4    4    0    0  0.23773055111E+01  0.31473828966E+00  0.57689242867E+01  0.62474898247E+01  0.00000000000E+00 0. -1.
</event>
<event>
 8    1  0.1238315E-006  0.9118800E+02  0.7816164E-02  0.1184000E+00
        -11   -1    0    0    0    0  0.00000000000E+00  0.00000000000E+00  0.45593999997E+02  0.45594000000E+02  0.51100000000E-03 0.  1.
         11   -1    0    0    0    0 -0.00000000000E+00 -0.00000000000E+00 -0.45593999997E+02  0.45594000000E+02  0.51100000000E-03 0. -1.
         23    2    1    2    0    0  0.44408920985E-15  0.00000000000E+00  0.00000000000E+00  0.91188000000E+02  0.91188000000E+02 0.  0.
    9900012    2    3    3    0    0 -0.32318396097E+01 -0.32499585403E+02  0.17003285720E+02  0.54367087954E+02  0.40000008609E+02 0.  0.
         12    1    3    3    0    0  0.32318396097E+01  0.32499585403E+02 -0.17003285720E+02  0.36820912046E+02  0.00000000000E+00 0. -1.
         11    1    4    4    0    0 -0.17204624204E+01 -0.52052391568E+01  0.26555918214E+01  0.60915247519E+01  0.51100000000E-03 0. -1.
        -11    1    4    4    0    0 -0.46833359868E+01 -0.10622193946E+02  0.25465663649E+02  0.27986865947E+02  0.51100000000E-03 0.  1.
         12    1    4    4    0    0  0.31719587975E+01 -0.16672152300E+02 -0.11117969751E+02  0.20288697255E+02  0.00000000000E+00 0. -1.
</event>
<event>
 8    1  0.1238315E-006  0.9118800E+02  0.7816164E-02  0.1184000E+00
        -11   -1    0    0    0    0  0.00000000000E+00  0.00000000000E+00  0.45593999997E+02  0.45594000000E+02  0.51100000000E-03 0.  1.
         11   -1    0    0    0    0 -0.00000000000E+00 -0.00000000000E+00 -0.45593999997E+02  0.45594000000E+02  0.51100000000E-03 0. -1.
         23    2    1    2    0    0  0.00000000000E+00  0.00000000000E+00  0.00000000000E+00  0.91188000000E+02  0.91188000000E+02 0.  0.
    9900012    2    3    3    0    0 -0.18421543459E+02 -0.20678279091E+02  0.24265946667E+02  0.54367073108E+02  0.39999974764E+02 0.  0.
         12    1    3    3    0    0  0.18421543459E+02  0.20678279091E+02 -0.24265946667E+02  0.36820926892E+02  0.00000000000E+00 0. -1.
         11    1    4    4    0    0 -0.81957972989E+01 -0.12469425355E+02  0.12448413001E+02  0.19432463780E+02  0.51100000000E-03 0.  1.
        -11    1    4    4    0    0  0.10537310677E+02 -0.16446243477E+01  0.66012434676E+01  0.12542572349E+02  0.51100000000E-03 0. -1.
         12    1    4    4    0    0 -0.20763056836E+02 -0.65642293877E+01  0.52162901981E+01  0.22392036979E+02  0.00000000000E+00 0. -1.
</event>
<event>
 8    1  0.1238315E-006  0.9118800E+02  0.7816164E-02  0.1184000E+00
        -11   -1    0    0    0    0  0.00000000000E+00  0.00000000000E+00  0.45593999997E+02  0.45594000000E+02  0.51100000000E-03 0.  1.
         11   -1    0    0    0    0 -0.00000000000E+00 -0.00000000000E+00 -0.45593999997E+02  0.45594000000E+02  0.51100000000E-03 0. -1.
         23    2    1    2    0    0  0.00000000000E+00  0.00000000000E+00  0.00000000000E+00  0.91188000000E+02  0.91188000000E+02 0.  0.
    9900012    2    3    3    0    0 -0.13039025488E+02  0.29963696414E+02 -0.16968800460E+02  0.54367089128E+02  0.40000011284E+02 0.  0.
         12    1    3    3    0    0  0.13039025488E+02 -0.29963696414E+02  0.16968800460E+02  0.36820910872E+02  0.00000000000E+00 0. -1.
         11    1    4    4    0    0 -0.87664646250E+01  0.17154203873E+02 -0.65090972611E+01  0.20334354181E+02  0.51100000000E-03 0.  1.
        -11    1    4    4    0    0 -0.91078992630E+01 -0.55373601313E+01  0.26342459871E+01  0.10979774059E+02  0.51100000000E-03 0. -1.
         12    1    4    4    0    0  0.48353384003E+01  0.18346852672E+02 -0.13093949186E+02  0.23052960888E+02  0.00000000000E+00 0. -1.
</event>
<event>
 8    1  0.1238315E-006  0.9118800E+02  0.7816164E-02  0.1184000E+00
        -11   -1    0    0    0    0  0.00000000000E+00  0.00000000000E+00  0.45593999997E+02  0.45594000000E+02  0.51100000000E-03 0.  1.
         11   -1    0    0    0    0 -0.00000000000E+00 -0.00000000000E+00 -0.45593999997E+02  0.45594000000E+02  0.51100000000E-03 0. -1.
         23    2    1    2    0    0 -0.71054273576E-14  0.00000000000E+00  0.00000000000E+00  0.91188000000E+02  0.91188000000E+02 0.  0.
    9900012    2    3    3    0    0 -0.36202272969E+02 -0.41582405674E+01  0.52805600032E+01  0.54367084114E+02  0.39999999856E+02 0.  0.
        -12    1    3    3    0    0  0.36202272969E+02  0.41582405674E+01 -0.52805600032E+01  0.36820915886E+02  0.00000000000E+00 0.  1.
         11    1    4    4    0    0 -0.12670979842E+02 -0.50621723741E+01  0.29531282047E+01  0.13960669244E+02  0.51100000000E-03 0.  1.
        -11    1    4    4    0    0 -0.74358757989E+01 -0.15357245544E+02 -0.17993511105E+01  0.17157357148E+02  0.51100000000E-03 0. -1.
        -12    1    4    4    0    0 -0.16095417328E+02  0.16261177351E+02  0.41267829089E+01  0.23249057723E+02  0.00000000000E+00 0.  1.
</event>
<event>
 8    1  0.1238315E-006  0.9118800E+02  0.7816164E-02  0.1184000E+00
        -11   -1    0    0    0    0  0.00000000000E+00  0.00000000000E+00  0.45593999997E+02  0.45594000000E+02  0.51100000000E-03 0. -1.
         11   -1    0    0    0    0 -0.00000000000E+00 -0.00000000000E+00 -0.45593999997E+02  0.45594000000E+02  0.51100000000E-03 0.  1.
         23    2    1    2    0    0  0.00000000000E+00  0.35527136788E-14  0.00000000000E+00  0.91188000000E+02  0.91188000000E+02 0.  0.
    9900012    2    3    3    0    0 -0.30511518244E+02  0.20014958371E+02  0.49217283370E+01  0.54367153813E+02  0.40000158746E+02 0.  0.
         12    1    3    3    0    0  0.30511518244E+02 -0.20014958371E+02 -0.49217283370E+01  0.36820846187E+02  0.00000000000E+00 0. -1.
         11    1    4    4    0    0  0.92993202536E+00 -0.49312745805E+01 -0.71060652502E+01  0.86993336620E+01  0.51100000000E-03 0. -1.
        -11    1    4    4    0    0 -0.19373008524E+02  0.25381665220E+02  0.96809861787E+01  0.33365609274E+02  0.51100000000E-03 0.  1.
         12    1    4    4    0    0 -0.12068441746E+02 -0.43543226885E+00  0.23468074085E+01  0.12302210876E+02  0.00000000000E+00 0. -1.
</event>
<event>
 8    1  0.1238315E-006  0.9118800E+02  0.7816164E-02  0.1184000E+00
        -11   -1    0    0    0    0  0.00000000000E+00  0.00000000000E+00  0.45593999997E+02  0.45594000000E+02  0.51100000000E-03 0. -1.
         11   -1    0    0    0    0 -0.00000000000E+00 -0.00000000000E+00 -0.45593999997E+02  0.45594000000E+02  0.51100000000E-03 0.  1.
         23    2    1    2    0    0 -0.35527136788E-14 -0.44408920985E-15  0.35527136788E-14  0.91188000000E+02  0.91188000000E+02 0.  0.
    9900012    2    3    3    0    0 -0.27088497076E+02 -0.12776351627E+01  0.24907039633E+02  0.54367086802E+02  0.40000005982E+02 0.  0.
        -12    1    3    3    0    0  0.27088497076E+02  0.12776351627E+01 -0.24907039633E+02  0.36820913198E+02  0.00000000000E+00 0.  1.
         11    1    4    4    0    0  0.72825878367E+00 -0.23974918551E+01 -0.61928493616E+00  0.25810544637E+01  0.51100000000E-03 0. -1.
        -11    1    4    4    0    0  0.40430267821E+01 -0.49421038364E+01 -0.43215096801E+01  0.77101168647E+01  0.51100000000E-03 0.  1.
         12    1    4    4    0    0 -0.31859782642E+02  0.60619605288E+01  0.29847834249E+02  0.44075915474E+02  0.00000000000E+00 0. -1.
</event>
<event>
 8    1  0.1238315E-006  0.9118800E+02  0.7816164E-02  0.1184000E+00
        -11   -1    0    0    0    0  0.00000000000E+00  0.00000000000E+00  0.45593999997E+02  0.45594000000E+02  0.51100000000E-03 0.  1.
         11   -1    0    0    0    0 -0.00000000000E+00 -0.00000000000E+00 -0.45593999997E+02  0.45594000000E+02  0.51100000000E-03 0. -1.
         23    2    1    2    0    0 -0.71054273576E-14  0.35527136788E-14  0.00000000000E+00  0.91188000000E+02  0.91188000000E+02 0.  0.
    9900012    2    3    3    0    0 -0.27189187825E+02  0.24419239523E+02  0.44976088884E+01  0.54367086389E+02  0.40000005040E+02 0.  0.
         12    1    3    3    0    0  0.27189187825E+02 -0.24419239523E+02 -0.44976088884E+01  0.36820913611E+02  0.00000000000E+00 0. -1.
         11    1    4    4    0    0  0.39556680041E+01  0.68612699573E+01 -0.65590098513E+01  0.10283236129E+02  0.51100000000E-03 0. -1.
        -11    1    4    4    0    0 -0.13490396586E+02  0.20718616416E+02  0.58092380497E+01  0.25396832740E+02  0.51100000000E-03 0.  1.
        -12    1    4    4    0    0 -0.17654459244E+02 -0.31606468504E+01  0.52473806900E+01  0.18687017520E+02  0.00000000000E+00 0.  1.
</event>
<event>
 8    1  0.1238315E-006  0.9118800E+02  0.7816164E-02  0.1184000E+00
        -11   -1    0    0    0    0  0.00000000000E+00  0.00000000000E+00  0.45593999997E+02  0.45594000000E+02  0.51100000000E-03 0.  1.
         11   -1    0    0    0    0 -0.00000000000E+00 -0.00000000000E+00 -0.45593999997E+02  0.45594000000E+02  0.51100000000E-03 0. -1.
         23    2    1    2    0    0 -0.35527136788E-14  0.00000000000E+00 -0.17763568394E-14  0.91188000000E+02  0.91188000000E+02 0.  0.
    9900012    2    3    3    0    0 -0.27516955641E+02  0.22060870615E+02 -0.10578997889E+02  0.54367081267E+02  0.39999993364E+02 0.  0.
        -12    1    3    3    0    0  0.27516955641E+02 -0.22060870615E+02  0.10578997889E+02  0.36820918733E+02  0.00000000000E+00 0.  1.
         11    1    4    4    0    0 -0.33304952964E+02  0.24869998005E+02 -0.48922132574E+01  0.41852962183E+02  0.51100000000E-03 0. -1.
        -11    1    4    4    0    0 -0.18211208464E+01 -0.26581857220E+01 -0.31123708414E+01  0.44798755547E+01  0.51100000000E-03 0.  1.
         12    1    4    4    0    0  0.76091181702E+01 -0.15094166798E+00 -0.25744137906E+01  0.80342435289E+01  0.00000000000E+00 0. -1.
</event>
<event>
 8    1  0.1238315E-006  0.9118800E+02  0.7816164E-02  0.1184000E+00
        -11   -1    0    0    0    0  0.00000000000E+00  0.00000000000E+00  0.45593999997E+02  0.45594000000E+02  0.51100000000E-03 0.  1.
         11   -1    0    0    0    0 -0.00000000000E+00 -0.00000000000E+00 -0.45593999997E+02  0.45594000000E+02  0.51100000000E-03 0. -1.
         23    2    1    2    0    0  0.00000000000E+00 -0.71054273576E-14  0.17763568394E-14  0.91188000000E+02  0.91188000000E+02 0.  0.
    9900012    2    3    3    0    0  0.16758143212E+02 -0.30091876175E+02  0.13016252777E+02  0.54367092733E+02  0.40000019504E+02 0.  0.
        -12    1    3    3    0    0 -0.16758143212E+02  0.30091876175E+02 -0.13016252777E+02  0.36820907267E+02  0.00000000000E+00 0.  1.
         11    1    4    4    0    0  0.61133485518E+01 -0.15999684026E+02  0.78660389845E+01  0.18847744932E+02  0.51100000000E-03 0. -1.
        -11    1    4    4    0    0  0.19524861163E+02 -0.12939970732E+02 -0.27416852847E+01  0.23583466337E+02  0.51100000000E-03 0.  1.
        -12    1    4    4    0    0 -0.88800665035E+01 -0.11522214165E+01  0.78918990768E+01  0.11935881465E+02  0.00000000000E+00 0.  1.
</event>
<event>
 8    1  0.1238315E-006  0.9118800E+02  0.7816164E-02  0.1184000E+00
        -11   -1    0    0    0    0  0.00000000000E+00  0.00000000000E+00  0.45593999997E+02  0.45594000000E+02  0.51100000000E-03 0.  1.
         11   -1    0    0    0    0 -0.00000000000E+00 -0.00000000000E+00 -0.45593999997E+02  0.45594000000E+02  0.51100000000E-03 0. -1.
         23    2    1    2    0    0  0.00000000000E+00 -0.23314683517E-14  0.00000000000E+00  0.91188000000E+02  0.91188000000E+02 0.  0.
    9900012    2    3    3    0    0  0.29994222314E+02  0.89179974164E-01  0.21356931721E+02  0.54367083962E+02  0.39999999509E+02 0.  0.
         12    1    3    3    0    0 -0.29994222314E+02 -0.89179974164E-01 -0.21356931721E+02  0.36820916038E+02  0.00000000000E+00 0. -1.
         11    1    4    4    0    0  0.11437723019E+02  0.63606791432E+01 -0.97998834225E+00  0.13124028514E+02  0.51100000000E-03 0.  1.
        -11    1    4    4    0    0  0.11680603936E+01  0.99475177045E+01  0.26186374645E+01  0.10352523171E+02  0.51100000000E-03 0. -1.
         12    1    4    4    0    0  0.17388438902E+02 -0.16219016873E+02  0.19718282599E+02  0.30890532278E+02  0.00000000000E+00 0. -1.
</event>
<event>
 8    1  0.1238315E-006  0.9118800E+02  0.7816164E-02  0.1184000E+00
        -11   -1    0    0    0    0  0.00000000000E+00  0.00000000000E+00  0.45593999997E+02  0.45594000000E+02  0.51100000000E-03 0.  1.
         11   -1    0    0    0    0 -0.00000000000E+00 -0.00000000000E+00 -0.45593999997E+02  0.45594000000E+02  0.51100000000E-03 0. -1.
         23    2    1    2    0    0 -0.71054273576E-14  0.00000000000E+00  0.00000000000E+00  0.91188000000E+02  0.91188000000E+02 0.  0.
    9900012    2    3    3    0    0 -0.32691163703E+02 -0.50936821236E+01  0.16159247937E+02  0.54367094584E+02  0.40000023722E+02 0.  0.
        -12    1    3    3    0    0  0.32691163703E+02  0.50936821236E+01 -0.16159247937E+02  0.36820905416E+02  0.00000000000E+00 0.  1.
         11    1    4    4    0    0 -0.40758670706E+01 -0.43009507899E+01 -0.73701752604E+01  0.94567623267E+01  0.51100000000E-03 0. -1.
        -11    1    4    4    0    0 -0.32909557151E+02 -0.17834227625E+01  0.23543449779E+02  0.40503253899E+02  0.51100000000E-03 0.  1.
        -12    1    4    4    0    0  0.42942605187E+01  0.99069142878E+00 -0.14026582492E-01  0.44070783581E+01  0.00000000000E+00 0.  1.
</event>
<event>
 8    1  0.1238315E-006  0.9118800E+02  0.7816164E-02  0.1184000E+00
        -11   -1    0    0    0    0  0.00000000000E+00  0.00000000000E+00  0.45593999997E+02  0.45594000000E+02  0.51100000000E-03 0. -1.
         11   -1    0    0    0    0 -0.00000000000E+00 -0.00000000000E+00 -0.45593999997E+02  0.45594000000E+02  0.51100000000E-03 0.  1.
         23    2    1    2    0    0  0.00000000000E+00  0.17763568394E-14  0.00000000000E+00  0.91188000000E+02  0.91188000000E+02 0.  0.
    9900012    2    3    3    0    0 -0.14049190427E+02  0.13962552569E+02 -0.31039445988E+02  0.54367084298E+02  0.40000000275E+02 0.  0.
         12    1    3    3    0    0  0.14049190427E+02 -0.13962552569E+02  0.31039445988E+02  0.36820915702E+02  0.00000000000E+00 0. -1.
         11    1    4    4    0    0 -0.47394343792E+01  0.24872325921E+01 -0.30970273653E+02  0.31429387754E+02  0.51100000000E-03 0. -1.
        -11    1    4    4    0    0  0.27148321777E+01 -0.29996677941E+01 -0.71583995627E+00  0.41086187134E+01  0.51100000000E-03 0.  1.
         12    1    4    4    0    0 -0.12024588226E+02  0.14474987771E+02  0.64666762113E+00  0.18829077831E+02  0.00000000000E+00 0. -1.
</event>
<event>
 8    1  0.1238315E-006  0.9118800E+02  0.7816164E-02  0.1184000E+00
        -11   -1    0    0    0    0  0.00000000000E+00  0.00000000000E+00  0.45593999997E+02  0.45594000000E+02  0.51100000000E-03 0. -1.
         11   -1    0    0    0    0 -0.00000000000E+00 -0.00000000000E+00 -0.45593999997E+02  0.45594000000E+02  0.51100000000E-03 0.  1.
         23    2    1    2    0    0  0.61062266354E-15  0.35527136788E-14  0.00000000000E+00  0.91188000000E+02  0.91188000000E+02 0.  0.
    9900012    2    3    3    0    0  0.13229885261E+00  0.11604747149E+02  0.34944131708E+02  0.54367082029E+02  0.39999995102E+02 0.  0.
        -12    1    3    3    0    0 -0.13229885261E+00 -0.11604747149E+02 -0.34944131708E+02  0.36820917971E+02  0.00000000000E+00 0.  1.
         11    1    4    4    0    0 -0.14969236956E+02  0.11188921276E+02  0.14955775669E+02  0.23936274574E+02  0.51100000000E-03 0. -1.
        -11    1    4    4    0    0  0.10050614581E+02 -0.44404864587E+01  0.20565360919E+01  0.11178645464E+02  0.51100000000E-03 0.  1.
        -12    1    4    4    0    0  0.50509212269E+01  0.48563123317E+01  0.17931819948E+02  0.19252161991E+02  0.00000000000E+00 0.  1.
</event>
<event>
 8    1  0.1238315E-006  0.9118800E+02  0.7816164E-02  0.1184000E+00
        -11   -1    0    0    0    0  0.00000000000E+00  0.00000000000E+00  0.45593999997E+02  0.45594000000E+02  0.51100000000E-03 0. -1.
         11   -1    0    0    0    0 -0.00000000000E+00 -0.00000000000E+00 -0.45593999997E+02  0.45594000000E+02  0.51100000000E-03 0.  1.
         23    2    1    2    0    0 -0.71054273576E-14  0.00000000000E+00 -0.35527136788E-14  0.91188000000E+02  0.91188000000E+02 0.  0.
    9900012    2    3    3    0    0 -0.32674255993E+02 -0.50310691648E+01 -0.16213026099E+02  0.54367070124E+02  0.39999967962E+02 0.  0.
         12    1    3    3    0    0  0.32674255993E+02  0.50310691648E+01  0.16213026099E+02  0.36820929876E+02  0.00000000000E+00 0. -1.
         11    1    4    4    0    0  0.42288992956E+01 -0.90360414361E+01 -0.12630322752E+01  0.10056285839E+02  0.51100000000E-03 0. -1.
        -11    1    4    4    0    0 -0.28388846990E+02  0.11203255540E+02 -0.10044073186E+02  0.32129783294E+02  0.51100000000E-03 0.  1.
         12    1    4    4    0    0 -0.85143082988E+01 -0.71982832690E+01 -0.49059206378E+01  0.12181000991E+02  0.00000000000E+00 0. -1.
</event>
<event>
 8    1  0.1238315E-006  0.9118800E+02  0.7816164E-02  0.1184000E+00
        -11   -1    0    0    0    0  0.00000000000E+00  0.00000000000E+00  0.45593999997E+02  0.45594000000E+02  0.51100000000E-03 0.  1.
         11   -1    0    0    0    0 -0.00000000000E+00 -0.00000000000E+00 -0.45593999997E+02  0.45594000000E+02  0.51100000000E-03 0. -1.
         23    2    1    2    0    0  0.00000000000E+00 -0.55511151231E-15 -0.35527136788E-14  0.91188000000E+02  0.91188000000E+02 0.  0.
    9900012    2    3    3    0    0  0.20797879899E+02  0.69811052226E+00  0.30376745488E+02  0.54367002824E+02  0.39999814537E+02 0.  0.
         12    1    3    3    0    0 -0.20797879899E+02 -0.69811052226E+00 -0.30376745488E+02  0.36820997176E+02  0.00000000000E+00 0. -1.
         11    1    4    4    0    0 -0.29946812360E+01 -0.88970634240E+01  0.15161922338E+02  0.17832827665E+02  0.51100000000E-03 0.  1.
        -11    1    4    4    0    0 -0.15969243675E+01  0.31492608808E+01 -0.29962243412E+01  0.46309148226E+01  0.51100000000E-03 0. -1.
        -12    1    4    4    0    0  0.25389485503E+02  0.64459130655E+01  0.18211047491E+02  0.31903260336E+02  0.00000000000E+00 0.  1.
</event>
<event>
 8    1  0.1238315E-006  0.9118800E+02  0.7816164E-02  0.1184000E+00
        -11   -1    0    0    0    0  0.00000000000E+00  0.00000000000E+00  0.45593999997E+02  0.45594000000E+02  0.51100000000E-03 0.  1.
         11   -1    0    0    0    0 -0.00000000000E+00 -0.00000000000E+00 -0.45593999997E+02  0.45594000000E+02  0.51100000000E-03 0. -1.
         23    2    1    2    0    0  0.00000000000E+00  0.00000000000E+00 -0.17763568394E-14  0.91188000000E+02  0.91188000000E+02 0.  0.
    9900012    2    3    3    0    0  0.18231643761E+02 -0.28217520996E+02  0.15071912582E+02  0.54367029422E+02  0.39999875174E+02 0.  0.
        -12    1    3    3    0    0 -0.18231643761E+02  0.28217520996E+02 -0.15071912582E+02  0.36820970578E+02  0.00000000000E+00 0.  1.
         11    1    4    4    0    0  0.78347478414E+00  0.20624654848E+01 -0.92791709682E+00  0.23934550368E+01  0.51100000000E-03 0.  1.
        -11    1    4    4    0    0  0.19222186409E+02 -0.70868151397E+01  0.19697975947E+02  0.28420514700E+02  0.51100000000E-03 0. -1.
        -12    1    4    4    0    0 -0.17740174321E+01 -0.23193171341E+02 -0.36981462683E+01  0.23553059685E+02  0.00000000000E+00 0.  1.
</event>
<event>
 8    1  0.1238315E-006  0.9118800E+02  0.7816164E-02  0.1184000E+00
        -11   -1    0    0    0    0  0.00000000000E+00  0.00000000000E+00  0.45593999997E+02  0.45594000000E+02  0.51100000000E-03 0. -1.
         11   -1    0    0    0    0 -0.00000000000E+00 -0.00000000000E+00 -0.45593999997E+02  0.45594000000E+02  0.51100000000E-03 0.  1.
         23    2    1    2    0    0  0.00000000000E+00  0.00000000000E+00  0.35527136788E-14  0.91188000000E+02  0.91188000000E+02 0.  0.
    9900012    2    3    3    0    0 -0.25325895519E+02 -0.72843133557E+01 -0.25716087841E+02  0.54367090468E+02  0.40000014340E+02 0.  0.
         12    1    3    3    0    0  0.25325895519E+02  0.72843133557E+01  0.25716087841E+02  0.36820909532E+02  0.00000000000E+00 0. -1.
         11    1    4    4    0    0  0.39971980041E+00  0.65526177837E+01  0.66362086411E+01  0.93346580616E+01  0.51100000000E-03 0. -1.
        -11    1    4    4    0    0 -0.79118720568E+00 -0.63937656266E+00 -0.70916039872E+01  0.71641906001E+01  0.51100000000E-03 0.  1.
         12    1    4    4    0    0 -0.24934428114E+02 -0.13197554577E+02 -0.25260692495E+02  0.37868241806E+02  0.00000000000E+00 0. -1.
</event>
<event>
 8    1  0.1238315E-006  0.9118800E+02  0.7816164E-02  0.1184000E+00
        -11   -1    0    0    0    0  0.00000000000E+00  0.00000000000E+00  0.45593999997E+02  0.45594000000E+02  0.51100000000E-03 0. -1.
         11   -1    0    0    0    0 -0.00000000000E+00 -0.00000000000E+00 -0.45593999997E+02  0.45594000000E+02  0.51100000000E-03 0.  1.
         23    2    1    2    0    0  0.88817841970E-15 -0.88817841970E-15 -0.71054273576E-14  0.91188000000E+02  0.91188000000E+02 0.  0.
    9900012    2    3    3    0    0 -0.54375650101E+01  0.47448555227E+01  0.36106768419E+02  0.54367088919E+02  0.40000010810E+02 0.  0.
        -12    1    3    3    0    0  0.54375650101E+01 -0.47448555227E+01 -0.36106768419E+02  0.36820911081E+02  0.00000000000E+00 0.  1.
         11    1    4    4    0    0 -0.10016399730E+01 -0.11022648309E+02  0.30141795637E+02  0.32109654356E+02  0.51100000000E-03 0. -1.
        -11    1    4    4    0    0 -0.50755136081E+01  0.26999201828E+01 -0.29145254005E+01  0.64455306958E+01  0.51100000000E-03 0.  1.
        -12    1    4    4    0    0  0.63958857097E+00  0.13067583649E+02  0.88794981823E+01  0.15811903868E+02  0.00000000000E+00 0.  1.
</event>
<event>
 8    1  0.1238315E-006  0.9118800E+02  0.7816164E-02  0.1184000E+00
        -11   -1    0    0    0    0  0.00000000000E+00  0.00000000000E+00  0.45593999997E+02  0.45594000000E+02  0.51100000000E-03 0. -1.
         11   -1    0    0    0    0 -0.00000000000E+00 -0.00000000000E+00 -0.45593999997E+02  0.45594000000E+02  0.51100000000E-03 0.  1.
         23    2    1    2    0    0  0.00000000000E+00  0.35527136788E-14  0.00000000000E+00  0.91188000000E+02  0.91188000000E+02 0.  0.
    9900012    2    3    3    0    0 -0.81864852551E+01  0.29703124162E+02 -0.20161515957E+02  0.54367070469E+02  0.39999968749E+02 0.  0.
         12    1    3    3    0    0  0.81864852551E+01 -0.29703124162E+02  0.20161515957E+02  0.36820929531E+02  0.00000000000E+00 0. -1.
         11    1    4    4    0    0 -0.70950499035E+01  0.18275812825E+02 -0.25194298247E+02  0.31923310166E+02  0.51100000000E-03 0. -1.
        -11    1    4    4    0    0 -0.67840580462E+00  0.94512536945E+01 -0.60081299495E+01  0.11219806442E+02  0.51100000000E-03 0.  1.
         12    1    4    4    0    0 -0.41302954699E+00  0.19760576425E+01  0.11040912239E+02  0.11223953862E+02  0.00000000000E+00 0. -1.
</event>
<event>
 8    1  0.1238315E-006  0.9118800E+02  0.7816164E-02  0.1184000E+00
        -11   -1    0    0    0    0  0.00000000000E+00  0.00000000000E+00  0.45593999997E+02  0.45594000000E+02  0.51100000000E-03 0. -1.
         11   -1    0    0    0    0 -0.00000000000E+00 -0.00000000000E+00 -0.45593999997E+02  0.45594000000E+02  0.51100000000E-03 0.  1.
         23    2    1    2    0    0  0.00000000000E+00  0.00000000000E+00 -0.35527136788E-14  0.91188000000E+02  0.91188000000E+02 0.  0.
    9900012    2    3    3    0    0  0.25097274602E+02 -0.63285067083E+01  0.26188855816E+02  0.54367090742E+02  0.40000014965E+02 0.  0.
        -12    1    3    3    0    0 -0.25097274602E+02  0.63285067083E+01 -0.26188855816E+02  0.36820909258E+02  0.00000000000E+00 0.  1.
         11    1    4    4    0    0  0.29625400784E+01  0.11037954564E+02  0.12497745055E+02  0.16935368800E+02  0.51100000000E-03 0. -1.
        -11    1    4    4    0    0 -0.37611848997E+01 -0.45668573834E+01  0.17038853136E+01  0.61567786734E+01  0.51100000000E-03 0.  1.
         12    1    4    4    0    0  0.25895919423E+02 -0.12799603889E+02  0.11987225448E+02  0.31274943268E+02  0.00000000000E+00 0. -1.
</event>
<event>
 8    1  0.1238315E-006  0.9118800E+02  0.7816164E-02  0.1184000E+00
        -11   -1    0    0    0    0  0.00000000000E+00  0.00000000000E+00  0.45593999997E+02  0.45594000000E+02  0.51100000000E-03 0.  1.
         11   -1    0    0    0    0 -0.00000000000E+00 -0.00000000000E+00 -0.45593999997E+02  0.45594000000E+02  0.51100000000E-03 0. -1.
         23    2    1    2    0    0  0.00000000000E+00 -0.35527136788E-14  0.00000000000E+00  0.91188000000E+02  0.91188000000E+02 0.  0.
    9900012    2    3    3    0    0  0.17759559009E+02 -0.16260610395E+02  0.27856228403E+02  0.54367097683E+02  0.40000030788E+02 0.  0.
         12    1    3    3    0    0 -0.17759559009E+02  0.16260610395E+02 -0.27856228403E+02  0.36820902317E+02  0.00000000000E+00 0. -1.
         11    1    4    4    0    0  0.11371698630E+02 -0.88071473288E+01  0.14337767803E+02  0.20308937925E+02  0.51100000000E-03 0. -1.
        -11    1    4    4    0    0  0.12643900497E+02 -0.15496492794E+02  0.13002908163E+02  0.23855505228E+02  0.51100000000E-03 0.  1.
         12    1    4    4    0    0 -0.62560401182E+01  0.80430297277E+01  0.51555243670E+00  0.10202654531E+02  0.00000000000E+00 0. -1.
</event>
<event>
 8    1  0.1238315E-006  0.9118800E+02  0.7816164E-02  0.1184000E+00
        -11   -1    0    0    0    0  0.00000000000E+00  0.00000000000E+00  0.45593999997E+02  0.45594000000E+02  0.51100000000E-03 0. -1.
         11   -1    0    0    0    0 -0.00000000000E+00 -0.00000000000E+00 -0.45593999997E+02  0.45594000000E+02  0.51100000000E-03 0.  1.
         23    2    1    2    0    0  0.00000000000E+00  0.00000000000E+00 -0.17763568394E-14  0.91188000000E+02  0.91188000000E+02 0.  0.
    9900012    2    3    3    0    0 -0.75463967658E+01 -0.34453727400E+02  0.10572244774E+02  0.54367084810E+02  0.40000001441E+02 0.  0.
        -12    1    3    3    0    0  0.75463967658E+01  0.34453727400E+02 -0.10572244774E+02  0.36820915190E+02  0.00000000000E+00 0.  1.
         11    1    4    4    0    0  0.76066553932E+01 -0.18494761271E+02  0.53627981923E+01  0.20704516547E+02  0.51100000000E-03 0. -1.
        -11    1    4    4    0    0 -0.55749254922E+01  0.31646608627E+01  0.98732460860E+01  0.11771824886E+02  0.51100000000E-03 0.  1.
         12    1    4    4    0    0 -0.95781266668E+01 -0.19123626991E+02 -0.46637995042E+01  0.21890743376E+02  0.00000000000E+00 0. -1.
</event>
<event>
 8    1  0.1238315E-006  0.9118800E+02  0.7816164E-02  0.1184000E+00
        -11   -1    0    0    0    0  0.00000000000E+00  0.00000000000E+00  0.45593999997E+02  0.45594000000E+02  0.51100000000E-03 0.  1.
         11   -1    0    0    0    0 -0.00000000000E+00 -0.00000000000E+00 -0.45593999997E+02  0.45594000000E+02  0.51100000000E-03 0. -1.
         23    2    1    2    0    0 -0.22204460493E-15  0.35527136788E-14  0.35527136788E-14  0.91188000000E+02  0.91188000000E+02 0.  0.
    9900012    2    3    3    0    0  0.13229599657E+01 -0.30705276921E+02 -0.20278437820E+02  0.54367091616E+02  0.40000016956E+02 0.  0.
        -12    1    3    3    0    0 -0.13229599657E+01  0.30705276921E+02  0.20278437820E+02  0.36820908384E+02  0.00000000000E+00 0.  1.
         11    1    4    4    0    0 -0.92569908983E+01 -0.38972522118E+01 -0.23281267302E+01  0.10310219669E+02  0.51100000000E-03 0. -1.
        -11    1    4    4    0    0  0.12192584767E+02 -0.13031874292E+00 -0.63132608483E+00  0.12209614210E+02  0.51100000000E-03 0.  1.
        -12    1    4    4    0    0 -0.16126339031E+01 -0.26677705966E+02 -0.17318985005E+02  0.31847257736E+02  0.00000000000E+00 0.  1.
</event>
<event>
 8    1  0.1238315E-006  0.9118800E+02  0.7816164E-02  0.1184000E+00
        -11   -1    0    0    0    0  0.00000000000E+00  0.00000000000E+00  0.45593999997E+02  0.45594000000E+02  0.51100000000E-03 0.  1.
         11   -1    0    0    0    0 -0.00000000000E+00 -0.00000000000E+00 -0.45593999997E+02  0.45594000000E+02  0.51100000000E-03 0. -1.
         23    2    1    2    0    0  0.00000000000E+00  0.17763568394E-14  0.00000000000E+00  0.91188000000E+02  0.91188000000E+02 0.  0.
    9900012    2    3    3    0    0  0.25632188766E+02  0.10043014579E+02 -0.24452168574E+02  0.54367084873E+02  0.40000001586E+02 0.  0.
         12    1    3    3    0    0 -0.25632188766E+02 -0.10043014579E+02  0.24452168574E+02  0.36820915127E+02  0.00000000000E+00 0. -1.
         11    1    4    4    0    0  0.33832086763E+01 -0.25579134042E+01 -0.14430780772E+01  0.44801223788E+01  0.51100000000E-03 0. -1.
        -11    1    4    4    0    0  0.23052855766E+02  0.19870195505E+02 -0.27737485566E+02  0.41177990895E+02  0.51100000000E-03 0.  1.
        -12    1    4    4    0    0 -0.80387567584E+00 -0.72692675215E+01  0.47283950687E+01  0.87089715999E+01  0.00000000000E+00 0.  1.
</event>
<event>
 8    1  0.1238315E-006  0.9118800E+02  0.7816164E-02  0.1184000E+00
        -11   -1    0    0    0    0  0.00000000000E+00  0.00000000000E+00  0.45593999997E+02  0.45594000000E+02  0.51100000000E-03 0.  1.
         11   -1    0    0    0    0 -0.00000000000E+00 -0.00000000000E+00 -0.45593999997E+02  0.45594000000E+02  0.51100000000E-03 0. -1.
         23    2    1    2    0    0  0.00000000000E+00 -0.17763568394E-14  0.88817841970E-15  0.91188000000E+02  0.91188000000E+02 0.  0.
    9900012    2    3    3    0    0  0.34305629135E+02  0.12406324166E+02 -0.49986835929E+01  0.54367083291E+02  0.39999997978E+02 0.  0.
        -12    1    3    3    0    0 -0.34305629135E+02 -0.12406324166E+02  0.49986835929E+01  0.36820916709E+02  0.00000000000E+00 0.  1.
         11    1    4    4    0    0  0.20557617991E+02  0.11203794399E+01 -0.37673210402E+01  0.20929969318E+02  0.51100000000E-03 0. -1.
        -11    1    4    4    0    0 -0.38489568827E+01 -0.35814506806E+01 -0.78684653190E+01  0.94632977761E+01  0.51100000000E-03 0.  1.
        -12    1    4    4    0    0  0.17596968026E+02  0.14867395407E+02  0.66371027663E+01  0.23973816197E+02  0.00000000000E+00 0.  1.
</event>
<event>
 8    1  0.1238315E-006  0.9118800E+02  0.7816164E-02  0.1184000E+00
        -11   -1    0    0    0    0  0.00000000000E+00  0.00000000000E+00  0.45593999997E+02  0.45594000000E+02  0.51100000000E-03 0. -1.
         11   -1    0    0    0    0 -0.00000000000E+00 -0.00000000000E+00 -0.45593999997E+02  0.45594000000E+02  0.51100000000E-03 0.  1.
         23    2    1    2    0    0  0.35527136788E-14  0.35527136788E-14  0.00000000000E+00  0.91188000000E+02  0.91188000000E+02 0.  0.
    9900012    2    3    3    0    0 -0.12940603115E+02 -0.28585589991E+02  0.19266153469E+02  0.54367084292E+02  0.40000000260E+02 0.  0.
        -12    1    3    3    0    0  0.12940603115E+02  0.28585589991E+02 -0.19266153469E+02  0.36820915708E+02  0.00000000000E+00 0.  1.
         11    1    4    4    0    0 -0.18213045440E+02 -0.10973309268E+02  0.43825876507E+01  0.21710265205E+02  0.51100000000E-03 0. -1.
        -11    1    4    4    0    0  0.55266515919E+00 -0.16635045691E+02 -0.38181053394E+00  0.16648602448E+02  0.51100000000E-03 0.  1.
         12    1    4    4    0    0  0.47197771661E+01 -0.97723503281E+00  0.15265376352E+02  0.16008216639E+02  0.00000000000E+00 0. -1.
</event>
<event>
 8    1  0.1238315E-006  0.9118800E+02  0.7816164E-02  0.1184000E+00
        -11   -1    0    0    0    0  0.00000000000E+00  0.00000000000E+00  0.45593999997E+02  0.45594000000E+02  0.51100000000E-03 0.  1.
         11   -1    0    0    0    0 -0.00000000000E+00 -0.00000000000E+00 -0.45593999997E+02  0.45594000000E+02  0.51100000000E-03 0. -1.
         23    2    1    2    0    0 -0.88817841970E-15  0.35527136788E-14  0.00000000000E+00  0.91188000000E+02  0.91188000000E+02 0.  0.
    9900012    2    3    3    0    0  0.55002799402E+01  0.29243934170E+02  0.21686826622E+02  0.54367092704E+02  0.40000019437E+02 0.  0.
         12    1    3    3    0    0 -0.55002799402E+01 -0.29243934170E+02 -0.21686826622E+02  0.36820907296E+02  0.00000000000E+00 0. -1.
         11    1    4    4    0    0  0.21129335422E+01 -0.38034547939E+01  0.15090374472E+02  0.15705099760E+02  0.51100000000E-03 0. -1.
        -11    1    4    4    0    0  0.38326601121E+01  0.61012905652E+01 -0.55563764401E+01  0.90988103343E+01  0.51100000000E-03 0.  1.
        -12    1    4    4    0    0 -0.44531371406E+00  0.26946098399E+02  0.12152828591E+02  0.29563182609E+02  0.00000000000E+00 0.  1.
</event>
<event>
 8    1  0.1238315E-006  0.9118800E+02  0.7816164E-02  0.1184000E+00
        -11   -1    0    0    0    0  0.00000000000E+00  0.00000000000E+00  0.45593999997E+02  0.45594000000E+02  0.51100000000E-03 0.  1.
         11   -1    0    0    0    0 -0.00000000000E+00 -0.00000000000E+00 -0.45593999997E+02  0.45594000000E+02  0.51100000000E-03 0. -1.
         23    2    1    2    0    0 -0.17763568394E-14 -0.71054273576E-14  0.88817841970E-15  0.91188000000E+02  0.91188000000E+02 0.  0.
    9900012    2    3    3    0    0  0.15149869330E+02  0.32706093289E+02 -0.75215763377E+01  0.54367065879E+02  0.39999958284E+02 0.  0.
        -12    1    3    3    0    0 -0.15149869330E+02 -0.32706093289E+02  0.75215763377E+01  0.36820934121E+02  0.00000000000E+00 0.  1.
         11    1    4    4    0    0 -0.82437281845E+01  0.97225004333E+01 -0.20920213156E+01  0.12917531595E+02  0.51100000000E-03 0. -1.
        -11    1    4    4    0    0  0.56768934003E+01 -0.51067603000E+01  0.73653275170E+00  0.76712841295E+01  0.51100000000E-03 0.  1.
        -12    1    4    4    0    0  0.17716704114E+02  0.28090353156E+02 -0.61660877737E+01  0.33778250155E+02  0.00000000000E+00 0.  1.
</event>
<event>
 8    1  0.1238315E-006  0.9118800E+02  0.7816164E-02  0.1184000E+00
        -11   -1    0    0    0    0  0.00000000000E+00  0.00000000000E+00  0.45593999997E+02  0.45594000000E+02  0.51100000000E-03 0.  1.
         11   -1    0    0    0    0 -0.00000000000E+00 -0.00000000000E+00 -0.45593999997E+02  0.45594000000E+02  0.51100000000E-03 0. -1.
         23    2    1    2    0    0  0.61062266354E-15  0.00000000000E+00  0.00000000000E+00  0.91188000000E+02  0.91188000000E+02 0.  0.
    9900012    2    3    3    0    0 -0.49655378946E+00  0.35430667695E+02 -0.10009935081E+02  0.54367114904E+02  0.40000070046E+02 0.  0.
        -12    1    3    3    0    0  0.49655378946E+00 -0.35430667695E+02  0.10009935081E+02  0.36820885096E+02  0.00000000000E+00 0.  1.
         11    1    4    4    0    0  0.39940076328E+01  0.60664091850E+01  0.59192490203E+01  0.93696812431E+01  0.51100000000E-03 0. -1.
        -11    1    4    4    0    0 -0.38396407934E+00  0.13348711252E+02 -0.23331011111E+02  0.26882551967E+02  0.51100000000E-03 0.  1.
        -12    1    4    4    0    0 -0.41065973430E+01  0.16015547258E+02  0.74018270102E+01  0.18114881694E+02  0.00000000000E+00 0.  1.
</event>
<event>
 8    1  0.1238315E-006  0.9118800E+02  0.7816164E-02  0.1184000E+00
        -11   -1    0    0    0    0  0.00000000000E+00  0.00000000000E+00  0.45593999997E+02  0.45594000000E+02  0.51100000000E-03 0.  1.
         11   -1    0    0    0    0 -0.00000000000E+00 -0.00000000000E+00 -0.45593999997E+02  0.45594000000E+02  0.51100000000E-03 0. -1.
         23    2    1    2    0    0  0.35527136788E-14  0.00000000000E+00  0.00000000000E+00  0.91188000000E+02  0.91188000000E+02 0.  0.
    9900012    2    3    3    0    0 -0.26464633266E+02 -0.74273833467E+01  0.24499705983E+02  0.54367103344E+02  0.40000043694E+02 0.  0.
         12    1    3    3    0    0  0.26464633266E+02  0.74273833467E+01 -0.24499705983E+02  0.36820896656E+02  0.00000000000E+00 0. -1.
         11    1    4    4    0    0 -0.13262040954E+02 -0.22412955396E+02  0.60245430317E+01  0.26730458636E+02  0.51100000000E-03 0. -1.
        -11    1    4    4    0    0 -0.74406422053E+01  0.87104284662E+01  0.13742551299E+02  0.17891127325E+02  0.51100000000E-03 0.  1.
         12    1    4    4    0    0 -0.57619501061E+01  0.62751435836E+01  0.47326116521E+01  0.97455173834E+01  0.00000000000E+00 0. -1.
</event>
<event>
 8    1  0.1238315E-006  0.9118800E+02  0.7816164E-02  0.1184000E+00
        -11   -1    0    0    0    0  0.00000000000E+00  0.00000000000E+00  0.45593999997E+02  0.45594000000E+02  0.51100000000E-03 0.  1.
         11   -1    0    0    0    0 -0.00000000000E+00 -0.00000000000E+00 -0.45593999997E+02  0.45594000000E+02  0.51100000000E-03 0. -1.
         23    2    1    2    0    0 -0.66613381478E-15 -0.13322676296E-14 -0.71054273576E-14  0.91188000000E+02  0.91188000000E+02 0.  0.
    9900012    2    3    3    0    0  0.17692036654E+01 -0.19414710237E+01 -0.36726980199E+02  0.54367211498E+02  0.40000290252E+02 0.  0.
        -12    1    3    3    0    0 -0.17692036654E+01  0.19414710237E+01  0.36726980199E+02  0.36820788502E+02  0.00000000000E+00 0.  1.
         11    1    4    4    0    0  0.87093114053E+01  0.41050384080E+01  0.84858756841E+00  0.96655856837E+01  0.51100000000E-03 0.  1.
        -11    1    4    4    0    0  0.25737248234E+01 -0.10012063913E+02 -0.71281979655E+01  0.12556937914E+02  0.51100000000E-03 0. -1.
        -12    1    4    4    0    0 -0.95138325633E+01  0.39655544817E+01 -0.30447369802E+02  0.32144687901E+02  0.00000000000E+00 0.  1.
</event>
<event>
 8    1  0.1238315E-006  0.9118800E+02  0.7816164E-02  0.1184000E+00
        -11   -1    0    0    0    0  0.00000000000E+00  0.00000000000E+00  0.45593999997E+02  0.45594000000E+02  0.51100000000E-03 0. -1.
         11   -1    0    0    0    0 -0.00000000000E+00 -0.00000000000E+00 -0.45593999997E+02  0.45594000000E+02  0.51100000000E-03 0.  1.
         23    2    1    2    0    0  0.00000000000E+00 -0.26645352591E-14  0.00000000000E+00  0.91188000000E+02  0.91188000000E+02 0.  0.
    9900012    2    3    3    0    0 -0.19343226128E+02  0.78235261550E+01  0.30338302631E+02  0.54367074359E+02  0.39999977615E+02 0.  0.
        -12    1    3    3    0    0  0.19343226128E+02 -0.78235261550E+01 -0.30338302631E+02  0.36820925641E+02  0.00000000000E+00 0.  1.
         11    1    4    4    0    0  0.28641332100E+01 -0.15183269995E+01  0.13884202610E+02  0.14257617553E+02  0.51100000000E-03 0. -1.
        -11    1    4    4    0    0  0.51587250547E+01 -0.35983162197E+01  0.33126542073E+01  0.71087271692E+01  0.51100000000E-03 0.  1.
         12    1    4    4    0    0 -0.27366084393E+02  0.12940169374E+02  0.13141445814E+02  0.33000729636E+02  0.00000000000E+00 0. -1.
</event>
<event>
 8    1  0.1238315E-006  0.9118800E+02  0.7816164E-02  0.1184000E+00
        -11   -1    0    0    0    0  0.00000000000E+00  0.00000000000E+00  0.45593999997E+02  0.45594000000E+02  0.51100000000E-03 0.  1.
         11   -1    0    0    0    0 -0.00000000000E+00 -0.00000000000E+00 -0.45593999997E+02  0.45594000000E+02  0.51100000000E-03 0. -1.
         23    2    1    2    0    0  0.35527136788E-14 -0.17763568394E-14  0.35527136788E-14  0.91188000000E+02  0.91188000000E+02 0.  0.
    9900012    2    3    3    0    0  0.26072519443E+02 -0.12501084628E+02  0.22797489232E+02  0.54367096939E+02  0.40000029092E+02 0.  0.
         12    1    3    3    0    0 -0.26072519443E+02  0.12501084628E+02 -0.22797489232E+02  0.36820903061E+02  0.00000000000E+00 0. -1.
         11    1    4    4    0    0  0.25195350667E+02 -0.12696957716E+02 -0.18850018154E+00  0.28214428278E+02  0.51100000000E-03 0.  1.
        -11    1    4    4    0    0 -0.18182025910E+01  0.12996049835E+01 -0.65815348013E+00  0.23298068675E+01  0.51100000000E-03 0. -1.
        -12    1    4    4    0    0  0.26953713669E+01 -0.11037318956E+01  0.23644142893E+02  0.23822861794E+02  0.00000000000E+00 0.  1.
</event>
<event>
 8    1  0.1238315E-006  0.9118800E+02  0.7816164E-02  0.1184000E+00
        -11   -1    0    0    0    0  0.00000000000E+00  0.00000000000E+00  0.45593999997E+02  0.45594000000E+02  0.51100000000E-03 0.  1.
         11   -1    0    0    0    0 -0.00000000000E+00 -0.00000000000E+00 -0.45593999997E+02  0.45594000000E+02  0.51100000000E-03 0. -1.
         23    2    1    2    0    0 -0.71054273576E-14  0.00000000000E+00  0.00000000000E+00  0.91188000000E+02  0.91188000000E+02 0.  0.
    9900012    2    3    3    0    0  0.36485415917E+02 -0.97535990357E+00 -0.48624756870E+01  0.54367074273E+02  0.39999977421E+02 0.  0.
         12    1    3    3    0    0 -0.36485415917E+02  0.97535990357E+00  0.48624756870E+01  0.36820925727E+02  0.00000000000E+00 0. -1.
         11    1    4    4    0    0  0.19966120452E+02 -0.33161987832E+01  0.22974848198E+00  0.20240946740E+02  0.51100000000E-03 0. -1.
        -11    1    4    4    0    0 -0.78529474886E+01 -0.33383037951E+01 -0.28687619914E+01  0.90023803581E+01  0.51100000000E-03 0.  1.
         12    1    4    4    0    0  0.24372242953E+02  0.56791426747E+01 -0.22234621776E+01  0.25123747176E+02  0.00000000000E+00 0. -1.
</event>
<event>
 8    1  0.1238315E-006  0.9118800E+02  0.7816164E-02  0.1184000E+00
        -11   -1    0    0    0    0  0.00000000000E+00  0.00000000000E+00  0.45593999997E+02  0.45594000000E+02  0.51100000000E-03 0. -1.
         11   -1    0    0    0    0 -0.00000000000E+00 -0.00000000000E+00 -0.45593999997E+02  0.45594000000E+02  0.51100000000E-03 0.  1.
         23    2    1    2    0    0  0.66613381478E-15  0.44408920985E-15  0.00000000000E+00  0.91188000000E+02  0.91188000000E+02 0.  0.
    9900012    2    3    3    0    0  0.95111317396E+00  0.21651256184E+01  0.36744931383E+02  0.54367049883E+02  0.39999921817E+02 0.  0.
        -12    1    3    3    0    0 -0.95111317396E+00 -0.21651256184E+01 -0.36744931383E+02  0.36820950117E+02  0.00000000000E+00 0.  1.
         11    1    4    4    0    0 -0.90054484930E+01  0.80060435001E+01 -0.26608309486E+01  0.12339969882E+02  0.51100000000E-03 0. -1.
        -11    1    4    4    0    0  0.85414468987E+01 -0.26667136600E+01  0.15724789006E+02  0.18092447773E+02  0.51100000000E-03 0.  1.
         12    1    4    4    0    0  0.14151147683E+01 -0.31742042217E+01  0.23680973325E+02  0.23934632228E+02  0.00000000000E+00 0. -1.
</event>
<event>
 8    1  0.1238315E-006  0.9118800E+02  0.7816164E-02  0.1184000E+00
        -11   -1    0    0    0    0  0.00000000000E+00  0.00000000000E+00  0.45593999997E+02  0.45594000000E+02  0.51100000000E-03 0.  1.
         11   -1    0    0    0    0 -0.00000000000E+00 -0.00000000000E+00 -0.45593999997E+02  0.45594000000E+02  0.51100000000E-03 0. -1.
         23    2    1    2    0    0  0.00000000000E+00 -0.35527136788E-14 -0.35527136788E-14  0.91188000000E+02  0.91188000000E+02 0.  0.
    9900012    2    3    3    0    0  0.13959366103E+02 -0.19746612479E+02  0.27766714996E+02  0.54367040370E+02  0.39999900132E+02 0.  0.
         12    1    3    3    0    0 -0.13959366103E+02  0.19746612479E+02 -0.27766714996E+02  0.36820959630E+02  0.00000000000E+00 0. -1.
         11    1    4    4    0    0  0.13432213843E+02 -0.15910124205E+02  0.53770535274E+01  0.21505095346E+02  0.51100000000E-03 0. -1.
        -11    1    4    4    0    0  0.10170931382E+02 -0.83475514439E+01  0.14700117210E+02  0.19728733019E+02  0.51100000000E-03 0.  1.
         12    1    4    4    0    0 -0.96437791221E+01  0.45110631695E+01  0.76895442581E+01  0.13133212005E+02  0.00000000000E+00 0. -1.
</event>
<event>
 8    1  0.1238315E-006  0.9118800E+02  0.7816164E-02  0.1184000E+00
        -11   -1    0    0    0    0  0.00000000000E+00  0.00000000000E+00  0.45593999997E+02  0.45594000000E+02  0.51100000000E-03 0. -1.
         11   -1    0    0    0    0 -0.00000000000E+00 -0.00000000000E+00 -0.45593999997E+02  0.45594000000E+02  0.51100000000E-03 0.  1.
         23    2    1    2    0    0  0.00000000000E+00  0.00000000000E+00  0.00000000000E+00  0.91188000000E+02  0.91188000000E+02 0.  0.
    9900012    2    3    3    0    0 -0.26459794952E+02  0.10289489999E+02 -0.23447478928E+02  0.54367100752E+02  0.40000037784E+02 0.  0.
         12    1    3    3    0    0  0.26459794952E+02 -0.10289489999E+02  0.23447478928E+02  0.36820899248E+02  0.00000000000E+00 0. -1.
         11    1    4    4    0    0 -0.37789485603E+01  0.21886788975E+02 -0.14864697769E+02  0.26725853099E+02  0.51100000000E-03 0. -1.
        -11    1    4    4    0    0 -0.51221963023E+01 -0.56147892737E+01 -0.37353249732E+01  0.84684949350E+01  0.51100000000E-03 0.  1.
         12    1    4    4    0    0 -0.17558650089E+02 -0.59825097019E+01 -0.48474561859E+01  0.19172752717E+02  0.00000000000E+00 0. -1.
</event>
<event>
 8    1  0.1238315E-006  0.9118800E+02  0.7816164E-02  0.1184000E+00
        -11   -1    0    0    0    0  0.00000000000E+00  0.00000000000E+00  0.45593999997E+02  0.45594000000E+02  0.51100000000E-03 0. -1.
         11   -1    0    0    0    0 -0.00000000000E+00 -0.00000000000E+00 -0.45593999997E+02  0.45594000000E+02  0.51100000000E-03 0.  1.
         23    2    1    2    0    0  0.00000000000E+00  0.00000000000E+00  0.00000000000E+00  0.91188000000E+02  0.91188000000E+02 0.  0.
    9900012    2    3    3    0    0  0.34505634956E+02 -0.73662891146E+01  0.10529927540E+02  0.54367076152E+02  0.39999981703E+02 0.  0.
         12    1    3    3    0    0 -0.34505634956E+02  0.73662891146E+01 -0.10529927540E+02  0.36820923848E+02  0.00000000000E+00 0. -1.
         11    1    4    4    0    0  0.16755328984E+02  0.60464227824E+01  0.79562812312E+01  0.19509041214E+02  0.51100000000E-03 0. -1.
        -11    1    4    4    0    0  0.30358851961E+01  0.74068622351E+01 -0.33611169467E+01  0.86818957886E+01  0.51100000000E-03 0.  1.
        -12    1    4    4    0    0  0.14714420776E+02 -0.20819574132E+02  0.59347632558E+01  0.26176139149E+02  0.00000000000E+00 0.  1.
</event>
<event>
 8    1  0.1238315E-006  0.9118800E+02  0.7816164E-02  0.1184000E+00
        -11   -1    0    0    0    0  0.00000000000E+00  0.00000000000E+00  0.45593999997E+02  0.45594000000E+02  0.51100000000E-03 0. -1.
         11   -1    0    0    0    0 -0.00000000000E+00 -0.00000000000E+00 -0.45593999997E+02  0.45594000000E+02  0.51100000000E-03 0.  1.
         23    2    1    2    0    0 -0.44408920985E-15  0.35527136788E-14  0.00000000000E+00  0.91188000000E+02  0.91188000000E+02 0.  0.
    9900012    2    3    3    0    0  0.32452215197E+01  0.27375714061E+02 -0.24409399989E+02  0.54367082156E+02  0.39999995391E+02 0.  0.
         12    1    3    3    0    0 -0.32452215197E+01 -0.27375714061E+02  0.24409399989E+02  0.36820917844E+02  0.00000000000E+00 0. -1.
         11    1    4    4    0    0  0.96499113000E+01  0.30960027986E+02 -0.13228618311E+02  0.35023427354E+02  0.51100000000E-03 0. -1.
        -11    1    4    4    0    0 -0.75959692593E+01  0.35909163965E+01 -0.48525096987E+01  0.97025914163E+01  0.51100000000E-03 0.  1.
         12    1    4    4    0    0  0.11912794790E+01 -0.71752303210E+01 -0.63282719788E+01  0.96410633850E+01  0.00000000000E+00 0. -1.
</event>
<event>
 8    1  0.1238315E-006  0.9118800E+02  0.7816164E-02  0.1184000E+00
        -11   -1    0    0    0    0  0.00000000000E+00  0.00000000000E+00  0.45593999997E+02  0.45594000000E+02  0.51100000000E-03 0.  1.
         11   -1    0    0    0    0 -0.00000000000E+00 -0.00000000000E+00 -0.45593999997E+02  0.45594000000E+02  0.51100000000E-03 0. -1.
         23    2    1    2    0    0 -0.35527136788E-14  0.00000000000E+00 -0.35527136788E-14  0.91188000000E+02  0.91188000000E+02 0.  0.
    9900012    2    3    3    0    0  0.29281929663E+02  0.36094240711E+01  0.22029975441E+02  0.54367093373E+02  0.40000020962E+02 0.  0.
        -12    1    3    3    0    0 -0.29281929663E+02 -0.36094240711E+01 -0.22029975441E+02  0.36820906627E+02  0.00000000000E+00 0.  1.
         11    1    4    4    0    0  0.29845076638E+02  0.14237730361E+02  0.10116609234E+02  0.34580158299E+02  0.51100000000E-03 0. -1.
        -11    1    4    4    0    0 -0.60761659658E+01 -0.45484096477E+01  0.55945183840E+01  0.94290221856E+01  0.51100000000E-03 0.  1.
         12    1    4    4    0    0  0.55130189908E+01 -0.60798966426E+01  0.63188478235E+01  0.10357912888E+02  0.00000000000E+00 0. -1.
</event>
<event>
 8    1  0.1238315E-006  0.9118800E+02  0.7816164E-02  0.1184000E+00
        -11   -1    0    0    0    0  0.00000000000E+00  0.00000000000E+00  0.45593999997E+02  0.45594000000E+02  0.51100000000E-03 0. -1.
         11   -1    0    0    0    0 -0.00000000000E+00 -0.00000000000E+00 -0.45593999997E+02  0.45594000000E+02  0.51100000000E-03 0.  1.
         23    2    1    2    0    0 -0.17763568394E-14  0.71054273576E-14  0.17763568394E-14  0.91188000000E+02  0.91188000000E+02 0.  0.
    9900012    2    3    3    0    0 -0.34013167895E+01  0.35646024022E+02  0.85774699806E+01  0.54367068782E+02  0.39999964903E+02 0.  0.
        -12    1    3    3    0    0  0.34013167895E+01 -0.35646024022E+02 -0.85774699806E+01  0.36820931218E+02  0.00000000000E+00 0.  1.
         11    1    4    4    0    0 -0.14901912417E+01  0.19589274536E+01  0.13480105032E+02  0.13702966783E+02  0.51100000000E-03 0. -1.
        -11    1    4    4    0    0  0.91187055705E+01  0.73098423002E+01 -0.19463873697E+00  0.11688561513E+02  0.51100000000E-03 0.  1.
        -12    1    4    4    0    0 -0.11029831118E+02  0.26377254268E+02 -0.47079963147E+01  0.28975540487E+02  0.00000000000E+00 0.  1.
</event>
<event>
 8    1  0.1238315E-006  0.9118800E+02  0.7816164E-02  0.1184000E+00
        -11   -1    0    0    0    0  0.00000000000E+00  0.00000000000E+00  0.45593999997E+02  0.45594000000E+02  0.51100000000E-03 0.  1.
         11   -1    0    0    0    0 -0.00000000000E+00 -0.00000000000E+00 -0.45593999997E+02  0.45594000000E+02  0.51100000000E-03 0. -1.
         23    2    1    2    0    0  0.00000000000E+00 -0.35527136788E-14 -0.17763568394E-14  0.91188000000E+02  0.91188000000E+02 0.  0.
    9900012    2    3    3    0    0 -0.30258206289E+02 -0.19536251230E+02 -0.76521384967E+01  0.54367090403E+02  0.40000014192E+02 0.  0.
        -12    1    3    3    0    0  0.30258206289E+02  0.19536251230E+02  0.76521384967E+01  0.36820909597E+02  0.00000000000E+00 0.  1.
         11    1    4    4    0    0  0.22981428043E+01  0.96049750111E+00 -0.13452118589E+01  0.28308322106E+01  0.51100000000E-03 0. -1.
        -11    1    4    4    0    0 -0.18324955201E+01  0.38912547170E+01 -0.11207674556E+02  0.12004660442E+02  0.51100000000E-03 0.  1.
         12    1    4    4    0    0 -0.30723853574E+02 -0.24388003448E+02  0.49007479185E+01  0.39531597751E+02  0.00000000000E+00 0. -1.
</event>
<event>
 8    1  0.1238315E-006  0.9118800E+02  0.7816164E-02  0.1184000E+00
        -11   -1    0    0    0    0  0.00000000000E+00  0.00000000000E+00  0.45593999997E+02  0.45594000000E+02  0.51100000000E-03 0.  1.
         11   -1    0    0    0    0 -0.00000000000E+00 -0.00000000000E+00 -0.45593999997E+02  0.45594000000E+02  0.51100000000E-03 0. -1.
         23    2    1    2    0    0  0.00000000000E+00  0.88817841970E-15  0.44408920985E-15  0.91188000000E+02  0.91188000000E+02 0.  0.
    9900012    2    3    3    0    0 -0.36373802728E+02  0.50234943588E+01 -0.27369239366E+01  0.54367085113E+02  0.40000002132E+02 0.  0.
        -12    1    3    3    0    0  0.36373802728E+02 -0.50234943588E+01  0.27369239366E+01  0.36820914887E+02  0.00000000000E+00 0.  1.
         11    1    4    4    0    0 -0.42447267567E-01  0.38062167768E+01 -0.92192167667E+01  0.99741188069E+01  0.51100000000E-03 0.  1.
        -11    1    4    4    0    0 -0.22013322999E+02  0.55556330970E+01  0.14967532615E+02  0.27193353626E+02  0.51100000000E-03 0. -1.
         12    1    4    4    0    0 -0.14318032461E+02 -0.43383555149E+01 -0.84852397852E+01  0.17199612680E+02  0.00000000000E+00 0. -1.
</event>
<event>
 8    1  0.1238315E-006  0.9118800E+02  0.7816164E-02  0.1184000E+00
        -11   -1    0    0    0    0  0.00000000000E+00  0.00000000000E+00  0.45593999997E+02  0.45594000000E+02  0.51100000000E-03 0.  1.
         11   -1    0    0    0    0 -0.00000000000E+00 -0.00000000000E+00 -0.45593999997E+02  0.45594000000E+02  0.51100000000E-03 0. -1.
         23    2    1    2    0    0 -0.35527136788E-14  0.00000000000E+00  0.00000000000E+00  0.91188000000E+02  0.91188000000E+02 0.  0.
    9900012    2    3    3    0    0 -0.26280192904E+02  0.24634496812E+02  0.76337177088E+01  0.54367073636E+02  0.39999975967E+02 0.  0.
         12    1    3    3    0    0  0.26280192904E+02 -0.24634496812E+02 -0.76337177088E+01  0.36820926364E+02  0.00000000000E+00 0. -1.
         11    1    4    4    0    0  0.16229351440E+01  0.17413037682E+02  0.25130128330E+01  0.17668136108E+02  0.51100000000E-03 0. -1.
        -11    1    4    4    0    0  0.23345358613E+01  0.19213714806E+01  0.51827545740E+01  0.60002226033E+01  0.51100000000E-03 0.  1.
        -12    1    4    4    0    0 -0.30237663910E+02  0.53000876499E+01 -0.62049698279E-01  0.30698714924E+02  0.00000000000E+00 0.  1.
</event>
<event>
 8    1  0.1238315E-006  0.9118800E+02  0.7816164E-02  0.1184000E+00
        -11   -1    0    0    0    0  0.00000000000E+00  0.00000000000E+00  0.45593999997E+02  0.45594000000E+02  0.51100000000E-03 0. -1.
         11   -1    0    0    0    0 -0.00000000000E+00 -0.00000000000E+00 -0.45593999997E+02  0.45594000000E+02  0.51100000000E-03 0.  1.
         23    2    1    2    0    0  0.35527136788E-14 -0.35527136788E-14  0.35527136788E-14  0.91188000000E+02  0.91188000000E+02 0.  0.
    9900012    2    3    3    0    0 -0.23524568219E+02  0.19894217262E+02 -0.20164196194E+02  0.54367082052E+02  0.39999995155E+02 0.  0.
         12    1    3    3    0    0  0.23524568219E+02 -0.19894217262E+02  0.20164196194E+02  0.36820917948E+02  0.00000000000E+00 0. -1.
         11    1    4    4    0    0 -0.92424896131E+01  0.79297354992E+01 -0.16940688440E+02  0.20863634497E+02  0.51100000000E-03 0. -1.
        -11    1    4    4    0    0 -0.12019110177E+02  0.24133093331E+01 -0.14212450842E+02  0.18769039149E+02  0.51100000000E-03 0.  1.
         12    1    4    4    0    0 -0.22629684281E+01  0.95511724300E+01  0.10988943088E+02  0.14734408406E+02  0.00000000000E+00 0. -1.
</event>
<event>
 8    1  0.1238315E-006  0.9118800E+02  0.7816164E-02  0.1184000E+00
        -11   -1    0    0    0    0  0.00000000000E+00  0.00000000000E+00  0.45593999997E+02  0.45594000000E+02  0.51100000000E-03 0. -1.
         11   -1    0    0    0    0 -0.00000000000E+00 -0.00000000000E+00 -0.45593999997E+02  0.45594000000E+02  0.51100000000E-03 0.  1.
         23    2    1    2    0    0 -0.18318679906E-14  0.00000000000E+00  0.00000000000E+00  0.91188000000E+02  0.91188000000E+02 0.  0.
    9900012    2    3    3    0    0 -0.43951662871E+00 -0.25670515056E+02  0.26393366573E+02  0.54367104883E+02  0.40000047203E+02 0.  0.
        -12    1    3    3    0    0  0.43951662871E+00  0.25670515056E+02 -0.26393366573E+02  0.36820895117E+02  0.00000000000E+00 0.  1.
         11    1    4    4    0    0  0.35947621262E+01 -0.69356304009E+01  0.73893318434E+01  0.10753023256E+02  0.51100000000E-03 0. -1.
        -11    1    4    4    0    0  0.80643130636E+01  0.61267843165E+01  0.11449173259E+00  0.10128363139E+02  0.51100000000E-03 0.  1.
        -12    1    4    4    0    0 -0.12098591818E+02 -0.24861668972E+02  0.18889542997E+02  0.33485718488E+02  0.00000000000E+00 0.  1.
</event>
<event>
 8    1  0.1238315E-006  0.9118800E+02  0.7816164E-02  0.1184000E+00
        -11   -1    0    0    0    0  0.00000000000E+00  0.00000000000E+00  0.45593999997E+02  0.45594000000E+02  0.51100000000E-03 0.  1.
         11   -1    0    0    0    0 -0.00000000000E+00 -0.00000000000E+00 -0.45593999997E+02  0.45594000000E+02  0.51100000000E-03 0. -1.
         23    2    1    2    0    0 -0.71054273576E-14 -0.44408920985E-15  0.00000000000E+00  0.91188000000E+02  0.91188000000E+02 0.  0.
    9900012    2    3    3    0    0 -0.31157579459E+02  0.15199586472E+01 -0.19562072929E+02  0.54367085708E+02  0.40000003488E+02 0.  0.
        -12    1    3    3    0    0  0.31157579459E+02 -0.15199586472E+01  0.19562072929E+02  0.36820914292E+02  0.00000000000E+00 0.  1.
         11    1    4    4    0    0 -0.59002330055E+00  0.78377175783E+01 -0.17828450514E+01  0.80595583670E+01  0.51100000000E-03 0. -1.
        -11    1    4    4    0    0  0.20915941012E+01 -0.57370519994E+01  0.37689869128E+01  0.71759176513E+01  0.51100000000E-03 0.  1.
         12    1    4    4    0    0 -0.32659150260E+02 -0.58070693165E+00 -0.21548214790E+02  0.39131609689E+02  0.00000000000E+00 0. -1.
</event>
<event>
 8    1  0.1238315E-006  0.9118800E+02  0.7816164E-02  0.1184000E+00
        -11   -1    0    0    0    0  0.00000000000E+00  0.00000000000E+00  0.45593999997E+02  0.45594000000E+02  0.51100000000E-03 0. -1.
         11   -1    0    0    0    0 -0.00000000000E+00 -0.00000000000E+00 -0.45593999997E+02  0.45594000000E+02  0.51100000000E-03 0.  1.
         23    2    1    2    0    0  0.00000000000E+00  0.00000000000E+00 -0.17763568394E-14  0.91188000000E+02  0.91188000000E+02 0.  0.
    9900012    2    3    3    0    0 -0.32895186054E+02 -0.16293605283E+02 -0.28647442388E+01  0.54367060330E+02  0.39999945634E+02 0.  0.
         12    1    3    3    0    0  0.32895186054E+02  0.16293605283E+02  0.28647442388E+01  0.36820939670E+02  0.00000000000E+00 0. -1.
         11    1    4    4    0    0  0.31291916862E+01  0.91285277381E+00  0.10063909884E+02  0.10578630498E+02  0.51100000000E-03 0. -1.
        -11    1    4    4    0    0 -0.14378861032E+02 -0.73419315034E+00 -0.67188036571E+01  0.15888140451E+02  0.51100000000E-03 0.  1.
         12    1    4    4    0    0 -0.21645516708E+02 -0.16472264907E+02 -0.62098504657E+01  0.27900289381E+02  0.00000000000E+00 0. -1.
</event>
<event>
 8    1  0.1238315E-006  0.9118800E+02  0.7816164E-02  0.1184000E+00
        -11   -1    0    0    0    0  0.00000000000E+00  0.00000000000E+00  0.45593999997E+02  0.45594000000E+02  0.51100000000E-03 0.  1.
         11   -1    0    0    0    0 -0.00000000000E+00 -0.00000000000E+00 -0.45593999997E+02  0.45594000000E+02  0.51100000000E-03 0. -1.
         23    2    1    2    0    0  0.00000000000E+00 -0.35527136788E-14 -0.17763568394E-14  0.91188000000E+02  0.91188000000E+02 0.  0.
    9900012    2    3    3    0    0  0.21852006168E+02  0.28978332467E+02  0.62069851433E+01  0.54367074011E+02  0.39999976822E+02 0.  0.
         12    1    3    3    0    0 -0.21852006168E+02 -0.28978332467E+02 -0.62069851433E+01  0.36820925989E+02  0.00000000000E+00 0. -1.
         11    1    4    4    0    0 -0.19091616769E+01 -0.14001594786E+01  0.93001623226E+01  0.95967892736E+01  0.51100000000E-03 0. -1.
        -11    1    4    4    0    0  0.14244399673E+02  0.31835114526E+02 -0.39749681616E+01  0.35102390390E+02  0.51100000000E-03 0.  1.
        -12    1    4    4    0    0  0.95167681719E+01 -0.14566225803E+01  0.88179098238E+00  0.96678943476E+01  0.00000000000E+00 0.  1.
</event>
<event>
 8    1  0.1238315E-006  0.9118800E+02  0.7816164E-02  0.1184000E+00
        -11   -1    0    0    0    0  0.00000000000E+00  0.00000000000E+00  0.45593999997E+02  0.45594000000E+02  0.51100000000E-03 0. -1.
         11   -1    0    0    0    0 -0.00000000000E+00 -0.00000000000E+00 -0.45593999997E+02  0.45594000000E+02  0.51100000000E-03 0.  1.
         23    2    1    2    0    0  0.71054273576E-14 -0.26645352591E-14  0.00000000000E+00  0.91188000000E+02  0.91188000000E+02 0.  0.
    9900012    2    3    3    0    0  0.34862967419E+02 -0.65045100717E+01  0.99017381485E+01  0.54367087913E+02  0.40000008516E+02 0.  0.
        -12    1    3    3    0    0 -0.34862967419E+02  0.65045100717E+01 -0.99017381485E+01  0.36820912087E+02  0.00000000000E+00 0.  1.
         11    1    4    4    0    0  0.26493488735E+02  0.59167402670E+01  0.39137023899E+01  0.27426808553E+02  0.51100000000E-03 0. -1.
        -11    1    4    4    0    0  0.54370193551E+01  0.50679950871E+01  0.54177860180E+01  0.91977257661E+01  0.51100000000E-03 0.  1.
        -12    1    4    4    0    0  0.29324593295E+01 -0.17489245426E+02  0.57024974053E+00  0.17742553594E+02  0.00000000000E+00 0.  1.
</event>
<event>
 8    1  0.1238315E-006  0.9118800E+02  0.7816164E-02  0.1184000E+00
        -11   -1    0    0    0    0  0.00000000000E+00  0.00000000000E+00  0.45593999997E+02  0.45594000000E+02  0.51100000000E-03 0. -1.
         11   -1    0    0    0    0 -0.00000000000E+00 -0.00000000000E+00 -0.45593999997E+02  0.45594000000E+02  0.51100000000E-03 0.  1.
         23    2    1    2    0    0  0.00000000000E+00  0.00000000000E+00 -0.35527136788E-14  0.91188000000E+02  0.91188000000E+02 0.  0.
    9900012    2    3    3    0    0  0.30127939146E+02 -0.24911688384E+01  0.21021013490E+02  0.54367059660E+02  0.39999944107E+02 0.  0.
        -12    1    3    3    0    0 -0.30127939146E+02  0.24911688384E+01 -0.21021013490E+02  0.36820940340E+02  0.00000000000E+00 0.  1.
         11    1    4    4    0    0  0.10957519461E+02 -0.93921592953E+01  0.11422771122E+02  0.18405422824E+02  0.51100000000E-03 0. -1.
        -11    1    4    4    0    0  0.18428806164E+02 -0.52079148553E+01  0.13255699258E+02  0.23290702799E+02  0.51100000000E-03 0.  1.
        -12    1    4    4    0    0  0.74161352074E+00  0.12108905312E+02 -0.36574568899E+01  0.12670934037E+02  0.00000000000E+00 0.  1.
</event>
<event>
 8    1  0.1238315E-006  0.9118800E+02  0.7816164E-02  0.1184000E+00
        -11   -1    0    0    0    0  0.00000000000E+00  0.00000000000E+00  0.45593999997E+02  0.45594000000E+02  0.51100000000E-03 0.  1.
         11   -1    0    0    0    0 -0.00000000000E+00 -0.00000000000E+00 -0.45593999997E+02  0.45594000000E+02  0.51100000000E-03 0. -1.
         23    2    1    2    0    0  0.00000000000E+00  0.35527136788E-14  0.00000000000E+00  0.91188000000E+02  0.91188000000E+02 0.  0.
    9900012    2    3    3    0    0  0.73600813327E+01  0.28762692864E+02  0.21778878084E+02  0.54367043622E+02  0.39999907545E+02 0.  0.
         12    1    3    3    0    0 -0.73600813327E+01 -0.28762692864E+02 -0.21778878084E+02  0.36820956378E+02  0.00000000000E+00 0. -1.
         11    1    4    4    0    0  0.39382580227E+01  0.12523657873E+01 -0.52266890900E+01  0.66630755229E+01  0.51100000000E-03 0. -1.
        -11    1    4    4    0    0  0.46496090253E+01 -0.31437489411E+00  0.17754602393E+02  0.18356023590E+02  0.51100000000E-03 0.  1.
        -12    1    4    4    0    0 -0.12277857153E+01  0.27824701971E+02  0.92509647809E+01  0.29347944509E+02  0.00000000000E+00 0.  1.
</event>
<event>
 8    1  0.1238315E-006  0.9118800E+02  0.7816164E-02  0.1184000E+00
        -11   -1    0    0    0    0  0.00000000000E+00  0.00000000000E+00  0.45593999997E+02  0.45594000000E+02  0.51100000000E-03 0. -1.
         11   -1    0    0    0    0 -0.00000000000E+00 -0.00000000000E+00 -0.45593999997E+02  0.45594000000E+02  0.51100000000E-03 0.  1.
         23    2    1    2    0    0  0.00000000000E+00  0.88817841970E-15  0.00000000000E+00  0.91188000000E+02  0.91188000000E+02 0.  0.
    9900012    2    3    3    0    0  0.22001583364E+02  0.49147111847E+01 -0.29112780863E+02  0.54367108292E+02  0.40000054974E+02 0.  0.
         12    1    3    3    0    0 -0.22001583364E+02 -0.49147111847E+01  0.29112780863E+02  0.36820891708E+02  0.00000000000E+00 0. -1.
         11    1    4    4    0    0  0.21585931063E+02  0.92860322340E+01 -0.79130009924E+01  0.24795128543E+02  0.51100000000E-03 0. -1.
        -11    1    4    4    0    0  0.30637175627E+01  0.61866794908E+01 -0.16167906117E+02  0.17580175110E+02  0.51100000000E-03 0.  1.
         12    1    4    4    0    0 -0.26480652614E+01 -0.10558000540E+02 -0.50318737535E+01  0.11991804639E+02  0.00000000000E+00 0. -1.
</event>
<event>
 8    1  0.1238315E-006  0.9118800E+02  0.7816164E-02  0.1184000E+00
        -11   -1    0    0    0    0  0.00000000000E+00  0.00000000000E+00  0.45593999997E+02  0.45594000000E+02  0.51100000000E-03 0.  1.
         11   -1    0    0    0    0 -0.00000000000E+00 -0.00000000000E+00 -0.45593999997E+02  0.45594000000E+02  0.51100000000E-03 0. -1.
         23    2    1    2    0    0  0.17763568394E-14  0.35527136788E-14 -0.35527136788E-14  0.91188000000E+02  0.91188000000E+02 0.  0.
    9900012    2    3    3    0    0  0.15217817628E+02  0.30809520491E+02  0.13227669491E+02  0.54367085204E+02  0.40000002341E+02 0.  0.
         12    1    3    3    0    0 -0.15217817628E+02 -0.30809520491E+02 -0.13227669491E+02  0.36820914796E+02  0.00000000000E+00 0. -1.
         11    1    4    4    0    0  0.17284760639E+02  0.17097026511E+02 -0.20756051052E+01  0.24400397592E+02  0.51100000000E-03 0. -1.
        -11    1    4    4    0    0  0.53561743761E+01  0.51012893577E+01  0.16936179992E+02  0.18480961827E+02  0.51100000000E-03 0.  1.
         12    1    4    4    0    0 -0.74231173865E+01  0.86112046221E+01 -0.16329053964E+01  0.11485725785E+02  0.00000000000E+00 0. -1.
</event>
<event>
 8    1  0.1238315E-006  0.9118800E+02  0.7816164E-02  0.1184000E+00
        -11   -1    0    0    0    0  0.00000000000E+00  0.00000000000E+00  0.45593999997E+02  0.45594000000E+02  0.51100000000E-03 0.  1.
         11   -1    0    0    0    0 -0.00000000000E+00 -0.00000000000E+00 -0.45593999997E+02  0.45594000000E+02  0.51100000000E-03 0. -1.
         23    2    1    2    0    0 -0.71054273576E-14  0.71054273576E-14  0.71054273576E-14  0.91188000000E+02  0.91188000000E+02 0.  0.
    9900012    2    3    3    0    0  0.11935926861E+02 -0.19468210295E+02 -0.28884291373E+02  0.54367084065E+02  0.39999999744E+02 0.  0.
        -12    1    3    3    0    0 -0.11935926861E+02  0.19468210295E+02  0.28884291373E+02  0.36820915935E+02  0.00000000000E+00 0.  1.
         11    1    4    4    0    0  0.13992988021E+02 -0.18382527582E+02 -0.62972052376E+00  0.23110984018E+02  0.51100000000E-03 0. -1.
        -11    1    4    4    0    0 -0.45079722321E+01  0.15479060040E+01 -0.27575753431E+01  0.55065459842E+01  0.51100000000E-03 0.  1.
        -12    1    4    4    0    0  0.24509110721E+01 -0.26335887168E+01 -0.25496995506E+02  0.25749554063E+02  0.00000000000E+00 0.  1.
</event>
<event>
 8    1  0.1238315E-006  0.9118800E+02  0.7816164E-02  0.1184000E+00
        -11   -1    0    0    0    0  0.00000000000E+00  0.00000000000E+00  0.45593999997E+02  0.45594000000E+02  0.51100000000E-03 0.  1.
         11   -1    0    0    0    0 -0.00000000000E+00 -0.00000000000E+00 -0.45593999997E+02  0.45594000000E+02  0.51100000000E-03 0. -1.
         23    2    1    2    0    0  0.00000000000E+00  0.35527136788E-14  0.00000000000E+00  0.91188000000E+02  0.91188000000E+02 0.  0.
    9900012    2    3    3    0    0  0.24688531347E+02 -0.20950446899E+02 -0.17530982686E+02  0.54367079869E+02  0.39999990178E+02 0.  0.
        -12    1    3    3    0    0 -0.24688531347E+02  0.20950446899E+02  0.17530982686E+02  0.36820920131E+02  0.00000000000E+00 0.  1.
         11    1    4    4    0    0  0.36785124279E+01 -0.10011391716E+01  0.80945971493E+00  0.38973014529E+01  0.51100000000E-03 0. -1.
        -11    1    4    4    0    0  0.46994020490E+01 -0.24171518273E+02  0.12191395289E+01  0.24654268934E+02  0.51100000000E-03 0.  1.
         12    1    4    4    0    0  0.16310616870E+02  0.42222105454E+01 -0.19559581930E+02  0.25815509483E+02  0.00000000000E+00 0. -1.
</event>
<event>
 8    1  0.1238315E-006  0.9118800E+02  0.7816164E-02  0.1184000E+00
        -11   -1    0    0    0    0  0.00000000000E+00  0.00000000000E+00  0.45593999997E+02  0.45594000000E+02  0.51100000000E-03 0. -1.
         11   -1    0    0    0    0 -0.00000000000E+00 -0.00000000000E+00 -0.45593999997E+02  0.45594000000E+02  0.51100000000E-03 0.  1.
         23    2    1    2    0    0 -0.17763568394E-14  0.00000000000E+00 -0.35527136788E-14  0.91188000000E+02  0.91188000000E+02 0.  0.
    9900012    2    3    3    0    0 -0.13867324857E+02 -0.15543045962E+02 -0.30362638946E+02  0.54367098053E+02  0.40000031632E+02 0.  0.
         12    1    3    3    0    0  0.13867324857E+02  0.15543045962E+02  0.30362638946E+02  0.36820901947E+02  0.00000000000E+00 0. -1.
         11    1    4    4    0    0  0.20568477387E+01  0.49432706021E+01 -0.15318907385E+01  0.55689528963E+01  0.51100000000E-03 0. -1.
        -11    1    4    4    0    0 -0.11627325713E+02 -0.24817018738E+02 -0.10280688824E+02  0.29270662535E+02  0.51100000000E-03 0.  1.
        -12    1    4    4    0    0 -0.42968468822E+01  0.43307021738E+01 -0.18550059383E+02  0.19527482622E+02  0.00000000000E+00 0.  1.
</event>
<event>
 8    1  0.1238315E-006  0.9118800E+02  0.7816164E-02  0.1184000E+00
        -11   -1    0    0    0    0  0.00000000000E+00  0.00000000000E+00  0.45593999997E+02  0.45594000000E+02  0.51100000000E-03 0. -1.
         11   -1    0    0    0    0 -0.00000000000E+00 -0.00000000000E+00 -0.45593999997E+02  0.45594000000E+02  0.51100000000E-03 0.  1.
         23    2    1    2    0    0  0.71054273576E-14 -0.17763568394E-14 -0.35527136788E-14  0.91188000000E+02  0.91188000000E+02 0.  0.
    9900012    2    3    3    0    0 -0.26035152839E+02 -0.10020022238E+02 -0.24032240458E+02  0.54367100901E+02  0.40000038124E+02 0.  0.
         12    1    3    3    0    0  0.26035152839E+02  0.10020022238E+02  0.24032240458E+02  0.36820899099E+02  0.00000000000E+00 0. -1.
         11    1    4    4    0    0  0.25120502765E+00  0.69293698809E+01  0.42880547065E+01  0.81527102450E+01  0.51100000000E-03 0. -1.
        -11    1    4    4    0    0 -0.96481674329E+01 -0.16589147392E+02 -0.10678520519E+02  0.21961733692E+02  0.51100000000E-03 0.  1.
        -12    1    4    4    0    0 -0.16638190434E+02 -0.36024472628E+00 -0.17641774646E+02  0.24252656965E+02  0.00000000000E+00 0.  1.
</event>
<event>
 8    1  0.1238315E-006  0.9118800E+02  0.7816164E-02  0.1184000E+00
        -11   -1    0    0    0    0  0.00000000000E+00  0.00000000000E+00  0.45593999997E+02  0.45594000000E+02  0.51100000000E-03 0.  1.
         11   -1    0    0    0    0 -0.00000000000E+00 -0.00000000000E+00 -0.45593999997E+02  0.45594000000E+02  0.51100000000E-03 0. -1.
         23    2    1    2    0    0  0.00000000000E+00 -0.17763568394E-14 -0.17763568394E-14  0.91188000000E+02  0.91188000000E+02 0.  0.
    9900012    2    3    3    0    0  0.33643161797E+02 -0.14756135920E+02  0.24846572589E+01  0.54367090116E+02  0.40000013537E+02 0.  0.
        -12    1    3    3    0    0 -0.33643161797E+02  0.14756135920E+02 -0.24846572589E+01  0.36820909884E+02  0.00000000000E+00 0.  1.
         11    1    4    4    0    0  0.72191435498E+01  0.91468857427E+01 -0.73753108538E+00  0.11675851350E+02  0.51100000000E-03 0. -1.
        -11    1    4    4    0    0  0.56923743629E+01 -0.87531193434E+01  0.11670829743E+02  0.15659773028E+02  0.51100000000E-03 0.  1.
        -12    1    4    4    0    0  0.20731643884E+02 -0.15149902320E+02 -0.84486413991E+01  0.27031465738E+02  0.00000000000E+00 0.  1.
</event>
<event>
 8    1  0.1238315E-006  0.9118800E+02  0.7816164E-02  0.1184000E+00
        -11   -1    0    0    0    0  0.00000000000E+00  0.00000000000E+00  0.45593999997E+02  0.45594000000E+02  0.51100000000E-03 0. -1.
         11   -1    0    0    0    0 -0.00000000000E+00 -0.00000000000E+00 -0.45593999997E+02  0.45594000000E+02  0.51100000000E-03 0.  1.
         23    2    1    2    0    0 -0.17763568394E-14  0.00000000000E+00 -0.71054273576E-14  0.91188000000E+02  0.91188000000E+02 0.  0.
    9900012    2    3    3    0    0  0.11673005927E+02 -0.72909480801E+00  0.34914091345E+02  0.54367021997E+02  0.39999858246E+02 0.  0.
        -12    1    3    3    0    0 -0.11673005927E+02  0.72909480801E+00 -0.34914091345E+02  0.36820978003E+02  0.00000000000E+00 0.  1.
         11    1    4    4    0    0  0.83141686942E+01 -0.15607783512E+01 -0.13876890337E+01  0.85724623798E+01  0.51100000000E-03 0.  1.
        -11    1    4    4    0    0 -0.11607989943E+02  0.14794328871E+01  0.94283011831E+01  0.15027541903E+02  0.51100000000E-03 0. -1.
         12    1    4    4    0    0  0.14966827176E+02 -0.64774934395E+00  0.26873479196E+02  0.30767017714E+02  0.00000000000E+00 0. -1.
</event>
<event>
 8    1  0.1238315E-006  0.9118800E+02  0.7816164E-02  0.1184000E+00
        -11   -1    0    0    0    0  0.00000000000E+00  0.00000000000E+00  0.45593999997E+02  0.45594000000E+02  0.51100000000E-03 0. -1.
         11   -1    0    0    0    0 -0.00000000000E+00 -0.00000000000E+00 -0.45593999997E+02  0.45594000000E+02  0.51100000000E-03 0.  1.
         23    2    1    2    0    0  0.00000000000E+00  0.00000000000E+00  0.35527136788E-14  0.91188000000E+02  0.91188000000E+02 0.  0.
    9900012    2    3    3    0    0 -0.26748390047E+02 -0.38157533918E+01 -0.25015047137E+02  0.54366960806E+02  0.39999718748E+02 0.  0.
         12    1    3    3    0    0  0.26748390047E+02  0.38157533918E+01  0.25015047137E+02  0.36821039194E+02  0.00000000000E+00 0. -1.
         11    1    4    4    0    0 -0.60467586184E+01 -0.52281008798E+00 -0.18557738581E+02  0.19525016816E+02  0.51100000000E-03 0. -1.
        -11    1    4    4    0    0 -0.99963015917E+01 -0.64016389127E+01 -0.16168192454E+02  0.20057853170E+02  0.51100000000E-03 0.  1.
        -12    1    4    4    0    0 -0.10705329837E+02  0.31086956088E+01  0.97108838977E+01  0.14784090820E+02  0.00000000000E+00 0.  1.
</event>
<event>
 8    1  0.1238315E-006  0.9118800E+02  0.7816164E-02  0.1184000E+00
        -11   -1    0    0    0    0  0.00000000000E+00  0.00000000000E+00  0.45593999997E+02  0.45594000000E+02  0.51100000000E-03 0.  1.
         11   -1    0    0    0    0 -0.00000000000E+00 -0.00000000000E+00 -0.45593999997E+02  0.45594000000E+02  0.51100000000E-03 0. -1.
         23    2    1    2    0    0  0.00000000000E+00  0.71054273576E-14  0.00000000000E+00  0.91188000000E+02  0.91188000000E+02 0.  0.
    9900012    2    3    3    0    0 -0.15467707107E+02  0.33099680745E+02  0.45764648236E+01  0.54367043211E+02  0.39999906608E+02 0.  0.
         12    1    3    3    0    0  0.15467707107E+02 -0.33099680745E+02 -0.45764648236E+01  0.36820956789E+02  0.00000000000E+00 0. -1.
         11    1    4    4    0    0 -0.14807874655E+01 -0.59079627217E+01 -0.96123617636E-02  0.60907181595E+01  0.51100000000E-03 0. -1.
        -11    1    4    4    0    0 -0.12315124786E+02  0.67861189477E+01 -0.44876780275E+01  0.14759842926E+02  0.51100000000E-03 0.  1.
        -12    1    4    4    0    0 -0.16717948551E+01  0.32221524519E+02  0.90737552129E+01  0.33516482125E+02  0.00000000000E+00 0.  1.
</event>
<event>
 8    1  0.1238315E-006  0.9118800E+02  0.7816164E-02  0.1184000E+00
        -11   -1    0    0    0    0  0.00000000000E+00  0.00000000000E+00  0.45593999997E+02  0.45594000000E+02  0.51100000000E-03 0.  1.
         11   -1    0    0    0    0 -0.00000000000E+00 -0.00000000000E+00 -0.45593999997E+02  0.45594000000E+02  0.51100000000E-03 0. -1.
         23    2    1    2    0    0  0.00000000000E+00  0.00000000000E+00  0.00000000000E+00  0.91188000000E+02  0.91188000000E+02 0.  0.
    9900012    2    3    3    0    0  0.89094655353E+01  0.32367786296E+02  0.15123748227E+02  0.54367083034E+02  0.39999997392E+02 0.  0.
        -12    1    3    3    0    0 -0.89094655353E+01 -0.32367786296E+02 -0.15123748227E+02  0.36820916966E+02  0.00000000000E+00 0.  1.
         11    1    4    4    0    0  0.92786579426E+01  0.25496652409E+02  0.22140085426E+02  0.35019368358E+02  0.51100000000E-03 0. -1.
        -11    1    4    4    0    0 -0.29946584239E+00  0.12042526516E+02 -0.74398954657E+01  0.14158536983E+02  0.51100000000E-03 0.  1.
        -12    1    4    4    0    0 -0.69726564887E-01 -0.51713926296E+01  0.42355826605E+00  0.51891776928E+01  0.00000000000E+00 0.  1.
</event>
<event>
 8    1  0.1238315E-006  0.9118800E+02  0.7816164E-02  0.1184000E+00
        -11   -1    0    0    0    0  0.00000000000E+00  0.00000000000E+00  0.45593999997E+02  0.45594000000E+02  0.51100000000E-03 0.  1.
         11   -1    0    0    0    0 -0.00000000000E+00 -0.00000000000E+00 -0.45593999997E+02  0.45594000000E+02  0.51100000000E-03 0. -1.
         23    2    1    2    0    0  0.00000000000E+00  0.00000000000E+00  0.00000000000E+00  0.91188000000E+02  0.91188000000E+02 0.  0.
    9900012    2    3    3    0    0  0.16630868031E+02 -0.20806432791E+02  0.25422263339E+02  0.54367015627E+02  0.39999843725E+02 0.  0.
         12    1    3    3    0    0 -0.16630868031E+02  0.20806432791E+02 -0.25422263339E+02  0.36820984373E+02  0.00000000000E+00 0. -1.
         11    1    4    4    0    0  0.30857311353E+01 -0.42361629668E+01 -0.25289336173E+01  0.58191338550E+01  0.51100000000E-03 0. -1.
        -11    1    4    4    0    0 -0.38343276167E+01 -0.20760773602E+02  0.10555471898E+02  0.23603596677E+02  0.51100000000E-03 0.  1.
        -12    1    4    4    0    0  0.17379464512E+02  0.41905037778E+01  0.17395725058E+02  0.24944285096E+02  0.00000000000E+00 0.  1.
</event>
<event>
 8    1  0.1238315E-006  0.9118800E+02  0.7816164E-02  0.1184000E+00
        -11   -1    0    0    0    0  0.00000000000E+00  0.00000000000E+00  0.45593999997E+02  0.45594000000E+02  0.51100000000E-03 0. -1.
         11   -1    0    0    0    0 -0.00000000000E+00 -0.00000000000E+00 -0.45593999997E+02  0.45594000000E+02  0.51100000000E-03 0.  1.
         23    2    1    2    0    0  0.00000000000E+00  0.00000000000E+00  0.00000000000E+00  0.91188000000E+02  0.91188000000E+02 0.  0.
    9900012    2    3    3    0    0 -0.17114328201E+02  0.32212238613E+02  0.50249912117E+01  0.54367094485E+02  0.40000023498E+02 0.  0.
         12    1    3    3    0    0  0.17114328201E+02 -0.32212238613E+02 -0.50249912117E+01  0.36820905515E+02  0.00000000000E+00 0. -1.
         11    1    4    4    0    0 -0.35645194821E+01 -0.36758619996E+01 -0.77517493956E+01  0.92901765070E+01  0.51100000000E-03 0. -1.
        -11    1    4    4    0    0  0.88845358221E+00  0.24173413430E+02  0.40063278977E+01  0.24519256313E+02  0.51100000000E-03 0.  1.
         12    1    4    4    0    0 -0.14438262301E+02  0.11714687183E+02  0.87704127096E+01  0.20557661666E+02  0.00000000000E+00 0. -1.
</event>
<event>
 8    1  0.1238315E-006  0.9118800E+02  0.7816164E-02  0.1184000E+00
        -11   -1    0    0    0    0  0.00000000000E+00  0.00000000000E+00  0.45593999997E+02  0.45594000000E+02  0.51100000000E-03 0.  1.
         11   -1    0    0    0    0 -0.00000000000E+00 -0.00000000000E+00 -0.45593999997E+02  0.45594000000E+02  0.51100000000E-03 0. -1.
         23    2    1    2    0    0  0.00000000000E+00  0.00000000000E+00 -0.17763568394E-14  0.91188000000E+02  0.91188000000E+02 0.  0.
    9900012    2    3    3    0    0 -0.26572734473E+02  0.21105512612E+02 -0.14290906225E+02  0.54367042914E+02  0.39999905930E+02 0.  0.
         12    1    3    3    0    0  0.26572734473E+02 -0.21105512612E+02  0.14290906225E+02  0.36820957086E+02  0.00000000000E+00 0. -1.
         11    1    4    4    0    0  0.18138347029E+00 -0.41006612958E+01  0.83324586798E+01  0.92886054356E+01  0.51100000000E-03 0. -1.
        -11    1    4    4    0    0 -0.15868462676E+02  0.82960280227E+01 -0.56916353599E+01  0.18789010138E+02  0.51100000000E-03 0.  1.
         12    1    4    4    0    0 -0.10885655268E+02  0.16910145885E+02 -0.16931729545E+02  0.26289427340E+02  0.00000000000E+00 0. -1.
</event>
<event>
 8    1  0.1238315E-006  0.9118800E+02  0.7816164E-02  0.1184000E+00
        -11   -1    0    0    0    0  0.00000000000E+00  0.00000000000E+00  0.45593999997E+02  0.45594000000E+02  0.51100000000E-03 0. -1.
         11   -1    0    0    0    0 -0.00000000000E+00 -0.00000000000E+00 -0.45593999997E+02  0.45594000000E+02  0.51100000000E-03 0.  1.
         23    2    1    2    0    0  0.00000000000E+00  0.00000000000E+00  0.00000000000E+00  0.91188000000E+02  0.91188000000E+02 0.  0.
    9900012    2    3    3    0    0 -0.18705756360E+02 -0.83579649098E+01  0.30594417351E+02  0.54367091925E+02  0.40000017661E+02 0.  0.
        -12    1    3    3    0    0  0.18705756360E+02  0.83579649098E+01 -0.30594417351E+02  0.36820908075E+02  0.00000000000E+00 0.  1.
         11    1    4    4    0    0 -0.81275572664E+01  0.83845543068E+01  0.25006489280E+02  0.27598594972E+02  0.51100000000E-03 0. -1.
        -11    1    4    4    0    0 -0.87280236423E+01 -0.19047990314E+02  0.85074597574E+01  0.22613739264E+02  0.51100000000E-03 0.  1.
        -12    1    4    4    0    0 -0.18501754513E+01  0.23054710978E+01 -0.29195316865E+01  0.41547576887E+01  0.00000000000E+00 0.  1.
</event>
<event>
 8    1  0.1238315E-006  0.9118800E+02  0.7816164E-02  0.1184000E+00
        -11   -1    0    0    0    0  0.00000000000E+00  0.00000000000E+00  0.45593999997E+02  0.45594000000E+02  0.51100000000E-03 0.  1.
         11   -1    0    0    0    0 -0.00000000000E+00 -0.00000000000E+00 -0.45593999997E+02  0.45594000000E+02  0.51100000000E-03 0. -1.
         23    2    1    2    0    0  0.88817841970E-15  0.00000000000E+00  0.00000000000E+00  0.91188000000E+02  0.91188000000E+02 0.  0.
    9900012    2    3    3    0    0  0.65813869222E+01  0.53855458248E+01  0.35825416575E+02  0.54367092482E+02  0.40000018931E+02 0.  0.
         12    1    3    3    0    0 -0.65813869222E+01 -0.53855458248E+01 -0.35825416575E+02  0.36820907518E+02  0.00000000000E+00 0. -1.
         11    1    4    4    0    0 -0.37723801720E+01  0.20568347980E+01 -0.37893517527E+01  0.57289273443E+01  0.51100000000E-03 0. -1.
        -11    1    4    4    0    0  0.16169770100E+02  0.10070100169E+02  0.29975083172E+02  0.35515827372E+02  0.51100000000E-03 0.  1.
        -12    1    4    4    0    0 -0.58160030057E+01 -0.67413891421E+01  0.96396851556E+01  0.13122337765E+02  0.00000000000E+00 0.  1.
</event>
<event>
 8    1  0.1238315E-006  0.9118800E+02  0.7816164E-02  0.1184000E+00
        -11   -1    0    0    0    0  0.00000000000E+00  0.00000000000E+00  0.45593999997E+02  0.45594000000E+02  0.51100000000E-03 0.  1.
         11   -1    0    0    0    0 -0.00000000000E+00 -0.00000000000E+00 -0.45593999997E+02  0.45594000000E+02  0.51100000000E-03 0. -1.
         23    2    1    2    0    0  0.00000000000E+00  0.00000000000E+00  0.88817841970E-15  0.91188000000E+02  0.91188000000E+02 0.  0.
    9900012    2    3    3    0    0 -0.35020669621E+02 -0.83849974223E+01  0.76824060641E+01  0.54367152028E+02  0.40000154678E+02 0.  0.
         12    1    3    3    0    0  0.35020669621E+02  0.83849974223E+01 -0.76824060641E+01  0.36820847972E+02  0.00000000000E+00 0. -1.
         11    1    4    4    0    0 -0.10023255464E+01  0.76479985779E+00  0.15530498854E+01  0.20003848457E+01  0.51100000000E-03 0. -1.
        -11    1    4    4    0    0 -0.40083004104E+02 -0.11121647664E+02  0.12417108833E+02  0.43411091403E+02  0.51100000000E-03 0.  1.
         12    1    4    4    0    0  0.60646600300E+01  0.19718503839E+01 -0.62877526542E+01  0.89556757789E+01  0.00000000000E+00 0. -1.
</event>
<event>
 8    1  0.1238315E-006  0.9118800E+02  0.7816164E-02  0.1184000E+00
        -11   -1    0    0    0    0  0.00000000000E+00  0.00000000000E+00  0.45593999997E+02  0.45594000000E+02  0.51100000000E-03 0. -1.
         11   -1    0    0    0    0 -0.00000000000E+00 -0.00000000000E+00 -0.45593999997E+02  0.45594000000E+02  0.51100000000E-03 0.  1.
         23    2    1    2    0    0 -0.71054273576E-14  0.00000000000E+00 -0.88817841970E-15  0.91188000000E+02  0.91188000000E+02 0.  0.
    9900012    2    3    3    0    0  0.32379942722E+02 -0.17041253372E+02  0.41123559527E+01  0.54367129849E+02  0.40000104117E+02 0.  0.
         12    1    3    3    0    0 -0.32379942722E+02  0.17041253372E+02 -0.41123559527E+01  0.36820870151E+02  0.00000000000E+00 0. -1.
         11    1    4    4    0    0 -0.95550354909E+00  0.55237738765E+01  0.66005201521E+01  0.86597881851E+01  0.51100000000E-03 0. -1.
        -11    1    4    4    0    0  0.69660658424E+01 -0.15072500612E+02  0.49068109289E+01  0.17314246786E+02  0.51100000000E-03 0.  1.
        -12    1    4    4    0    0  0.26369380429E+02 -0.74925266363E+01 -0.73949751283E+01  0.28393094878E+02  0.00000000000E+00 0.  1.
</event>
<event>
 8    1  0.1238315E-006  0.9118800E+02  0.7816164E-02  0.1184000E+00
        -11   -1    0    0    0    0  0.00000000000E+00  0.00000000000E+00  0.45593999997E+02  0.45594000000E+02  0.51100000000E-03 0. -1.
         11   -1    0    0    0    0 -0.00000000000E+00 -0.00000000000E+00 -0.45593999997E+02  0.45594000000E+02  0.51100000000E-03 0.  1.
         23    2    1    2    0    0  0.00000000000E+00 -0.17763568394E-14 -0.35527136788E-14  0.91188000000E+02  0.91188000000E+02 0.  0.
    9900012    2    3    3    0    0 -0.25733117393E+02 -0.10519375876E+02 -0.24143912853E+02  0.54367093881E+02  0.40000022120E+02 0.  0.
        -12    1    3    3    0    0  0.25733117393E+02  0.10519375876E+02  0.24143912853E+02  0.36820906119E+02  0.00000000000E+00 0.  1.
         11    1    4    4    0    0 -0.14549794757E+02  0.39279953079E+01 -0.20146027590E+02  0.25159254809E+02  0.51100000000E-03 0. -1.
        -11    1    4    4    0    0  0.14988030635E+01  0.45286208368E+01 -0.42408699091E+01  0.63827733121E+01  0.51100000000E-03 0.  1.
         12    1    4    4    0    0 -0.12682125700E+02 -0.18975992020E+02  0.24298464610E+00  0.22825065760E+02  0.00000000000E+00 0. -1.
</event>
<event>
 8    1  0.1238315E-006  0.9118800E+02  0.7816164E-02  0.1184000E+00
        -11   -1    0    0    0    0  0.00000000000E+00  0.00000000000E+00  0.45593999997E+02  0.45594000000E+02  0.51100000000E-03 0. -1.
         11   -1    0    0    0    0 -0.00000000000E+00 -0.00000000000E+00 -0.45593999997E+02  0.45594000000E+02  0.51100000000E-03 0.  1.
         23    2    1    2    0    0 -0.17763568394E-14  0.88817841970E-15  0.71054273576E-14  0.91188000000E+02  0.91188000000E+02 0.  0.
    9900012    2    3    3    0    0 -0.88889599562E+01 -0.65341683760E+01  0.35129350166E+02  0.54367079200E+02  0.39999988652E+02 0.  0.
        -12    1    3    3    0    0  0.88889599562E+01  0.65341683760E+01 -0.35129350166E+02  0.36820920800E+02  0.00000000000E+00 0.  1.
         11    1    4    4    0    0 -0.37989617841E+01 -0.13690278157E+00  0.30980726914E+02  0.31213078883E+02  0.51100000000E-03 0. -1.
        -11    1    4    4    0    0 -0.44402780813E+01 -0.13113775387E+02  0.73612485494E+01  0.15680406717E+02  0.51100000000E-03 0.  1.
        -12    1    4    4    0    0 -0.64972009081E+00  0.67165097926E+01 -0.32126252971E+01  0.74735935995E+01  0.00000000000E+00 0.  1.
</event>
<event>
 8    1  0.1238315E-006  0.9118800E+02  0.7816164E-02  0.1184000E+00
        -11   -1    0    0    0    0  0.00000000000E+00  0.00000000000E+00  0.45593999997E+02  0.45594000000E+02  0.51100000000E-03 0. -1.
         11   -1    0    0    0    0 -0.00000000000E+00 -0.00000000000E+00 -0.45593999997E+02  0.45594000000E+02  0.51100000000E-03 0.  1.
         23    2    1    2    0    0  0.13322676296E-14  0.00000000000E+00  0.00000000000E+00  0.91188000000E+02  0.91188000000E+02 0.  0.
    9900012    2    3    3    0    0 -0.18017839646E+01 -0.29912154116E+02  0.21396167523E+02  0.54367090533E+02  0.40000014487E+02 0.  0.
        -12    1    3    3    0    0  0.18017839646E+01  0.29912154116E+02 -0.21396167523E+02  0.36820909467E+02  0.00000000000E+00 0.  1.
         11    1    4    4    0    0 -0.10016078726E+02  0.33535502754E+01  0.12712815080E+02  0.16528272747E+02  0.51100000000E-03 0. -1.
        -11    1    4    4    0    0  0.12397514229E+01 -0.23325078784E+02  0.10411143544E+02  0.25573192879E+02  0.51100000000E-03 0.  1.
        -12    1    4    4    0    0  0.69745433388E+01 -0.99406256077E+01 -0.17277911007E+01  0.12265624906E+02  0.00000000000E+00 0.  1.
</event>
<event>
 8    1  0.1238315E-006  0.9118800E+02  0.7816164E-02  0.1184000E+00
        -11   -1    0    0    0    0  0.00000000000E+00  0.00000000000E+00  0.45593999997E+02  0.45594000000E+02  0.51100000000E-03 0.  1.
         11   -1    0    0    0    0 -0.00000000000E+00 -0.00000000000E+00 -0.45593999997E+02  0.45594000000E+02  0.51100000000E-03 0. -1.
         23    2    1    2    0    0  0.00000000000E+00  0.00000000000E+00 -0.13322676296E-14  0.91188000000E+02  0.91188000000E+02 0.  0.
    9900012    2    3    3    0    0  0.24520295159E+02  0.27412820476E+02  0.17538878448E+01  0.54367031467E+02  0.39999879836E+02 0.  0.
        -12    1    3    3    0    0 -0.24520295159E+02 -0.27412820476E+02 -0.17538878448E+01  0.36820968533E+02  0.00000000000E+00 0.  1.
         11    1    4    4    0    0  0.14575888937E+02  0.11662682999E+02 -0.14183425736E+02  0.23444493573E+02  0.51100000000E-03 0. -1.
        -11    1    4    4    0    0  0.11892001346E+02  0.15892347570E+01  0.53609015219E+01  0.13140952344E+02  0.51100000000E-03 0.  1.
        -12    1    4    4    0    0 -0.19475951239E+01  0.14160902720E+02  0.10576412059E+02  0.17781585550E+02  0.00000000000E+00 0.  1.
</event>
<event>
 8    1  0.1238315E-006  0.9118800E+02  0.7816164E-02  0.1184000E+00
        -11   -1    0    0    0    0  0.00000000000E+00  0.00000000000E+00  0.45593999997E+02  0.45594000000E+02  0.51100000000E-03 0. -1.
         11   -1    0    0    0    0 -0.00000000000E+00 -0.00000000000E+00 -0.45593999997E+02  0.45594000000E+02  0.51100000000E-03 0.  1.
         23    2    1    2    0    0  0.00000000000E+00  0.00000000000E+00  0.71054273576E-14  0.91188000000E+02  0.91188000000E+02 0.  0.
    9900012    2    3    3    0    0 -0.10205852394E+02  0.48498875449E+01 -0.35044241536E+02  0.54367086145E+02  0.40000004484E+02 0.  0.
         12    1    3    3    0    0  0.10205852394E+02 -0.48498875449E+01  0.35044241536E+02  0.36820913855E+02  0.00000000000E+00 0. -1.
         11    1    4    4    0    0 -0.20462654537E+01 -0.71923607114E+00 -0.12166532885E+02  0.12358358529E+02  0.51100000000E-03 0. -1.
        -11    1    4    4    0    0 -0.11694838884E+02  0.24900951323E+01 -0.30668046683E+02  0.32916544744E+02  0.51100000000E-03 0.  1.
         12    1    4    4    0    0  0.35352519439E+01  0.30790284837E+01  0.77903380320E+01  0.90921828712E+01  0.00000000000E+00 0. -1.
</event>
<event>
 8    1  0.1238315E-006  0.9118800E+02  0.7816164E-02  0.1184000E+00
        -11   -1    0    0    0    0  0.00000000000E+00  0.00000000000E+00  0.45593999997E+02  0.45594000000E+02  0.51100000000E-03 0.  1.
         11   -1    0    0    0    0 -0.00000000000E+00 -0.00000000000E+00 -0.45593999997E+02  0.45594000000E+02  0.51100000000E-03 0. -1.
         23    2    1    2    0    0 -0.26645352591E-14  0.00000000000E+00 -0.35527136788E-14  0.91188000000E+02  0.91188000000E+02 0.  0.
    9900012    2    3    3    0    0  0.78645446049E+01  0.24583178979E+02  0.26260148582E+02  0.54367093519E+02  0.40000021295E+02 0.  0.
         12    1    3    3    0    0 -0.78645446049E+01 -0.24583178979E+02 -0.26260148582E+02  0.36820906481E+02  0.00000000000E+00 0. -1.
         11    1    4    4    0    0  0.21698566361E+02  0.93974994893E+01  0.13009426126E+02  0.26988626255E+02  0.51100000000E-03 0. -1.
        -11    1    4    4    0    0 -0.47558349334E+01  0.30069519317E+01  0.10540953291E+02  0.11948699610E+02  0.51100000000E-03 0.  1.
         12    1    4    4    0    0 -0.90781868226E+01  0.12178727558E+02  0.27097691655E+01  0.15429767653E+02  0.00000000000E+00 0. -1.
</event>
<event>
 8    1  0.1238315E-006  0.9118800E+02  0.7816164E-02  0.1184000E+00
        -11   -1    0    0    0    0  0.00000000000E+00  0.00000000000E+00  0.45593999997E+02  0.45594000000E+02  0.51100000000E-03 0.  1.
         11   -1    0    0    0    0 -0.00000000000E+00 -0.00000000000E+00 -0.45593999997E+02  0.45594000000E+02  0.51100000000E-03 0. -1.
         23    2    1    2    0    0  0.00000000000E+00  0.00000000000E+00  0.00000000000E+00  0.91188000000E+02  0.91188000000E+02 0.  0.
    9900012    2    3    3    0    0 -0.31097583404E+02 -0.27295760159E+01 -0.19526127774E+02  0.54367082784E+02  0.39999996823E+02 0.  0.
        -12    1    3    3    0    0  0.31097583404E+02  0.27295760159E+01  0.19526127774E+02  0.36820917216E+02  0.00000000000E+00 0.  1.
         11    1    4    4    0    0 -0.14555250242E+02  0.50881058152E+00 -0.21100048639E+02  0.25638374571E+02  0.51100000000E-03 0. -1.
        -11    1    4    4    0    0 -0.24796898040E+01 -0.62853592931E+01 -0.87238290808E+01  0.11034482184E+02  0.51100000000E-03 0.  1.
        -12    1    4    4    0    0 -0.14062643358E+02  0.30469726957E+01  0.10297749946E+02  0.17694226030E+02  0.00000000000E+00 0.  1.
</event>
<event>
 8    1  0.1238315E-006  0.9118800E+02  0.7816164E-02  0.1184000E+00
        -11   -1    0    0    0    0  0.00000000000E+00  0.00000000000E+00  0.45593999997E+02  0.45594000000E+02  0.51100000000E-03 0.  1.
         11   -1    0    0    0    0 -0.00000000000E+00 -0.00000000000E+00 -0.45593999997E+02  0.45594000000E+02  0.51100000000E-03 0. -1.
         23    2    1    2    0    0 -0.17763568394E-14  0.35527136788E-14 -0.35527136788E-14  0.91188000000E+02  0.91188000000E+02 0.  0.
    9900012    2    3    3    0    0  0.14880032674E+02  0.19167048479E+02 -0.27694496181E+02  0.54367133111E+02  0.40000111552E+02 0.  0.
        -12    1    3    3    0    0 -0.14880032674E+02 -0.19167048479E+02  0.27694496181E+02  0.36820866889E+02  0.00000000000E+00 0.  1.
         11    1    4    4    0    0  0.18512340391E+02  0.84470509729E+01 -0.25655078407E+02  0.32745113608E+02  0.51100000000E-03 0. -1.
        -11    1    4    4    0    0  0.23578371445E-01  0.12798570840E+02 -0.74192145092E+01  0.14793536281E+02  0.51100000000E-03 0.  1.
        -12    1    4    4    0    0 -0.36558860879E+01 -0.20785733342E+01  0.53797967358E+01  0.68284832219E+01  0.00000000000E+00 0.  1.
</event>
<event>
 8    1  0.1238315E-006  0.9118800E+02  0.7816164E-02  0.1184000E+00
        -11   -1    0    0    0    0  0.00000000000E+00  0.00000000000E+00  0.45593999997E+02  0.45594000000E+02  0.51100000000E-03 0.  1.
         11   -1    0    0    0    0 -0.00000000000E+00 -0.00000000000E+00 -0.45593999997E+02  0.45594000000E+02  0.51100000000E-03 0. -1.
         23    2    1    2    0    0  0.00000000000E+00  0.00000000000E+00  0.00000000000E+00  0.91188000000E+02  0.91188000000E+02 0.  0.
    9900012    2    3    3    0    0  0.14731674805E+02 -0.17294640920E+02  0.28976767311E+02  0.54367083514E+02  0.39999998487E+02 0.  0.
         12    1    3    3    0    0 -0.14731674805E+02  0.17294640920E+02 -0.28976767311E+02  0.36820916486E+02  0.00000000000E+00 0. -1.
         11    1    4    4    0    0  0.21475881805E+02 -0.57172686017E+01  0.47839731358E+01  0.22732950948E+02  0.51100000000E-03 0.  1.
        -11    1    4    4    0    0 -0.72631952712E+01 -0.11323618802E+02  0.84623230960E+01  0.15893056998E+02  0.51100000000E-03 0. -1.
        -12    1    4    4    0    0  0.51898827100E+00 -0.25375351695E+00  0.15730471079E+02  0.15741075568E+02  0.00000000000E+00 0.  1.
</event>
<event>
 8    1  0.1238315E-006  0.9118800E+02  0.7816164E-02  0.1184000E+00
        -11   -1    0    0    0    0  0.00000000000E+00  0.00000000000E+00  0.45593999997E+02  0.45594000000E+02  0.51100000000E-03 0.  1.
         11   -1    0    0    0    0 -0.00000000000E+00 -0.00000000000E+00 -0.45593999997E+02  0.45594000000E+02  0.51100000000E-03 0. -1.
         23    2    1    2    0    0  0.00000000000E+00  0.66613381478E-15  0.00000000000E+00  0.91188000000E+02  0.91188000000E+02 0.  0.
    9900012    2    3    3    0    0 -0.30553526685E+02  0.19080744206E+01  0.20460221782E+02  0.54367089959E+02  0.40000013180E+02 0.  0.
         12    1    3    3    0    0  0.30553526685E+02 -0.19080744206E+01 -0.20460221782E+02  0.36820910041E+02  0.00000000000E+00 0. -1.
         11    1    4    4    0    0 -0.30520752335E+00  0.96802460499E+01  0.11361616407E+02  0.14929388563E+02  0.51100000000E-03 0. -1.
        -11    1    4    4    0    0 -0.33432663230E+02 -0.44931081553E+01  0.87726839008E+01  0.34855286179E+02  0.51100000000E-03 0.  1.
         12    1    4    4    0    0  0.31843440689E+01 -0.32790634740E+01  0.32592147427E+00  0.45824152172E+01  0.00000000000E+00 0. -1.
</event>
<event>
 8    1  0.1238315E-006  0.9118800E+02  0.7816164E-02  0.1184000E+00
        -11   -1    0    0    0    0  0.00000000000E+00  0.00000000000E+00  0.45593999997E+02  0.45594000000E+02  0.51100000000E-03 0.  1.
         11   -1    0    0    0    0 -0.00000000000E+00 -0.00000000000E+00 -0.45593999997E+02  0.45594000000E+02  0.51100000000E-03 0. -1.
         23    2    1    2    0    0 -0.46490589156E-14 -0.35527136788E-14  0.00000000000E+00  0.91188000000E+02  0.91188000000E+02 0.  0.
    9900012    2    3    3    0    0  0.49617139441E-01  0.21830358776E+02  0.29651524516E+02  0.54367082952E+02  0.39999997205E+02 0.  0.
         12    1    3    3    0    0 -0.49617139441E-01 -0.21830358776E+02 -0.29651524516E+02  0.36820917048E+02  0.00000000000E+00 0. -1.
         11    1    4    4    0    0 -0.17955856968E+02  0.11178745249E+02  0.21084458263E+02  0.29865222673E+02  0.51100000000E-03 0. -1.
        -11    1    4    4    0    0  0.27551336678E+01  0.59852483251E+01  0.46941497209E+01  0.80900556799E+01  0.51100000000E-03 0.  1.
         12    1    4    4    0    0  0.15250340440E+02  0.46663652019E+01  0.38729165323E+01  0.16411804599E+02  0.00000000000E+00 0. -1.
</event>
<event>
 8    1  0.1238315E-006  0.9118800E+02  0.7816164E-02  0.1184000E+00
        -11   -1    0    0    0    0  0.00000000000E+00  0.00000000000E+00  0.45593999997E+02  0.45594000000E+02  0.51100000000E-03 0.  1.
         11   -1    0    0    0    0 -0.00000000000E+00 -0.00000000000E+00 -0.45593999997E+02  0.45594000000E+02  0.51100000000E-03 0. -1.
         23    2    1    2    0    0 -0.44408920985E-15  0.71054273576E-14 -0.17763568394E-14  0.91188000000E+02  0.91188000000E+02 0.  0.
    9900012    2    3    3    0    0  0.37996475595E+01  0.33978060017E+02 -0.13668685871E+02  0.54367097546E+02  0.40000030476E+02 0.  0.
        -12    1    3    3    0    0 -0.37996475595E+01 -0.33978060017E+02  0.13668685871E+02  0.36820902454E+02  0.00000000000E+00 0.  1.
         11    1    4    4    0    0 -0.60173810553E+01  0.14071522364E+02 -0.12603086659E+02  0.19825599864E+02  0.51100000000E-03 0. -1.
        -11    1    4    4    0    0  0.10466204317E+02  0.11489787094E+02  0.11548711711E+02  0.19363093315E+02  0.51100000000E-03 0.  1.
        -12    1    4    4    0    0 -0.64917570194E+00  0.84167505585E+01 -0.12614310923E+02  0.15178404367E+02  0.00000000000E+00 0.  1.
</event>
<event>
 8    1  0.1238315E-006  0.9118800E+02  0.7816164E-02  0.1184000E+00
        -11   -1    0    0    0    0  0.00000000000E+00  0.00000000000E+00  0.45593999997E+02  0.45594000000E+02  0.51100000000E-03 0.  1.
         11   -1    0    0    0    0 -0.00000000000E+00 -0.00000000000E+00 -0.45593999997E+02  0.45594000000E+02  0.51100000000E-03 0. -1.
         23    2    1    2    0    0  0.00000000000E+00  0.00000000000E+00  0.35527136788E-14  0.91188000000E+02  0.91188000000E+02 0.  0.
    9900012    2    3    3    0    0 -0.14962462174E+02 -0.14368420047E+02  0.30421253832E+02  0.54367089452E+02  0.40000012023E+02 0.  0.
         12    1    3    3    0    0  0.14962462174E+02  0.14368420047E+02 -0.30421253832E+02  0.36820910548E+02  0.00000000000E+00 0. -1.
         11    1    4    4    0    0 -0.41488478875E+01 -0.57251768990E+01 -0.74464216337E+01  0.10268387640E+02  0.51100000000E-03 0. -1.
        -11    1    4    4    0    0 -0.13196445976E+02 -0.10532532579E+02  0.20935587575E+02  0.26895710742E+02  0.51100000000E-03 0.  1.
         12    1    4    4    0    0  0.23828316902E+01  0.18892894316E+01  0.16932087890E+02  0.17202991069E+02  0.00000000000E+00 0. -1.
</event>
<event>
 8    1  0.1238315E-006  0.9118800E+02  0.7816164E-02  0.1184000E+00
        -11   -1    0    0    0    0  0.00000000000E+00  0.00000000000E+00  0.45593999997E+02  0.45594000000E+02  0.51100000000E-03 0. -1.
         11   -1    0    0    0    0 -0.00000000000E+00 -0.00000000000E+00 -0.45593999997E+02  0.45594000000E+02  0.51100000000E-03 0.  1.
         23    2    1    2    0    0 -0.44408920985E-15 -0.22204460493E-15 -0.71054273576E-14  0.91188000000E+02  0.91188000000E+02 0.  0.
    9900012    2    3    3    0    0  0.26117308851E+01  0.49535461870E+00  0.36724822788E+02  0.54367093938E+02  0.40000022250E+02 0.  0.
        -12    1    3    3    0    0 -0.26117308851E+01 -0.49535461870E+00 -0.36724822788E+02  0.36820906062E+02  0.00000000000E+00 0.  1.
         11    1    4    4    0    0 -0.73995086302E+01  0.11345057155E+02  0.20632953400E+02  0.24681608864E+02  0.51100000000E-03 0. -1.
        -11    1    4    4    0    0  0.29819541066E+01  0.49895482321E+01  0.95158477237E+01  0.11150739886E+02  0.51100000000E-03 0.  1.
         12    1    4    4    0    0  0.70292854086E+01 -0.15839250768E+02  0.65760216641E+01  0.18534745188E+02  0.00000000000E+00 0. -1.
</event>
<event>
 8    1  0.1238315E-006  0.9118800E+02  0.7816164E-02  0.1184000E+00
        -11   -1    0    0    0    0  0.00000000000E+00  0.00000000000E+00  0.45593999997E+02  0.45594000000E+02  0.51100000000E-03 0.  1.
         11   -1    0    0    0    0 -0.00000000000E+00 -0.00000000000E+00 -0.45593999997E+02  0.45594000000E+02  0.51100000000E-03 0. -1.
         23    2    1    2    0    0  0.00000000000E+00 -0.13322676296E-14  0.00000000000E+00  0.91188000000E+02  0.91188000000E+02 0.  0.
    9900012    2    3    3    0    0  0.96913820310E+01  0.17774184320E+01  0.35478125641E+02  0.54367088809E+02  0.40000010557E+02 0.  0.
         12    1    3    3    0    0 -0.96913820310E+01 -0.17774184320E+01 -0.35478125641E+02  0.36820911191E+02  0.00000000000E+00 0. -1.
         11    1    4    4    0    0  0.73298229129E+01  0.58473888435E+01  0.89340542296E+01  0.12951277368E+02  0.51100000000E-03 0. -1.
        -11    1    4    4    0    0  0.50928737670E+00  0.64032620295E+01 -0.49915854368E+01  0.81349286219E+01  0.51100000000E-03 0.  1.
        -12    1    4    4    0    0  0.18522717414E+01 -0.10473232441E+02  0.31535656848E+02  0.33280882819E+02  0.00000000000E+00 0.  1.
</event>
<event>
 8    1  0.1238315E-006  0.9118800E+02  0.7816164E-02  0.1184000E+00
        -11   -1    0    0    0    0  0.00000000000E+00  0.00000000000E+00  0.45593999997E+02  0.45594000000E+02  0.51100000000E-03 0. -1.
         11   -1    0    0    0    0 -0.00000000000E+00 -0.00000000000E+00 -0.45593999997E+02  0.45594000000E+02  0.51100000000E-03 0.  1.
         23    2    1    2    0    0 -0.35527136788E-14 -0.35527136788E-14  0.17763568394E-14  0.91188000000E+02  0.91188000000E+02 0.  0.
    9900012    2    3    3    0    0  0.29900436418E+02  0.20247107241E+02  0.71970886469E+01  0.54367088352E+02  0.40000009515E+02 0.  0.
        -12    1    3    3    0    0 -0.29900436418E+02 -0.20247107241E+02 -0.71970886469E+01  0.36820911648E+02  0.00000000000E+00 0.  1.
         11    1    4    4    0    0  0.55227129303E+00 -0.77752276035E+01 -0.19262822792E+01  0.80293045495E+01  0.51100000000E-03 0.  1.
        -11    1    4    4    0    0 -0.27687607635E+01  0.50478458902E+01  0.25884065870E+01  0.63124189672E+01  0.51100000000E-03 0. -1.
         12    1    4    4    0    0  0.32116925889E+02  0.22974488954E+02  0.65349643391E+01  0.40025364835E+02  0.00000000000E+00 0. -1.
</event>
<event>
 8    1  0.1238315E-006  0.9118800E+02  0.7816164E-02  0.1184000E+00
        -11   -1    0    0    0    0  0.00000000000E+00  0.00000000000E+00  0.45593999997E+02  0.45594000000E+02  0.51100000000E-03 0. -1.
         11   -1    0    0    0    0 -0.00000000000E+00 -0.00000000000E+00 -0.45593999997E+02  0.45594000000E+02  0.51100000000E-03 0.  1.
         23    2    1    2    0    0  0.35527136788E-14  0.00000000000E+00 -0.35527136788E-14  0.91188000000E+02  0.91188000000E+02 0.  0.
    9900012    2    3    3    0    0 -0.27109652564E+02  0.10453860876E+02  0.22617768861E+02  0.54367082880E+02  0.39999997041E+02 0.  0.
        -12    1    3    3    0    0  0.27109652564E+02 -0.10453860876E+02 -0.22617768861E+02  0.36820917120E+02  0.00000000000E+00 0.  1.
         11    1    4    4    0    0 -0.73170107064E+01  0.15855357425E+02  0.13468646834E+02  0.22053014591E+02  0.51100000000E-03 0. -1.
        -11    1    4    4    0    0  0.32946646877E+01  0.26982680191E+01 -0.27884365870E+01  0.50902695968E+01  0.51100000000E-03 0.  1.
         12    1    4    4    0    0 -0.23087306545E+02 -0.80997645676E+01  0.11937558614E+02  0.27223798692E+02  0.00000000000E+00 0. -1.
</event>
<event>
 8    1  0.1238315E-006  0.9118800E+02  0.7816164E-02  0.1184000E+00
        -11   -1    0    0    0    0  0.00000000000E+00  0.00000000000E+00  0.45593999997E+02  0.45594000000E+02  0.51100000000E-03 0.  1.
         11   -1    0    0    0    0 -0.00000000000E+00 -0.00000000000E+00 -0.45593999997E+02  0.45594000000E+02  0.51100000000E-03 0. -1.
         23    2    1    2    0    0  0.00000000000E+00  0.00000000000E+00  0.00000000000E+00  0.91188000000E+02  0.91188000000E+02 0.  0.
    9900012    2    3    3    0    0 -0.31589071018E+02 -0.18248844232E+02 -0.49890910348E+01  0.54367071808E+02  0.39999971801E+02 0.  0.
        -12    1    3    3    0    0  0.31589071018E+02  0.18248844232E+02  0.49890910348E+01  0.36820928192E+02  0.00000000000E+00 0.  1.
         11    1    4    4    0    0 -0.29653262612E+01 -0.39393806551E-01 -0.39930430650E+01  0.49738420650E+01  0.51100000000E-03 0.  1.
        -11    1    4    4    0    0  0.66948459058E+01 -0.10897726624E+02 -0.34357062005E+01  0.13243318490E+02  0.51100000000E-03 0. -1.
         12    1    4    4    0    0 -0.35318590663E+02 -0.73117238013E+01  0.24396582307E+01  0.36149911253E+02  0.00000000000E+00 0. -1.
</event>
<event>
 8    1  0.1238315E-006  0.9118800E+02  0.7816164E-02  0.1184000E+00
        -11   -1    0    0    0    0  0.00000000000E+00  0.00000000000E+00  0.45593999997E+02  0.45594000000E+02  0.51100000000E-03 0. -1.
         11   -1    0    0    0    0 -0.00000000000E+00 -0.00000000000E+00 -0.45593999997E+02  0.45594000000E+02  0.51100000000E-03 0.  1.
         23    2    1    2    0    0  0.00000000000E+00 -0.88817841970E-15  0.00000000000E+00  0.91188000000E+02  0.91188000000E+02 0.  0.
    9900012    2    3    3    0    0  0.73573866914E+01  0.55915287907E+01 -0.35642436895E+02  0.54367086907E+02  0.40000006222E+02 0.  0.
         12    1    3    3    0    0 -0.73573866914E+01 -0.55915287907E+01  0.35642436895E+02  0.36820913093E+02  0.00000000000E+00 0. -1.
         11    1    4    4    0    0 -0.35757349439E+01  0.78542532032E+01 -0.15935838263E+02  0.18122530595E+02  0.51100000000E-03 0. -1.
        -11    1    4    4    0    0 -0.52237625480E+01 -0.78188160263E+01 -0.16307272143E+02  0.18824152151E+02  0.51100000000E-03 0.  1.
         12    1    4    4    0    0  0.16156884183E+02  0.55560916138E+01 -0.33993264891E+01  0.17420404160E+02  0.00000000000E+00 0. -1.
</event>
<event>
 8    1  0.1238315E-006  0.9118800E+02  0.7816164E-02  0.1184000E+00
        -11   -1    0    0    0    0  0.00000000000E+00  0.00000000000E+00  0.45593999997E+02  0.45594000000E+02  0.51100000000E-03 0.  1.
         11   -1    0    0    0    0 -0.00000000000E+00 -0.00000000000E+00 -0.45593999997E+02  0.45594000000E+02  0.51100000000E-03 0. -1.
         23    2    1    2    0    0  0.17763568394E-14  0.00000000000E+00  0.00000000000E+00  0.91188000000E+02  0.91188000000E+02 0.  0.
    9900012    2    3    3    0    0 -0.75432158291E+01 -0.35510933244E+02 -0.61525316646E+01  0.54367080256E+02  0.39999991059E+02 0.  0.
        -12    1    3    3    0    0  0.75432158291E+01  0.35510933244E+02  0.61525316646E+01  0.36820919744E+02  0.00000000000E+00 0.  1.
         11    1    4    4    0    0 -0.97990225946E+01 -0.18238146915E+02  0.20507094433E+01  0.20805197816E+02  0.51100000000E-03 0. -1.
        -11    1    4    4    0    0  0.11939079208E+02 -0.54897235417E+01  0.43148156310E+01  0.13830990965E+02  0.51100000000E-03 0.  1.
        -12    1    4    4    0    0 -0.96832724420E+01 -0.11783062788E+02 -0.12518056739E+02  0.19730891474E+02  0.00000000000E+00 0.  1.
</event>
<event>
 8    1  0.1238315E-006  0.9118800E+02  0.7816164E-02  0.1184000E+00
        -11   -1    0    0    0    0  0.00000000000E+00  0.00000000000E+00  0.45593999997E+02  0.45594000000E+02  0.51100000000E-03 0.  1.
         11   -1    0    0    0    0 -0.00000000000E+00 -0.00000000000E+00 -0.45593999997E+02  0.45594000000E+02  0.51100000000E-03 0. -1.
         23    2    1    2    0    0  0.00000000000E+00  0.35527136788E-14  0.00000000000E+00  0.91188000000E+02  0.91188000000E+02 0.  0.
    9900012    2    3    3    0    0  0.29620924729E+02  0.17857692073E+02  0.12628652763E+02  0.54367092643E+02  0.40000019299E+02 0.  0.
         12    1    3    3    0    0 -0.29620924729E+02 -0.17857692073E+02 -0.12628652763E+02  0.36820907357E+02  0.00000000000E+00 0. -1.
         11    1    4    4    0    0 -0.29113716713E+01 -0.18299242111E+01 -0.26677330888E+01  0.43521842471E+01  0.51100000000E-03 0. -1.
        -11    1    4    4    0    0  0.31223460593E+01 -0.60975062543E+01 -0.21606059570E+01  0.71830944444E+01  0.51100000000E-03 0.  1.
        -12    1    4    4    0    0  0.29409950341E+02  0.25785122538E+02  0.17456991809E+02  0.42831813952E+02  0.00000000000E+00 0.  1.
</event>
<event>
 8    1  0.1238315E-006  0.9118800E+02  0.7816164E-02  0.1184000E+00
        -11   -1    0    0    0    0  0.00000000000E+00  0.00000000000E+00  0.45593999997E+02  0.45594000000E+02  0.51100000000E-03 0.  1.
         11   -1    0    0    0    0 -0.00000000000E+00 -0.00000000000E+00 -0.45593999997E+02  0.45594000000E+02  0.51100000000E-03 0. -1.
         23    2    1    2    0    0  0.00000000000E+00  0.00000000000E+00  0.00000000000E+00  0.91188000000E+02  0.91188000000E+02 0.  0.
    9900012    2    3    3    0    0  0.55723227664E+01  0.16255170956E+02  0.32565286827E+02  0.54367091946E+02  0.40000017709E+02 0.  0.
         12    1    3    3    0    0 -0.55723227664E+01 -0.16255170956E+02 -0.32565286827E+02  0.36820908054E+02  0.00000000000E+00 0. -1.
         11    1    4    4    0    0  0.12570465457E+02  0.84388091943E+00  0.30205360060E+02  0.32727549762E+02  0.51100000000E-03 0. -1.
        -11    1    4    4    0    0  0.10557563223E+01  0.11138101645E+02  0.48413274204E+01  0.12190585758E+02  0.51100000000E-03 0.  1.
         12    1    4    4    0    0 -0.80538990128E+01  0.42731883921E+01 -0.24814006537E+01  0.94489564263E+01  0.00000000000E+00 0. -1.
</event>
<event>
 8    1  0.1238315E-006  0.9118800E+02  0.7816164E-02  0.1184000E+00
        -11   -1    0    0    0    0  0.00000000000E+00  0.00000000000E+00  0.45593999997E+02  0.45594000000E+02  0.51100000000E-03 0.  1.
         11   -1    0    0    0    0 -0.00000000000E+00 -0.00000000000E+00 -0.45593999997E+02  0.45594000000E+02  0.51100000000E-03 0. -1.
         23    2    1    2    0    0 -0.71054273576E-14 -0.35527136788E-14 -0.35527136788E-14  0.91188000000E+02  0.91188000000E+02 0.  0.
    9900012    2    3    3    0    0  0.25840819418E+02  0.13984494745E+02  0.22191710306E+02  0.54366999908E+02  0.39999807891E+02 0.  0.
         12    1    3    3    0    0 -0.25840819418E+02 -0.13984494745E+02 -0.22191710306E+02  0.36821000092E+02  0.00000000000E+00 0. -1.
         11    1    4    4    0    0  0.72658280981E-01  0.15013842495E+02  0.60431305043E+00  0.15026175169E+02  0.51100000000E-03 0. -1.
        -11    1    4    4    0    0 -0.15368141348E+01 -0.29077873742E+00  0.92283275035E+01  0.93599347611E+01  0.51100000000E-03 0.  1.
        -12    1    4    4    0    0  0.27304975271E+02 -0.73856901193E+00  0.12359069752E+02  0.29980889978E+02  0.00000000000E+00 0.  1.
</event>
<event>
 8    1  0.1238315E-006  0.9118800E+02  0.7816164E-02  0.1184000E+00
        -11   -1    0    0    0    0  0.00000000000E+00  0.00000000000E+00  0.45593999997E+02  0.45594000000E+02  0.51100000000E-03 0. -1.
         11   -1    0    0    0    0 -0.00000000000E+00 -0.00000000000E+00 -0.45593999997E+02  0.45594000000E+02  0.51100000000E-03 0.  1.
         23    2    1    2    0    0  0.00000000000E+00  0.00000000000E+00  0.00000000000E+00  0.91188000000E+02  0.91188000000E+02 0.  0.
    9900012    2    3    3    0    0  0.10989208271E+02 -0.26722940340E+02 -0.22823303238E+02  0.54367062892E+02  0.39999951475E+02 0.  0.
         12    1    3    3    0    0 -0.10989208271E+02  0.26722940340E+02  0.22823303238E+02  0.36820937108E+02  0.00000000000E+00 0. -1.
         11    1    4    4    0    0 -0.59948829105E+01 -0.18868813770E+01 -0.15692753996E+01  0.64777749253E+01  0.51100000000E-03 0. -1.
        -11    1    4    4    0    0  0.13217580108E+02 -0.29322557396E+02 -0.25171099971E+02  0.40842393051E+02  0.51100000000E-03 0.  1.
        -12    1    4    4    0    0  0.37665110732E+01  0.44864984334E+01  0.39170721323E+01  0.70468949153E+01  0.00000000000E+00 0.  1.
</event>
<event>
 8    1  0.1238315E-006  0.9118800E+02  0.7816164E-02  0.1184000E+00
        -11   -1    0    0    0    0  0.00000000000E+00  0.00000000000E+00  0.45593999997E+02  0.45594000000E+02  0.51100000000E-03 0.  1.
         11   -1    0    0    0    0 -0.00000000000E+00 -0.00000000000E+00 -0.45593999997E+02  0.45594000000E+02  0.51100000000E-03 0. -1.
         23    2    1    2    0    0 -0.17763568394E-14 -0.35527136788E-14  0.35527136788E-14  0.91188000000E+02  0.91188000000E+02 0.  0.
    9900012    2    3    3    0    0  0.10383819530E+02 -0.18447585871E+02  0.30127115068E+02  0.54367079386E+02  0.39999989077E+02 0.  0.
         12    1    3    3    0    0 -0.10383819530E+02  0.18447585871E+02 -0.30127115068E+02  0.36820920614E+02  0.00000000000E+00 0. -1.
         11    1    4    4    0    0  0.12775649345E+02  0.51667014524E+01  0.22226994361E+02  0.26152462574E+02  0.51100000000E-03 0.  1.
        -11    1    4    4    0    0 -0.63297643757E+01 -0.59312635094E+01  0.45355966196E+01  0.97886383541E+01  0.51100000000E-03 0. -1.
         12    1    4    4    0    0  0.39379345606E+01 -0.17683023814E+02  0.33645240874E+01  0.18425978458E+02  0.00000000000E+00 0. -1.
</event>
<event>
 8    1  0.1238315E-006  0.9118800E+02  0.7816164E-02  0.1184000E+00
        -11   -1    0    0    0    0  0.00000000000E+00  0.00000000000E+00  0.45593999997E+02  0.45594000000E+02  0.51100000000E-03 0.  1.
         11   -1    0    0    0    0 -0.00000000000E+00 -0.00000000000E+00 -0.45593999997E+02  0.45594000000E+02  0.51100000000E-03 0. -1.
         23    2    1    2    0    0  0.26645352591E-14  0.17763568394E-14  0.00000000000E+00  0.91188000000E+02  0.91188000000E+02 0.  0.
    9900012    2    3    3    0    0 -0.45394513700E+01  0.15078923128E+02 -0.33283606541E+02  0.54367095533E+02  0.40000025886E+02 0.  0.
        -12    1    3    3    0    0  0.45394513700E+01 -0.15078923128E+02  0.33283606541E+02  0.36820904467E+02  0.00000000000E+00 0.  1.
         11    1    4    4    0    0 -0.98899400890E+01  0.10987537748E+02 -0.19477495375E+02  0.24452192684E+02  0.51100000000E-03 0. -1.
        -11    1    4    4    0    0  0.12399661354E+02  0.76218579814E+01 -0.64011537691E+00  0.14568941922E+02  0.51100000000E-03 0.  1.
        -12    1    4    4    0    0 -0.70491726350E+01 -0.35304726019E+01 -0.13165995789E+02  0.15345960926E+02  0.00000000000E+00 0.  1.
</event>
<event>
 8    1  0.1238315E-006  0.9118800E+02  0.7816164E-02  0.1184000E+00
        -11   -1    0    0    0    0  0.00000000000E+00  0.00000000000E+00  0.45593999997E+02  0.45594000000E+02  0.51100000000E-03 0.  1.
         11   -1    0    0    0    0 -0.00000000000E+00 -0.00000000000E+00 -0.45593999997E+02  0.45594000000E+02  0.51100000000E-03 0. -1.
         23    2    1    2    0    0 -0.35527136788E-14  0.35527136788E-14  0.13322676296E-14  0.91188000000E+02  0.91188000000E+02 0.  0.
    9900012    2    3    3    0    0  0.21451006302E+02 -0.29920420156E+02 -0.63495154765E+00  0.54367076910E+02  0.39999983432E+02 0.  0.
         12    1    3    3    0    0 -0.21451006302E+02  0.29920420156E+02  0.63495154765E+00  0.36820923090E+02  0.00000000000E+00 0. -1.
         11    1    4    4    0    0  0.59027121458E+01 -0.59919803848E+01  0.58635745546E+01  0.10253162752E+02  0.51100000000E-03 0. -1.
        -11    1    4    4    0    0  0.39046415075E+01 -0.10290030297E+02  0.13391210452E+02  0.17333651273E+02  0.51100000000E-03 0.  1.
         12    1    4    4    0    0  0.11643652649E+02 -0.13638409474E+02 -0.19889736554E+02  0.26780262885E+02  0.00000000000E+00 0. -1.
</event>
<event>
 8    1  0.1238315E-006  0.9118800E+02  0.7816164E-02  0.1184000E+00
        -11   -1    0    0    0    0  0.00000000000E+00  0.00000000000E+00  0.45593999997E+02  0.45594000000E+02  0.51100000000E-03 0. -1.
         11   -1    0    0    0    0 -0.00000000000E+00 -0.00000000000E+00 -0.45593999997E+02  0.45594000000E+02  0.51100000000E-03 0.  1.
         23    2    1    2    0    0  0.00000000000E+00 -0.88817841970E-15  0.00000000000E+00  0.91188000000E+02  0.91188000000E+02 0.  0.
    9900012    2    3    3    0    0 -0.93076662154E+01  0.59304563364E+01 -0.35128004101E+02  0.54367086990E+02  0.40000006412E+02 0.  0.
         12    1    3    3    0    0  0.93076662154E+01 -0.59304563364E+01  0.35128004101E+02  0.36820913010E+02  0.00000000000E+00 0. -1.
         11    1    4    4    0    0 -0.13838946883E+02 -0.12062469363E+02 -0.51865024138E+01  0.19076672286E+02  0.51100000000E-03 0. -1.
        -11    1    4    4    0    0  0.35570924671E+01  0.10312581940E+02 -0.18468622602E+02  0.21449761634E+02  0.51100000000E-03 0.  1.
         12    1    4    4    0    0  0.97418820039E+00  0.76803437595E+01 -0.11472879085E+02  0.13840653070E+02  0.00000000000E+00 0. -1.
</event>
<event>
 8    1  0.1238315E-006  0.9118800E+02  0.7816164E-02  0.1184000E+00
        -11   -1    0    0    0    0  0.00000000000E+00  0.00000000000E+00  0.45593999997E+02  0.45594000000E+02  0.51100000000E-03 0. -1.
         11   -1    0    0    0    0 -0.00000000000E+00 -0.00000000000E+00 -0.45593999997E+02  0.45594000000E+02  0.51100000000E-03 0.  1.
         23    2    1    2    0    0 -0.22204460493E-15  0.17763568394E-14 -0.71054273576E-14  0.91188000000E+02  0.91188000000E+02 0.  0.
    9900012    2    3    3    0    0 -0.12631594215E+01 -0.13734206626E+02  0.34140259886E+02  0.54367063721E+02  0.39999953366E+02 0.  0.
        -12    1    3    3    0    0  0.12631594215E+01  0.13734206626E+02 -0.34140259886E+02  0.36820936279E+02  0.00000000000E+00 0.  1.
         11    1    4    4    0    0  0.31897714614E+01 -0.44514380418E+01  0.20759534958E+02  0.21469705041E+02  0.51100000000E-03 0. -1.
        -11    1    4    4    0    0 -0.41698223748E+01 -0.27876351956E+01 -0.86107059830E+01  0.99650683093E+01  0.51100000000E-03 0.  1.
        -12    1    4    4    0    0 -0.28310850808E+00 -0.64951333885E+01  0.21991430910E+02  0.22932290371E+02  0.00000000000E+00 0.  1.
</event>
<event>
 8    1  0.1238315E-006  0.9118800E+02  0.7816164E-02  0.1184000E+00
        -11   -1    0    0    0    0  0.00000000000E+00  0.00000000000E+00  0.45593999997E+02  0.45594000000E+02  0.51100000000E-03 0.  1.
         11   -1    0    0    0    0 -0.00000000000E+00 -0.00000000000E+00 -0.45593999997E+02  0.45594000000E+02  0.51100000000E-03 0. -1.
         23    2    1    2    0    0  0.88817841970E-15  0.00000000000E+00 -0.35527136788E-14  0.91188000000E+02  0.91188000000E+02 0.  0.
    9900012    2    3    3    0    0 -0.47607686102E+01  0.26717202463E+02  0.24885863650E+02  0.54367081559E+02  0.39999994030E+02 0.  0.
         12    1    3    3    0    0  0.47607686102E+01 -0.26717202463E+02 -0.24885863650E+02  0.36820918441E+02  0.00000000000E+00 0. -1.
         11    1    4    4    0    0  0.18703591296E+01  0.52702237674E+01 -0.38883811478E+01  0.68112414466E+01  0.51100000000E-03 0. -1.
        -11    1    4    4    0    0 -0.18666693334E+01 -0.78623276217E+01  0.48633019355E+01  0.94314556675E+01  0.51100000000E-03 0.  1.
         12    1    4    4    0    0 -0.47644584063E+01  0.29309306317E+02  0.23910942863E+02  0.38124384445E+02  0.00000000000E+00 0. -1.
</event>
<event>
 8    1  0.1238315E-006  0.9118800E+02  0.7816164E-02  0.1184000E+00
        -11   -1    0    0    0    0  0.00000000000E+00  0.00000000000E+00  0.45593999997E+02  0.45594000000E+02  0.51100000000E-03 0. -1.
         11   -1    0    0    0    0 -0.00000000000E+00 -0.00000000000E+00 -0.45593999997E+02  0.45594000000E+02  0.51100000000E-03 0.  1.
         23    2    1    2    0    0  0.00000000000E+00  0.00000000000E+00  0.00000000000E+00  0.91188000000E+02  0.91188000000E+02 0.  0.
    9900012    2    3    3    0    0  0.16218014853E+02 -0.96417311152E+01  0.31619500517E+02  0.54367084780E+02  0.40000001373E+02 0.  0.
        -12    1    3    3    0    0 -0.16218014853E+02  0.96417311152E+01 -0.31619500517E+02  0.36820915220E+02  0.00000000000E+00 0.  1.
         11    1    4    4    0    0 -0.53107746586E+01  0.42176509257E+01  0.35018705471E+01  0.76325621121E+01  0.51100000000E-03 0.  1.
        -11    1    4    4    0    0  0.24367856209E+02 -0.27318189357E+01  0.24576693189E+02  0.34716985746E+02  0.51100000000E-03 0. -1.
        -12    1    4    4    0    0 -0.28390666975E+01 -0.11127563105E+02  0.35409367812E+01  0.12017536922E+02  0.00000000000E+00 0.  1.
</event>
<event>
 8    1  0.1238315E-006  0.9118800E+02  0.7816164E-02  0.1184000E+00
        -11   -1    0    0    0    0  0.00000000000E+00  0.00000000000E+00  0.45593999997E+02  0.45594000000E+02  0.51100000000E-03 0.  1.
         11   -1    0    0    0    0 -0.00000000000E+00 -0.00000000000E+00 -0.45593999997E+02  0.45594000000E+02  0.51100000000E-03 0. -1.
         23    2    1    2    0    0  0.00000000000E+00  0.71054273576E-14  0.00000000000E+00  0.91188000000E+02  0.91188000000E+02 0.  0.
    9900012    2    3    3    0    0 -0.99827160611E+01  0.34337131872E+02 -0.87798507146E+01  0.54367095289E+02  0.40000025330E+02 0.  0.
        -12    1    3    3    0    0  0.99827160611E+01 -0.34337131872E+02  0.87798507146E+01  0.36820904711E+02  0.00000000000E+00 0.  1.
         11    1    4    4    0    0 -0.13105120396E+02  0.33563644319E+02 -0.17345764820E+01  0.36073136215E+02  0.51100000000E-03 0. -1.
        -11    1    4    4    0    0 -0.62578237476E+01 -0.64180977829E+00  0.29766510462E+00  0.62976886731E+01  0.51100000000E-03 0.  1.
         12    1    4    4    0    0  0.93802280825E+01  0.14152973314E+01 -0.73429393372E+01  0.11996270401E+02  0.00000000000E+00 0. -1.
</event>
<event>
 8    1  0.1238315E-006  0.9118800E+02  0.7816164E-02  0.1184000E+00
        -11   -1    0    0    0    0  0.00000000000E+00  0.00000000000E+00  0.45593999997E+02  0.45594000000E+02  0.51100000000E-03 0.  1.
         11   -1    0    0    0    0 -0.00000000000E+00 -0.00000000000E+00 -0.45593999997E+02  0.45594000000E+02  0.51100000000E-03 0. -1.
         23    2    1    2    0    0 -0.71054273576E-14  0.00000000000E+00 -0.35527136788E-14  0.91188000000E+02  0.91188000000E+02 0.  0.
    9900012    2    3    3    0    0  0.25192377397E+02 -0.15057527051E+02  0.22234894168E+02  0.54367142889E+02  0.40000133843E+02 0.  0.
         12    1    3    3    0    0 -0.25192377397E+02  0.15057527051E+02 -0.22234894168E+02  0.36820857111E+02  0.00000000000E+00 0. -1.
         11    1    4    4    0    0  0.59618520452E+01 -0.16205653324E+02  0.23342969691E+02  0.29035514697E+02  0.51100000000E-03 0. -1.
        -11    1    4    4    0    0  0.20799530538E+02  0.47719448665E+01 -0.58211557653E+00  0.21347852052E+02  0.51100000000E-03 0.  1.
         12    1    4    4    0    0 -0.15690051863E+01 -0.36238185928E+01 -0.52595994681E+00  0.39837761401E+01  0.00000000000E+00 0. -1.
</event>
<event>
 8    1  0.1238315E-006  0.9118800E+02  0.7816164E-02  0.1184000E+00
        -11   -1    0    0    0    0  0.00000000000E+00  0.00000000000E+00  0.45593999997E+02  0.45594000000E+02  0.51100000000E-03 0.  1.
         11   -1    0    0    0    0 -0.00000000000E+00 -0.00000000000E+00 -0.45593999997E+02  0.45594000000E+02  0.51100000000E-03 0. -1.
         23    2    1    2    0    0 -0.35527136788E-14  0.00000000000E+00  0.17763568394E-14  0.91188000000E+02  0.91188000000E+02 0.  0.
    9900012    2    3    3    0    0  0.25936430332E+02 -0.25093921542E+02  0.73055613704E+01  0.54367156125E+02  0.40000164018E+02 0.  0.
         12    1    3    3    0    0 -0.25936430332E+02  0.25093921542E+02 -0.73055613704E+01  0.36820843875E+02  0.00000000000E+00 0. -1.
         11    1    4    4    0    0  0.16841292997E+01 -0.83152590552E+01 -0.36324734796E+01  0.92290134085E+01  0.51100000000E-03 0. -1.
        -11    1    4    4    0    0  0.20013135604E+02 -0.23936586437E+02  0.16338632592E+02  0.35219833648E+02  0.51100000000E-03 0.  1.
        -12    1    4    4    0    0  0.42391654284E+01  0.71579239504E+01 -0.54005977422E+01  0.99183090687E+01  0.00000000000E+00 0.  1.
</event>
<event>
 8    1  0.1238315E-006  0.9118800E+02  0.7816164E-02  0.1184000E+00
        -11   -1    0    0    0    0  0.00000000000E+00  0.00000000000E+00  0.45593999997E+02  0.45594000000E+02  0.51100000000E-03 0. -1.
         11   -1    0    0    0    0 -0.00000000000E+00 -0.00000000000E+00 -0.45593999997E+02  0.45594000000E+02  0.51100000000E-03 0.  1.
         23    2    1    2    0    0 -0.35527136788E-14  0.88817841970E-15 -0.35527136788E-14  0.91188000000E+02  0.91188000000E+02 0.  0.
    9900012    2    3    3    0    0  0.30688347152E+02  0.76069352824E+01  0.18871630711E+02  0.54367101572E+02  0.40000039654E+02 0.  0.
        -12    1    3    3    0    0 -0.30688347152E+02 -0.76069352824E+01 -0.18871630711E+02  0.36820898428E+02  0.00000000000E+00 0.  1.
         11    1    4    4    0    0  0.21409853776E+02  0.35423387703E+01 -0.14668773970E+01  0.21750442116E+02  0.51100000000E-03 0. -1.
        -11    1    4    4    0    0  0.13369983027E+02  0.89556012839E+01  0.64546474363E+01  0.17338446132E+02  0.51100000000E-03 0.  1.
        -12    1    4    4    0    0 -0.40914896505E+01 -0.48910047717E+01  0.13883860671E+02  0.15278213324E+02  0.00000000000E+00 0.  1.
</event>
<event>
 8    1  0.1238315E-006  0.9118800E+02  0.7816164E-02  0.1184000E+00
        -11   -1    0    0    0    0  0.00000000000E+00  0.00000000000E+00  0.45593999997E+02  0.45594000000E+02  0.51100000000E-03 0.  1.
         11   -1    0    0    0    0 -0.00000000000E+00 -0.00000000000E+00 -0.45593999997E+02  0.45594000000E+02  0.51100000000E-03 0. -1.
         23    2    1    2    0    0 -0.35527136788E-14 -0.71054273576E-14  0.00000000000E+00  0.91188000000E+02  0.91188000000E+02 0.  0.
    9900012    2    3    3    0    0  0.24862296147E+02  0.23867241899E+02  0.12961533909E+02  0.54367077051E+02  0.39999983752E+02 0.  0.
         12    1    3    3    0    0 -0.24862296147E+02 -0.23867241899E+02 -0.12961533909E+02  0.36820922949E+02  0.00000000000E+00 0. -1.
         11    1    4    4    0    0  0.71842354514E+01 -0.39770714460E+01  0.14249572963E+01  0.83343170005E+01  0.51100000000E-03 0. -1.
        -11    1    4    4    0    0  0.20953210401E+02  0.59437539569E+01  0.96074308419E+01  0.23804788696E+02  0.51100000000E-03 0.  1.
         12    1    4    4    0    0 -0.32751497058E+01  0.21900559388E+02  0.19291457712E+01  0.22227971354E+02  0.00000000000E+00 0. -1.
</event>
<event>
 8    1  0.1238315E-006  0.9118800E+02  0.7816164E-02  0.1184000E+00
        -11   -1    0    0    0    0  0.00000000000E+00  0.00000000000E+00  0.45593999997E+02  0.45594000000E+02  0.51100000000E-03 0. -1.
         11   -1    0    0    0    0 -0.00000000000E+00 -0.00000000000E+00 -0.45593999997E+02  0.45594000000E+02  0.51100000000E-03 0.  1.
         23    2    1    2    0    0  0.00000000000E+00  0.00000000000E+00 -0.35527136788E-14  0.91188000000E+02  0.91188000000E+02 0.  0.
    9900012    2    3    3    0    0 -0.16822763869E+02  0.12403744788E+02 -0.30313717207E+02  0.54367085836E+02  0.40000003780E+02 0.  0.
        -12    1    3    3    0    0  0.16822763869E+02 -0.12403744788E+02  0.30313717207E+02  0.36820914164E+02  0.00000000000E+00 0.  1.
         11    1    4    4    0    0 -0.44591432661E+01 -0.47760952677E+01  0.12091986898E+01  0.66450888938E+01  0.51100000000E-03 0. -1.
        -11    1    4    4    0    0 -0.11560928901E+02  0.20937776657E+01  0.10704039380E+01  0.11797658532E+02  0.51100000000E-03 0.  1.
        -12    1    4    4    0    0 -0.80269170207E+00  0.15086062390E+02 -0.32593319835E+02  0.35924338411E+02  0.00000000000E+00 0.  1.
</event>
<event>
 8    1  0.1238315E-006  0.9118800E+02  0.7816164E-02  0.1184000E+00
        -11   -1    0    0    0    0  0.00000000000E+00  0.00000000000E+00  0.45593999997E+02  0.45594000000E+02  0.51100000000E-03 0. -1.
         11   -1    0    0    0    0 -0.00000000000E+00 -0.00000000000E+00 -0.45593999997E+02  0.45594000000E+02  0.51100000000E-03 0.  1.
         23    2    1    2    0    0  0.00000000000E+00  0.00000000000E+00  0.88817841970E-15  0.91188000000E+02  0.91188000000E+02 0.  0.
    9900012    2    3    3    0    0 -0.14990524104E+02 -0.33509637517E+02 -0.28579464067E+01  0.54367089133E+02  0.40000011296E+02 0.  0.
         12    1    3    3    0    0  0.14990524104E+02  0.33509637517E+02  0.28579464067E+01  0.36820910867E+02  0.00000000000E+00 0. -1.
         11    1    4    4    0    0  0.14653578625E+00 -0.17892571825E+02  0.81936513273E+01  0.19679977683E+02  0.51100000000E-03 0. -1.
        -11    1    4    4    0    0 -0.13835282481E+02 -0.21419935145E+02 -0.45973301547E+01  0.25910694852E+02  0.51100000000E-03 0.  1.
         12    1    4    4    0    0 -0.13017774090E+01  0.58028694530E+01 -0.64542675793E+01  0.87764165977E+01  0.00000000000E+00 0. -1.
</event>
<event>
 8    1  0.1238315E-006  0.9118800E+02  0.7816164E-02  0.1184000E+00
        -11   -1    0    0    0    0  0.00000000000E+00  0.00000000000E+00  0.45593999997E+02  0.45594000000E+02  0.51100000000E-03 0. -1.
         11   -1    0    0    0    0 -0.00000000000E+00 -0.00000000000E+00 -0.45593999997E+02  0.45594000000E+02  0.51100000000E-03 0.  1.
         23    2    1    2    0    0  0.00000000000E+00  0.00000000000E+00  0.13322676296E-14  0.91188000000E+02  0.91188000000E+02 0.  0.
    9900012    2    3    3    0    0 -0.21477793265E+02  0.29743981147E+02  0.31272834866E+01  0.54367083118E+02  0.39999997584E+02 0.  0.
        -12    1    3    3    0    0  0.21477793265E+02 -0.29743981147E+02 -0.31272834866E+01  0.36820916882E+02  0.00000000000E+00 0.  1.
         11    1    4    4    0    0 -0.46745372907E+01 -0.94665357531E+00  0.76351454672E+01  0.90023829312E+01  0.51100000000E-03 0. -1.
        -11    1    4    4    0    0 -0.87347008312E+01  0.22882809637E+01 -0.11889730166E+02  0.14929732485E+02  0.51100000000E-03 0.  1.
         12    1    4    4    0    0 -0.80685551430E+01  0.28402353759E+02  0.73818681854E+01  0.30434967702E+02  0.00000000000E+00 0. -1.
</event>
<event>
 8    1  0.1238315E-006  0.9118800E+02  0.7816164E-02  0.1184000E+00
        -11   -1    0    0    0    0  0.00000000000E+00  0.00000000000E+00  0.45593999997E+02  0.45594000000E+02  0.51100000000E-03 0. -1.
         11   -1    0    0    0    0 -0.00000000000E+00 -0.00000000000E+00 -0.45593999997E+02  0.45594000000E+02  0.51100000000E-03 0.  1.
         23    2    1    2    0    0 -0.35527136788E-14  0.35527136788E-14  0.00000000000E+00  0.91188000000E+02  0.91188000000E+02 0.  0.
    9900012    2    3    3    0    0 -0.17296287020E+02 -0.14860022895E+02  0.28910159231E+02  0.54367093820E+02  0.40000021981E+02 0.  0.
        -12    1    3    3    0    0  0.17296287020E+02  0.14860022895E+02 -0.28910159231E+02  0.36820906180E+02  0.00000000000E+00 0.  1.
         11    1    4    4    0    0 -0.22052932680E+01 -0.21020914268E+02  0.12931870292E+02  0.24778527490E+02  0.51100000000E-03 0. -1.
        -11    1    4    4    0    0 -0.14060431392E+02  0.77936604075E+01  0.19681301445E+02  0.25412408393E+02  0.51100000000E-03 0.  1.
        -12    1    4    4    0    0 -0.10305623603E+01 -0.16327690347E+01 -0.37030125058E+01  0.41761579373E+01  0.00000000000E+00 0.  1.
</event>
<event>
 8    1  0.1238315E-006  0.9118800E+02  0.7816164E-02  0.1184000E+00
        -11   -1    0    0    0    0  0.00000000000E+00  0.00000000000E+00  0.45593999997E+02  0.45594000000E+02  0.51100000000E-03 0.  1.
         11   -1    0    0    0    0 -0.00000000000E+00 -0.00000000000E+00 -0.45593999997E+02  0.45594000000E+02  0.51100000000E-03 0. -1.
         23    2    1    2    0    0  0.00000000000E+00  0.35527136788E-14  0.00000000000E+00  0.91188000000E+02  0.91188000000E+02 0.  0.
    9900012    2    3    3    0    0  0.68873436583E+01 -0.26445290837E+02  0.24677747304E+02  0.54367080374E+02  0.39999991328E+02 0.  0.
         12    1    3    3    0    0 -0.68873436583E+01  0.26445290837E+02 -0.24677747304E+02  0.36820919626E+02  0.00000000000E+00 0. -1.
         11    1    4    4    0    0  0.76161111983E+01 -0.18688615612E+02 -0.67993496447E+01  0.21295554915E+02  0.51100000000E-03 0. -1.
        -11    1    4    4    0    0 -0.25951326097E+01 -0.36905369295E+01  0.81144793362E+01  0.92843713438E+01  0.51100000000E-03 0.  1.
         12    1    4    4    0    0  0.18663650697E+01 -0.40661382958E+01  0.23362617612E+02  0.23787154115E+02  0.00000000000E+00 0. -1.
</event>
<event>
 8    1  0.1238315E-006  0.9118800E+02  0.7816164E-02  0.1184000E+00
        -11   -1    0    0    0    0  0.00000000000E+00  0.00000000000E+00  0.45593999997E+02  0.45594000000E+02  0.51100000000E-03 0.  1.
         11   -1    0    0    0    0 -0.00000000000E+00 -0.00000000000E+00 -0.45593999997E+02  0.45594000000E+02  0.51100000000E-03 0. -1.
         23    2    1    2    0    0 -0.14210854715E-13 -0.17763568394E-14 -0.22204460493E-14  0.91188000000E+02  0.91188000000E+02 0.  0.
    9900012    2    3    3    0    0 -0.36359809495E+02 -0.50760146358E+01 -0.28265128508E+01  0.54366934752E+02  0.39999659353E+02 0.  0.
         12    1    3    3    0    0  0.36359809495E+02  0.50760146358E+01  0.28265128508E+01  0.36821065248E+02  0.00000000000E+00 0. -1.
         11    1    4    4    0    0 -0.38095454216E+02 -0.89125558491E+01 -0.54147409620E+01  0.39497046771E+02  0.51100000000E-03 0.  1.
        -11    1    4    4    0    0  0.43654479654E-01  0.85441222529E+01  0.43224934676E+01  0.95753788867E+01  0.51100000000E-03 0. -1.
        -12    1    4    4    0    0  0.16919902419E+01 -0.47075810396E+01 -0.17342653563E+01  0.52945090942E+01  0.00000000000E+00 0.  1.
</event>
<event>
 8    1  0.1238315E-006  0.9118800E+02  0.7816164E-02  0.1184000E+00
        -11   -1    0    0    0    0  0.00000000000E+00  0.00000000000E+00  0.45593999997E+02  0.45594000000E+02  0.51100000000E-03 0. -1.
         11   -1    0    0    0    0 -0.00000000000E+00 -0.00000000000E+00 -0.45593999997E+02  0.45594000000E+02  0.51100000000E-03 0.  1.
         23    2    1    2    0    0  0.71054273576E-14 -0.88817841970E-15  0.00000000000E+00  0.91188000000E+02  0.91188000000E+02 0.  0.
    9900012    2    3    3    0    0 -0.25752019486E+02  0.78045276003E-01 -0.26317774457E+02  0.54366839629E+02  0.39999442499E+02 0.  0.
         12    1    3    3    0    0  0.25752019486E+02 -0.78045276003E-01  0.26317774457E+02  0.36821160371E+02  0.00000000000E+00 0. -1.
         11    1    4    4    0    0 -0.17541947217E+01  0.91403309952E+01  0.20946223616E+01  0.95399314947E+01  0.51100000000E-03 0. -1.
        -11    1    4    4    0    0 -0.24157544111E+01 -0.78897108277E+01 -0.19997104856E+02  0.21632559007E+02  0.51100000000E-03 0.  1.
        -12    1    4    4    0    0 -0.21582070353E+02 -0.11725748915E+01 -0.84152919628E+01  0.23194349127E+02  0.00000000000E+00 0.  1.
</event>
<event>
 8    1  0.1238315E-006  0.9118800E+02  0.7816164E-02  0.1184000E+00
        -11   -1    0    0    0    0  0.00000000000E+00  0.00000000000E+00  0.45593999997E+02  0.45594000000E+02  0.51100000000E-03 0. -1.
         11   -1    0    0    0    0 -0.00000000000E+00 -0.00000000000E+00 -0.45593999997E+02  0.45594000000E+02  0.51100000000E-03 0.  1.
         23    2    1    2    0    0  0.00000000000E+00  0.00000000000E+00  0.00000000000E+00  0.91188000000E+02  0.91188000000E+02 0.  0.
    9900012    2    3    3    0    0 -0.96442881721E+01 -0.26255326529E+02  0.23946292688E+02  0.54367090193E+02  0.40000013713E+02 0.  0.
        -12    1    3    3    0    0  0.96442881721E+01  0.26255326529E+02 -0.23946292688E+02  0.36820909807E+02  0.00000000000E+00 0.  1.
         11    1    4    4    0    0  0.55123482560E+01 -0.89051989025E+01 -0.55531347265E+01  0.11854360225E+02  0.51100000000E-03 0. -1.
        -11    1    4    4    0    0 -0.35362807068E+01 -0.12429204420E+02  0.31553335680E+01  0.13302125166E+02  0.51100000000E-03 0.  1.
         12    1    4    4    0    0 -0.11620355721E+02 -0.49209232065E+01  0.26344093847E+02  0.29210604802E+02  0.00000000000E+00 0. -1.
</event>
<event>
 8    1  0.1238315E-006  0.9118800E+02  0.7816164E-02  0.1184000E+00
        -11   -1    0    0    0    0  0.00000000000E+00  0.00000000000E+00  0.45593999997E+02  0.45594000000E+02  0.51100000000E-03 0. -1.
         11   -1    0    0    0    0 -0.00000000000E+00 -0.00000000000E+00 -0.45593999997E+02  0.45594000000E+02  0.51100000000E-03 0.  1.
         23    2    1    2    0    0  0.00000000000E+00  0.11102230246E-15  0.00000000000E+00  0.91188000000E+02  0.91188000000E+02 0.  0.
    9900012    2    3    3    0    0 -0.30432597532E+02  0.27198492824E+00 -0.20725935192E+02  0.54367063592E+02  0.39999953071E+02 0.  0.
         12    1    3    3    0    0  0.30432597532E+02 -0.27198492824E+00  0.20725935192E+02  0.36820936408E+02  0.00000000000E+00 0. -1.
         11    1    4    4    0    0 -0.10854526885E+02  0.35141504051E-01  0.58407504670E+01  0.12326246595E+02  0.51100000000E-03 0. -1.
        -11    1    4    4    0    0 -0.22658115872E+02  0.42442558159E+01 -0.28476593905E+02  0.36637689924E+02  0.51100000000E-03 0.  1.
        -12    1    4    4    0    0  0.30800452246E+01 -0.40074123917E+01  0.19099082461E+01  0.54031270734E+01  0.00000000000E+00 0.  1.
</event>
<event>
 8    1  0.1238315E-006  0.9118800E+02  0.7816164E-02  0.1184000E+00
        -11   -1    0    0    0    0  0.00000000000E+00  0.00000000000E+00  0.45593999997E+02  0.45594000000E+02  0.51100000000E-03 0.  1.
         11   -1    0    0    0    0 -0.00000000000E+00 -0.00000000000E+00 -0.45593999997E+02  0.45594000000E+02  0.51100000000E-03 0. -1.
         23    2    1    2    0    0 -0.66613381478E-15  0.00000000000E+00  0.71054273576E-14  0.91188000000E+02  0.91188000000E+02 0.  0.
    9900012    2    3    3    0    0  0.16365108593E+01 -0.17559305470E+01 -0.36742605492E+02  0.54367074995E+02  0.39999979066E+02 0.  0.
        -12    1    3    3    0    0 -0.16365108593E+01  0.17559305470E+01  0.36742605492E+02  0.36820925005E+02  0.00000000000E+00 0.  1.
         11    1    4    4    0    0  0.24395156746E+01 -0.12590432458E+01 -0.11120520427E+02  0.11454361678E+02  0.51100000000E-03 0. -1.
        -11    1    4    4    0    0  0.11150957609E+02  0.11501575255E+02 -0.62887640618E+01  0.17209841447E+02  0.51100000000E-03 0.  1.
         12    1    4    4    0    0 -0.11953962425E+02 -0.11998462556E+02 -0.19333321003E+02  0.25702871870E+02  0.00000000000E+00 0. -1.
</event>
<event>
 8    1  0.1238315E-006  0.9118800E+02  0.7816164E-02  0.1184000E+00
        -11   -1    0    0    0    0  0.00000000000E+00  0.00000000000E+00  0.45593999997E+02  0.45594000000E+02  0.51100000000E-03 0.  1.
         11   -1    0    0    0    0 -0.00000000000E+00 -0.00000000000E+00 -0.45593999997E+02  0.45594000000E+02  0.51100000000E-03 0. -1.
         23    2    1    2    0    0 -0.17763568394E-14  0.00000000000E+00  0.35527136788E-14  0.91188000000E+02  0.91188000000E+02 0.  0.
    9900012    2    3    3    0    0 -0.13830657743E+02  0.15194196786E+02  0.30555203627E+02  0.54367201825E+02  0.40000268199E+02 0.  0.
         12    1    3    3    0    0  0.13830657743E+02 -0.15194196786E+02 -0.30555203627E+02  0.36820798175E+02  0.00000000000E+00 0. -1.
         11    1    4    4    0    0 -0.14142289522E+02  0.72325899246E+00  0.35238069506E+01  0.14592623897E+02  0.51100000000E-03 0. -1.
        -11    1    4    4    0    0 -0.82413217715E+01  0.61978342379E+01  0.25832856071E+02  0.27814905839E+02  0.51100000000E-03 0.  1.
        -12    1    4    4    0    0  0.85529535513E+01  0.82731035555E+01  0.11985406057E+01  0.11959672089E+02  0.00000000000E+00 0.  1.
</event>
<event>
 8    1  0.1238315E-006  0.9118800E+02  0.7816164E-02  0.1184000E+00
        -11   -1    0    0    0    0  0.00000000000E+00  0.00000000000E+00  0.45593999997E+02  0.45594000000E+02  0.51100000000E-03 0. -1.
         11   -1    0    0    0    0 -0.00000000000E+00 -0.00000000000E+00 -0.45593999997E+02  0.45594000000E+02  0.51100000000E-03 0.  1.
         23    2    1    2    0    0  0.77715611724E-15 -0.35527136788E-14  0.00000000000E+00  0.91188000000E+02  0.91188000000E+02 0.  0.
    9900012    2    3    3    0    0  0.83372545429E-01  0.30157992391E+02 -0.21125069467E+02  0.54367081815E+02  0.39999994613E+02 0.  0.
         12    1    3    3    0    0 -0.83372545429E-01 -0.30157992391E+02  0.21125069467E+02  0.36820918185E+02  0.00000000000E+00 0. -1.
         11    1    4    4    0    0 -0.35875755761E+01 -0.49416694330E+01 -0.92316931821E+01  0.11068647369E+02  0.51100000000E-03 0. -1.
        -11    1    4    4    0    0  0.69567881976E+01  0.87300256188E+00 -0.37993344957E+01  0.79745832725E+01  0.51100000000E-03 0.  1.
        -12    1    4    4    0    0 -0.32858400761E+01  0.34226659262E+02 -0.80940417895E+01  0.35323851173E+02  0.00000000000E+00 0.  1.
</event>
<event>
 8    1  0.1238315E-006  0.9118800E+02  0.7816164E-02  0.1184000E+00
        -11   -1    0    0    0    0  0.00000000000E+00  0.00000000000E+00  0.45593999997E+02  0.45594000000E+02  0.51100000000E-03 0. -1.
         11   -1    0    0    0    0 -0.00000000000E+00 -0.00000000000E+00 -0.45593999997E+02  0.45594000000E+02  0.51100000000E-03 0.  1.
         23    2    1    2    0    0 -0.35527136788E-14  0.00000000000E+00  0.00000000000E+00  0.91188000000E+02  0.91188000000E+02 0.  0.
    9900012    2    3    3    0    0 -0.99184945119E+01 -0.29369856080E+02  0.19869920148E+02  0.54367099601E+02  0.40000035160E+02 0.  0.
        -12    1    3    3    0    0  0.99184945119E+01  0.29369856080E+02 -0.19869920148E+02  0.36820900399E+02  0.00000000000E+00 0.  1.
         11    1    4    4    0    0  0.98365441562E+01 -0.48449915498E+01  0.97436340207E+00  0.11008220944E+02  0.51100000000E-03 0. -1.
        -11    1    4    4    0    0  0.11471076251E+00 -0.16663915903E+02  0.35152532987E+01  0.17031038072E+02  0.51100000000E-03 0.  1.
        -12    1    4    4    0    0 -0.19869749431E+02 -0.78609486265E+01  0.15380303447E+02  0.26327840585E+02  0.00000000000E+00 0.  1.
</event>
<event>
 8    1  0.1238315E-006  0.9118800E+02  0.7816164E-02  0.1184000E+00
        -11   -1    0    0    0    0  0.00000000000E+00  0.00000000000E+00  0.45593999997E+02  0.45594000000E+02  0.51100000000E-03 0.  1.
         11   -1    0    0    0    0 -0.00000000000E+00 -0.00000000000E+00 -0.45593999997E+02  0.45594000000E+02  0.51100000000E-03 0. -1.
         23    2    1    2    0    0  0.00000000000E+00 -0.17763568394E-14  0.00000000000E+00  0.91188000000E+02  0.91188000000E+02 0.  0.
    9900012    2    3    3    0    0  0.71990901098E+01 -0.10061648736E+02 -0.34680202128E+02  0.54367080765E+02  0.39999992220E+02 0.  0.
        -12    1    3    3    0    0 -0.71990901098E+01  0.10061648736E+02  0.34680202128E+02  0.36820919235E+02  0.00000000000E+00 0.  1.
         11    1    4    4    0    0 -0.10819763148E+01 -0.19098028289E+01  0.70422301176E+01  0.73763829131E+01  0.51100000000E-03 0. -1.
        -11    1    4    4    0    0 -0.34729757967E+01 -0.11729246822E+01 -0.67552635923E+00  0.37274185863E+01  0.51100000000E-03 0.  1.
         12    1    4    4    0    0  0.11754042221E+02 -0.69789212252E+01 -0.41046905886E+02  0.43263279266E+02  0.00000000000E+00 0. -1.
</event>
<event>
 8    1  0.1238315E-006  0.9118800E+02  0.7816164E-02  0.1184000E+00
        -11   -1    0    0    0    0  0.00000000000E+00  0.00000000000E+00  0.45593999997E+02  0.45594000000E+02  0.51100000000E-03 0. -1.
         11   -1    0    0    0    0 -0.00000000000E+00 -0.00000000000E+00 -0.45593999997E+02  0.45594000000E+02  0.51100000000E-03 0.  1.
         23    2    1    2    0    0  0.00000000000E+00 -0.88817841970E-15  0.00000000000E+00  0.91188000000E+02  0.91188000000E+02 0.  0.
    9900012    2    3    3    0    0 -0.41043822700E+01  0.47447699597E+01  0.36282496239E+02  0.54367104722E+02  0.40000046834E+02 0.  0.
        -12    1    3    3    0    0  0.41043822700E+01 -0.47447699597E+01 -0.36282496239E+02  0.36820895278E+02  0.00000000000E+00 0.  1.
         11    1    4    4    0    0  0.44420439517E+00 -0.10587131141E+02  0.11433455949E+02  0.15588732422E+02  0.51100000000E-03 0. -1.
        -11    1    4    4    0    0 -0.48066943998E+01  0.43452018670E+01 -0.41988485297E+01  0.77211022241E+01  0.51100000000E-03 0.  1.
        -12    1    4    4    0    0  0.25810773466E+00  0.10986699234E+02  0.29047888819E+02  0.31057270075E+02  0.00000000000E+00 0.  1.
</event>
<event>
 8    1  0.1238315E-006  0.9118800E+02  0.7816164E-02  0.1184000E+00
        -11   -1    0    0    0    0  0.00000000000E+00  0.00000000000E+00  0.45593999997E+02  0.45594000000E+02  0.51100000000E-03 0.  1.
         11   -1    0    0    0    0 -0.00000000000E+00 -0.00000000000E+00 -0.45593999997E+02  0.45594000000E+02  0.51100000000E-03 0. -1.
         23    2    1    2    0    0 -0.35527136788E-14  0.00000000000E+00 -0.35527136788E-14  0.91188000000E+02  0.91188000000E+02 0.  0.
    9900012    2    3    3    0    0  0.18950721677E+02  0.21456367091E+02  0.23157597329E+02  0.54367084003E+02  0.39999999601E+02 0.  0.
         12    1    3    3    0    0 -0.18950721677E+02 -0.21456367091E+02 -0.23157597329E+02  0.36820915997E+02  0.00000000000E+00 0. -1.
         11    1    4    4    0    0  0.28142705142E+01  0.26649102548E+01  0.49858034327E+01  0.63150693839E+01  0.51100000000E-03 0. -1.
        -11    1    4    4    0    0  0.26247579524E+02  0.21571461028E+02  0.13229067939E+02  0.36459177178E+02  0.51100000000E-03 0.  1.
         12    1    4    4    0    0 -0.10111128361E+02 -0.27800041913E+01  0.49427259572E+01  0.11592837440E+02  0.00000000000E+00 0. -1.
</event>
<event>
 8    1  0.1238315E-006  0.9118800E+02  0.7816164E-02  0.1184000E+00
        -11   -1    0    0    0    0  0.00000000000E+00  0.00000000000E+00  0.45593999997E+02  0.45594000000E+02  0.51100000000E-03 0.  1.
         11   -1    0    0    0    0 -0.00000000000E+00 -0.00000000000E+00 -0.45593999997E+02  0.45594000000E+02  0.51100000000E-03 0. -1.
         23    2    1    2    0    0  0.00000000000E+00  0.00000000000E+00  0.11102230246E-14  0.91188000000E+02  0.91188000000E+02 0.  0.
    9900012    2    3    3    0    0 -0.31276369075E+02 -0.19412099201E+02  0.85979333626E+00  0.54367080641E+02  0.39999991937E+02 0.  0.
        -12    1    3    3    0    0  0.31276369075E+02  0.19412099201E+02 -0.85979333626E+00  0.36820919359E+02  0.00000000000E+00 0.  1.
         11    1    4    4    0    0  0.27745903901E+01 -0.58994714415E+01  0.71717552420E+01  0.96920683362E+01  0.51100000000E-03 0. -1.
        -11    1    4    4    0    0  0.35878028250E+01 -0.22262671521E+01 -0.31219981260E+01  0.52512348170E+01  0.51100000000E-03 0.  1.
         12    1    4    4    0    0 -0.37638762290E+02 -0.11286360607E+02 -0.31899637797E+01  0.39423777488E+02  0.00000000000E+00 0. -1.
</event>
<event>
 8    1  0.1238315E-006  0.9118800E+02  0.7816164E-02  0.1184000E+00
        -11   -1    0    0    0    0  0.00000000000E+00  0.00000000000E+00  0.45593999997E+02  0.45594000000E+02  0.51100000000E-03 0. -1.
         11   -1    0    0    0    0 -0.00000000000E+00 -0.00000000000E+00 -0.45593999997E+02  0.45594000000E+02  0.51100000000E-03 0.  1.
         23    2    1    2    0    0  0.00000000000E+00  0.17763568394E-14  0.35527136788E-14  0.91188000000E+02  0.91188000000E+02 0.  0.
    9900012    2    3    3    0    0 -0.28651333728E+02 -0.11857644008E+02 -0.19856404972E+02  0.54367089308E+02  0.40000011695E+02 0.  0.
         12    1    3    3    0    0  0.28651333728E+02  0.11857644008E+02  0.19856404972E+02  0.36820910692E+02  0.00000000000E+00 0. -1.
         11    1    4    4    0    0 -0.14635608564E+02 -0.15852489970E+01  0.82151272059E+01  0.16858302634E+02  0.51100000000E-03 0. -1.
        -11    1    4    4    0    0 -0.46616827228E+01  0.38233457420E+01 -0.18550768029E+01  0.63079765913E+01  0.51100000000E-03 0.  1.
        -12    1    4    4    0    0 -0.93540424404E+01 -0.14095740753E+02 -0.26216455375E+02  0.31200810082E+02  0.00000000000E+00 0.  1.
</event>
<event>
 8    1  0.1238315E-006  0.9118800E+02  0.7816164E-02  0.1184000E+00
        -11   -1    0    0    0    0  0.00000000000E+00  0.00000000000E+00  0.45593999997E+02  0.45594000000E+02  0.51100000000E-03 0. -1.
         11   -1    0    0    0    0 -0.00000000000E+00 -0.00000000000E+00 -0.45593999997E+02  0.45594000000E+02  0.51100000000E-03 0.  1.
         23    2    1    2    0    0  0.00000000000E+00  0.00000000000E+00  0.35527136788E-14  0.91188000000E+02  0.91188000000E+02 0.  0.
    9900012    2    3    3    0    0  0.12394350139E+02  0.29121461239E+02  0.18817564469E+02  0.54367079960E+02  0.39999990384E+02 0.  0.
        -12    1    3    3    0    0 -0.12394350139E+02 -0.29121461239E+02 -0.18817564469E+02  0.36820920040E+02  0.00000000000E+00 0.  1.
         11    1    4    4    0    0  0.82969455734E+01 -0.14356259702E+01  0.35242630869E+01  0.91280205051E+01  0.51100000000E-03 0. -1.
        -11    1    4    4    0    0  0.25713240905E+01  0.21498158518E+02 -0.56440926780E+01  0.22374948261E+02  0.51100000000E-03 0.  1.
         12    1    4    4    0    0  0.15260804750E+01  0.90589286910E+01  0.20937394060E+02  0.22864111194E+02  0.00000000000E+00 0. -1.
</event>
<event>
 8    1  0.1238315E-006  0.9118800E+02  0.7816164E-02  0.1184000E+00
        -11   -1    0    0    0    0  0.00000000000E+00  0.00000000000E+00  0.45593999997E+02  0.45594000000E+02  0.51100000000E-03 0. -1.
         11   -1    0    0    0    0 -0.00000000000E+00 -0.00000000000E+00 -0.45593999997E+02  0.45594000000E+02  0.51100000000E-03 0.  1.
         23    2    1    2    0    0  0.35527136788E-14  0.00000000000E+00 -0.35527136788E-14  0.91188000000E+02  0.91188000000E+02 0.  0.
    9900012    2    3    3    0    0  0.26776960369E+02  0.17493779772E+02 -0.18241287362E+02  0.54367048057E+02  0.39999917656E+02 0.  0.
         12    1    3    3    0    0 -0.26776960369E+02 -0.17493779772E+02  0.18241287362E+02  0.36820951943E+02  0.00000000000E+00 0. -1.
         11    1    4    4    0    0  0.80084525408E+01  0.16770172774E+01 -0.66435848644E+01  0.10539683067E+02  0.51100000000E-03 0. -1.
        -11    1    4    4    0    0  0.17258308116E+02  0.26126779321E+02 -0.56142673931E+01  0.31811598440E+02  0.51100000000E-03 0.  1.
         12    1    4    4    0    0  0.15101997126E+01 -0.10310016826E+02 -0.59834351045E+01  0.12015766549E+02  0.00000000000E+00 0. -1.
</event>
<event>
 8    1  0.1238315E-006  0.9118800E+02  0.7816164E-02  0.1184000E+00
        -11   -1    0    0    0    0  0.00000000000E+00  0.00000000000E+00  0.45593999997E+02  0.45594000000E+02  0.51100000000E-03 0. -1.
         11   -1    0    0    0    0 -0.00000000000E+00 -0.00000000000E+00 -0.45593999997E+02  0.45594000000E+02  0.51100000000E-03 0.  1.
         23    2    1    2    0    0 -0.35527136788E-14  0.00000000000E+00 -0.53290705182E-14  0.91188000000E+02  0.91188000000E+02 0.  0.
    9900012    2    3    3    0    0  0.26009603176E+02 -0.23874848714E+02  0.10453308908E+02  0.54367088474E+02  0.40000009794E+02 0.  0.
         12    1    3    3    0    0 -0.26009603176E+02  0.23874848714E+02 -0.10453308908E+02  0.36820911526E+02  0.00000000000E+00 0. -1.
         11    1    4    4    0    0  0.16089396576E+02 -0.22582981834E+02 -0.77975347598E+01  0.28803841745E+02  0.51100000000E-03 0.  1.
        -11    1    4    4    0    0  0.21951288913E+01  0.65400256117E+01  0.70636607703E+01  0.98734912564E+01  0.51100000000E-03 0. -1.
         12    1    4    4    0    0  0.77250777083E+01 -0.78318924922E+01  0.11187182897E+02  0.15689755472E+02  0.00000000000E+00 0. -1.
</event>
<event>
 8    1  0.1238315E-006  0.9118800E+02  0.7816164E-02  0.1184000E+00
        -11   -1    0    0    0    0  0.00000000000E+00  0.00000000000E+00  0.45593999997E+02  0.45594000000E+02  0.51100000000E-03 0. -1.
         11   -1    0    0    0    0 -0.00000000000E+00 -0.00000000000E+00 -0.45593999997E+02  0.45594000000E+02  0.51100000000E-03 0.  1.
         23    2    1    2    0    0  0.00000000000E+00  0.00000000000E+00  0.00000000000E+00  0.91188000000E+02  0.91188000000E+02 0.  0.
    9900012    2    3    3    0    0  0.64587588299E+01 -0.28056640682E+02  0.22954062861E+02  0.54367086733E+02  0.40000005826E+02 0.  0.
        -12    1    3    3    0    0 -0.64587588299E+01  0.28056640682E+02 -0.22954062861E+02  0.36820913267E+02  0.00000000000E+00 0.  1.
         11    1    4    4    0    0  0.75538106051E+01 -0.17063686230E+02  0.34817026250E+01  0.18982931698E+02  0.51100000000E-03 0. -1.
        -11    1    4    4    0    0 -0.59855966602E+01  0.18218008154E+01 -0.45400681335E+01  0.77303650954E+01  0.51100000000E-03 0.  1.
        -12    1    4    4    0    0  0.48905448850E+01 -0.12814755267E+02  0.24012428370E+02  0.27653789940E+02  0.00000000000E+00 0.  1.
</event>
<event>
 8    1  0.1238315E-006  0.9118800E+02  0.7816164E-02  0.1184000E+00
        -11   -1    0    0    0    0  0.00000000000E+00  0.00000000000E+00  0.45593999997E+02  0.45594000000E+02  0.51100000000E-03 0.  1.
         11   -1    0    0    0    0 -0.00000000000E+00 -0.00000000000E+00 -0.45593999997E+02  0.45594000000E+02  0.51100000000E-03 0. -1.
         23    2    1    2    0    0 -0.17763568394E-14  0.00000000000E+00  0.00000000000E+00  0.91188000000E+02  0.91188000000E+02 0.  0.
    9900012    2    3    3    0    0 -0.80184584032E+01 -0.35198577920E+02  0.72487613416E+01  0.54367080623E+02  0.39999991897E+02 0.  0.
         12    1    3    3    0    0  0.80184584032E+01  0.35198577920E+02 -0.72487613416E+01  0.36820919377E+02  0.00000000000E+00 0. -1.
         11    1    4    4    0    0  0.17402805534E+01  0.45312174995E+01 -0.23767368417E+01  0.54045709088E+01  0.51100000000E-03 0. -1.
        -11    1    4    4    0    0 -0.14138243039E+02 -0.15228429767E+02 -0.30978520349E+01  0.21009323570E+02  0.51100000000E-03 0.  1.
         12    1    4    4    0    0  0.43795040819E+01 -0.24501365652E+02  0.12723350218E+02  0.27953186144E+02  0.00000000000E+00 0. -1.
</event>
<event>
 8    1  0.1238315E-006  0.9118800E+02  0.7816164E-02  0.1184000E+00
        -11   -1    0    0    0    0  0.00000000000E+00  0.00000000000E+00  0.45593999997E+02  0.45594000000E+02  0.51100000000E-03 0. -1.
         11   -1    0    0    0    0 -0.00000000000E+00 -0.00000000000E+00 -0.45593999997E+02  0.45594000000E+02  0.51100000000E-03 0.  1.
         23    2    1    2    0    0  0.00000000000E+00  0.17763568394E-14 -0.88817841970E-15  0.91188000000E+02  0.91188000000E+02 0.  0.
    9900012    2    3    3    0    0  0.36050659863E+02  0.58171484074E+01 -0.47212415541E+01  0.54367089990E+02  0.40000013250E+02 0.  0.
         12    1    3    3    0    0 -0.36050659863E+02 -0.58171484074E+01  0.47212415541E+01  0.36820910010E+02  0.00000000000E+00 0. -1.
         11    1    4    4    0    0 -0.47506943610E+00  0.41702299790E+01 -0.76742954110E+00  0.42667853717E+01  0.51100000000E-03 0. -1.
        -11    1    4    4    0    0 -0.20295794603E+00 -0.11007774073E+02 -0.21024416171E+01  0.11208592373E+02  0.51100000000E-03 0.  1.
        -12    1    4    4    0    0  0.36728687245E+02  0.12654692501E+02 -0.18513703958E+01  0.38891712246E+02  0.00000000000E+00 0.  1.
</event>
<event>
 8    1  0.1238315E-006  0.9118800E+02  0.7816164E-02  0.1184000E+00
        -11   -1    0    0    0    0  0.00000000000E+00  0.00000000000E+00  0.45593999997E+02  0.45594000000E+02  0.51100000000E-03 0.  1.
         11   -1    0    0    0    0 -0.00000000000E+00 -0.00000000000E+00 -0.45593999997E+02  0.45594000000E+02  0.51100000000E-03 0. -1.
         23    2    1    2    0    0  0.00000000000E+00 -0.35527136788E-14  0.00000000000E+00  0.91188000000E+02  0.91188000000E+02 0.  0.
    9900012    2    3    3    0    0  0.17185653617E+02  0.22578154068E+02  0.23466137884E+02  0.54367090742E+02  0.40000014965E+02 0.  0.
         12    1    3    3    0    0 -0.17185653617E+02 -0.22578154068E+02 -0.23466137884E+02  0.36820909258E+02  0.00000000000E+00 0. -1.
         11    1    4    4    0    0  0.85726692564E+01 -0.57700130282E+01  0.12516122932E+02  0.16230743730E+02  0.51100000000E-03 0. -1.
        -11    1    4    4    0    0  0.15095658941E+02  0.17315625730E+02  0.10690228604E+02  0.25337537393E+02  0.51100000000E-03 0.  1.
         12    1    4    4    0    0 -0.64826745798E+01  0.11032541367E+02  0.25978634822E+00  0.12798809619E+02  0.00000000000E+00 0. -1.
</event>
<event>
 8    1  0.1238315E-006  0.9118800E+02  0.7816164E-02  0.1184000E+00
        -11   -1    0    0    0    0  0.00000000000E+00  0.00000000000E+00  0.45593999997E+02  0.45594000000E+02  0.51100000000E-03 0.  1.
         11   -1    0    0    0    0 -0.00000000000E+00 -0.00000000000E+00 -0.45593999997E+02  0.45594000000E+02  0.51100000000E-03 0. -1.
         23    2    1    2    0    0  0.17763568394E-14  0.00000000000E+00 -0.17763568394E-14  0.91188000000E+02  0.91188000000E+02 0.  0.
    9900012    2    3    3    0    0  0.11754693330E+02  0.33671075154E+02 -0.91578230423E+01  0.54367084202E+02  0.40000000056E+02 0.  0.
        -12    1    3    3    0    0 -0.11754693330E+02 -0.33671075154E+02  0.91578230423E+01  0.36820915798E+02  0.00000000000E+00 0.  1.
         11    1    4    4    0    0 -0.13340182619E+00  0.66780626640E+01 -0.10127878550E+02  0.12132116105E+02  0.51100000000E-03 0. -1.
        -11    1    4    4    0    0  0.55469313324E+01  0.32867506622E+02 -0.10850825398E+01  0.33349945175E+02  0.51100000000E-03 0.  1.
        -12    1    4    4    0    0  0.63411638236E+01 -0.58744941321E+01  0.20551380475E+01  0.88850229228E+01  0.00000000000E+00 0.  1.
</event>
<event>
 8    1  0.1238315E-006  0.9118800E+02  0.7816164E-02  0.1184000E+00
        -11   -1    0    0    0    0  0.00000000000E+00  0.00000000000E+00  0.45593999997E+02  0.45594000000E+02  0.51100000000E-03 0. -1.
         11   -1    0    0    0    0 -0.00000000000E+00 -0.00000000000E+00 -0.45593999997E+02  0.45594000000E+02  0.51100000000E-03 0.  1.
         23    2    1    2    0    0 -0.88817841970E-15  0.00000000000E+00  0.00000000000E+00  0.91188000000E+02  0.91188000000E+02 0.  0.
    9900012    2    3    3    0    0 -0.40497494537E+01  0.85646292435E+01 -0.35580996428E+02  0.54367344771E+02  0.40000594069E+02 0.  0.
         12    1    3    3    0    0  0.40497494537E+01 -0.85646292435E+01  0.35580996428E+02  0.36820655229E+02  0.00000000000E+00 0. -1.
         11    1    4    4    0    0  0.10502701223E+02 -0.36603291283E+01 -0.24944333334E+01  0.11398549918E+02  0.51100000000E-03 0. -1.
        -11    1    4    4    0    0 -0.11568052750E+02  0.76740507074E+01 -0.34632630803E+02  0.37311258559E+02  0.51100000000E-03 0.  1.
        -12    1    4    4    0    0 -0.29843979267E+01  0.45509076644E+01  0.15460677084E+01  0.56575362936E+01  0.00000000000E+00 0.  1.
</event>
<event>
 8    1  0.1238315E-006  0.9118800E+02  0.7816164E-02  0.1184000E+00
        -11   -1    0    0    0    0  0.00000000000E+00  0.00000000000E+00  0.45593999997E+02  0.45594000000E+02  0.51100000000E-03 0. -1.
         11   -1    0    0    0    0 -0.00000000000E+00 -0.00000000000E+00 -0.45593999997E+02  0.45594000000E+02  0.51100000000E-03 0.  1.
         23    2    1    2    0    0 -0.88817841970E-15 -0.88817841970E-15 -0.71054273576E-14  0.91188000000E+02  0.91188000000E+02 0.  0.
    9900012    2    3    3    0    0  0.48829290359E+01 -0.58012995471E+01  0.36031704709E+02  0.54367057364E+02  0.39999938872E+02 0.  0.
        -12    1    3    3    0    0 -0.48829290359E+01  0.58012995471E+01 -0.36031704709E+02  0.36820942636E+02  0.00000000000E+00 0.  1.
         11    1    4    4    0    0  0.52243432174E+01 -0.40692964285E+01  0.23753297685E+02  0.24659117718E+02  0.51100000000E-03 0. -1.
        -11    1    4    4    0    0 -0.89213635630E+01  0.42633578425E+01 -0.37412683245E+01  0.10571851155E+02  0.51100000000E-03 0.  1.
        -12    1    4    4    0    0  0.85799493815E+01 -0.59953609610E+01  0.16019675348E+02  0.19136088490E+02  0.00000000000E+00 0.  1.
</event>
<event>
 8    1  0.1238315E-006  0.9118800E+02  0.7816164E-02  0.1184000E+00
        -11   -1    0    0    0    0  0.00000000000E+00  0.00000000000E+00  0.45593999997E+02  0.45594000000E+02  0.51100000000E-03 0. -1.
         11   -1    0    0    0    0 -0.00000000000E+00 -0.00000000000E+00 -0.45593999997E+02  0.45594000000E+02  0.51100000000E-03 0.  1.
         23    2    1    2    0    0  0.00000000000E+00 -0.35527136788E-14  0.00000000000E+00  0.91188000000E+02  0.91188000000E+02 0.  0.
    9900012    2    3    3    0    0  0.22061237573E+02  0.26780424661E+02 -0.12324271280E+02  0.54367122622E+02  0.40000087641E+02 0.  0.
         12    1    3    3    0    0 -0.22061237573E+02 -0.26780424661E+02  0.12324271280E+02  0.36820877378E+02  0.00000000000E+00 0. -1.
         11    1    4    4    0    0  0.18223332010E+02  0.11264642055E+02  0.22346469129E+01  0.21540093716E+02  0.51100000000E-03 0. -1.
        -11    1    4    4    0    0  0.14361489870E+02  0.83308144612E+01 -0.94060239264E+01  0.19082142103E+02  0.51100000000E-03 0.  1.
         12    1    4    4    0    0 -0.10523584307E+02  0.71849681448E+01 -0.51528942663E+01  0.13744886803E+02  0.00000000000E+00 0. -1.
</event>
<event>
 8    1  0.1238315E-006  0.9118800E+02  0.7816164E-02  0.1184000E+00
        -11   -1    0    0    0    0  0.00000000000E+00  0.00000000000E+00  0.45593999997E+02  0.45594000000E+02  0.51100000000E-03 0.  1.
         11   -1    0    0    0    0 -0.00000000000E+00 -0.00000000000E+00 -0.45593999997E+02  0.45594000000E+02  0.51100000000E-03 0. -1.
         23    2    1    2    0    0  0.44408920985E-15  0.00000000000E+00  0.71054273576E-14  0.91188000000E+02  0.91188000000E+02 0.  0.
    9900012    2    3    3    0    0  0.20827409292E+01 -0.92684834202E+01 -0.35574383293E+02  0.54367090976E+02  0.40000015497E+02 0.  0.
        -12    1    3    3    0    0 -0.20827409292E+01  0.92684834202E+01  0.35574383293E+02  0.36820909024E+02  0.00000000000E+00 0.  1.
         11    1    4    4    0    0 -0.23642464105E+01  0.34073278656E+01 -0.26876250464E+02  0.27194344697E+02  0.51100000000E-03 0. -1.
        -11    1    4    4    0    0 -0.85356464031E+01 -0.46079634875E+01 -0.23918301375E+00  0.97029787074E+01  0.51100000000E-03 0.  1.
        -12    1    4    4    0    0  0.12982633743E+02 -0.80678477983E+01 -0.84589498159E+01  0.17469767571E+02  0.00000000000E+00 0.  1.
</event>
<event>
 8    1  0.1238315E-006  0.9118800E+02  0.7816164E-02  0.1184000E+00
        -11   -1    0    0    0    0  0.00000000000E+00  0.00000000000E+00  0.45593999997E+02  0.45594000000E+02  0.51100000000E-03 0. -1.
         11   -1    0    0    0    0 -0.00000000000E+00 -0.00000000000E+00 -0.45593999997E+02  0.45594000000E+02  0.51100000000E-03 0.  1.
         23    2    1    2    0    0  0.00000000000E+00  0.00000000000E+00  0.17763568394E-14  0.91188000000E+02  0.91188000000E+02 0.  0.
    9900012    2    3    3    0    0 -0.69160508509E+01  0.34959283156E+02  0.92626395474E+01  0.54367085705E+02  0.40000003481E+02 0.  0.
        -12    1    3    3    0    0  0.69160508509E+01 -0.34959283156E+02 -0.92626395474E+01  0.36820914295E+02  0.00000000000E+00 0.  1.
         11    1    4    4    0    0  0.42827913405E+00  0.85580335128E+01  0.12797632912E+02  0.15401388542E+02  0.51100000000E-03 0. -1.
        -11    1    4    4    0    0  0.12001713191E+01  0.87470333840E+00  0.91062798686E+01  0.92265838983E+01  0.51100000000E-03 0.  1.
        -12    1    4    4    0    0 -0.85445013040E+01  0.25526546305E+02 -0.12641273233E+02  0.29739113264E+02  0.00000000000E+00 0.  1.
</event>
<event>
 8    1  0.1238315E-006  0.9118800E+02  0.7816164E-02  0.1184000E+00
        -11   -1    0    0    0    0  0.00000000000E+00  0.00000000000E+00  0.45593999997E+02  0.45594000000E+02  0.51100000000E-03 0.  1.
         11   -1    0    0    0    0 -0.00000000000E+00 -0.00000000000E+00 -0.45593999997E+02  0.45594000000E+02  0.51100000000E-03 0. -1.
         23    2    1    2    0    0  0.88817841970E-15  0.00000000000E+00  0.00000000000E+00  0.91188000000E+02  0.91188000000E+02 0.  0.
    9900012    2    3    3    0    0 -0.21981953224E+01  0.36614963838E+02  0.32071209323E+01  0.54367173499E+02  0.40000203625E+02 0.  0.
         12    1    3    3    0    0  0.21981953224E+01 -0.36614963838E+02 -0.32071209323E+01  0.36820826501E+02  0.00000000000E+00 0. -1.
         11    1    4    4    0    0  0.16735406709E+02  0.17494203376E+02  0.51404868240E+01  0.24749658473E+02  0.51100000000E-03 0. -1.
        -11    1    4    4    0    0 -0.10026508700E+02  0.24630208870E+01 -0.28339295189E+01  0.10706470258E+02  0.51100000000E-03 0.  1.
         12    1    4    4    0    0 -0.89070933319E+01  0.16657739575E+02  0.90056362722E+00  0.18911044768E+02  0.00000000000E+00 0. -1.
</event>
<event>
 8    1  0.1238315E-006  0.9118800E+02  0.7816164E-02  0.1184000E+00
        -11   -1    0    0    0    0  0.00000000000E+00  0.00000000000E+00  0.45593999997E+02  0.45594000000E+02  0.51100000000E-03 0.  1.
         11   -1    0    0    0    0 -0.00000000000E+00 -0.00000000000E+00 -0.45593999997E+02  0.45594000000E+02  0.51100000000E-03 0. -1.
         23    2    1    2    0    0  0.88817841970E-15 -0.35527136788E-14 -0.35527136788E-14  0.91188000000E+02  0.91188000000E+02 0.  0.
    9900012    2    3    3    0    0  0.79035148646E+01  0.22172423477E+02  0.28314275851E+02  0.54367080307E+02  0.39999991175E+02 0.  0.
         12    1    3    3    0    0 -0.79035148646E+01 -0.22172423477E+02 -0.28314275851E+02  0.36820919693E+02  0.00000000000E+00 0. -1.
         11    1    4    4    0    0  0.15411923728E+01  0.15735437809E+02 -0.66819847775E+00  0.15824846490E+02  0.51100000000E-03 0. -1.
        -11    1    4    4    0    0  0.14463717649E+02  0.84503731120E+01  0.22048921134E+02  0.27690483156E+02  0.51100000000E-03 0.  1.
         12    1    4    4    0    0 -0.81013951574E+01 -0.20133874438E+01  0.69335531947E+01  0.10851750661E+02  0.00000000000E+00 0. -1.
</event>
<event>
 8    1  0.1238315E-006  0.9118800E+02  0.7816164E-02  0.1184000E+00
        -11   -1    0    0    0    0  0.00000000000E+00  0.00000000000E+00  0.45593999997E+02  0.45594000000E+02  0.51100000000E-03 0. -1.
         11   -1    0    0    0    0 -0.00000000000E+00 -0.00000000000E+00 -0.45593999997E+02  0.45594000000E+02  0.51100000000E-03 0.  1.
         23    2    1    2    0    0  0.35527136788E-14 -0.17763568394E-14 -0.35527136788E-14  0.91188000000E+02  0.91188000000E+02 0.  0.
    9900012    2    3    3    0    0  0.29130975357E+02 -0.11847936455E+02 -0.19151814146E+02  0.54367091421E+02  0.40000016512E+02 0.  0.
         12    1    3    3    0    0 -0.29130975357E+02  0.11847936455E+02  0.19151814146E+02  0.36820908579E+02  0.00000000000E+00 0. -1.
         11    1    4    4    0    0  0.23615112433E+02 -0.50941975366E+01 -0.14161828188E+02  0.28003245556E+02  0.51100000000E-03 0. -1.
        -11    1    4    4    0    0 -0.59332071408E+01 -0.90003192451E+01 -0.89828610316E+01  0.14032123363E+02  0.51100000000E-03 0.  1.
         12    1    4    4    0    0  0.11449070065E+02  0.22465803266E+01  0.39928750737E+01  0.12331722502E+02  0.00000000000E+00 0. -1.
</event>
<event>
 8    1  0.1238315E-006  0.9118800E+02  0.7816164E-02  0.1184000E+00
        -11   -1    0    0    0    0  0.00000000000E+00  0.00000000000E+00  0.45593999997E+02  0.45594000000E+02  0.51100000000E-03 0. -1.
         11   -1    0    0    0    0 -0.00000000000E+00 -0.00000000000E+00 -0.45593999997E+02  0.45594000000E+02  0.51100000000E-03 0.  1.
         23    2    1    2    0    0  0.00000000000E+00  0.00000000000E+00  0.71054273576E-14  0.91188000000E+02  0.91188000000E+02 0.  0.
    9900012    2    3    3    0    0  0.55634944148E+01 -0.88130652502E+01  0.35315111987E+02  0.54367085782E+02  0.40000003657E+02 0.  0.
        -12    1    3    3    0    0 -0.55634944148E+01  0.88130652502E+01 -0.35315111987E+02  0.36820914218E+02  0.00000000000E+00 0.  1.
         11    1    4    4    0    0 -0.57518452525E+01 -0.11829043909E+02  0.14259755518E+02  0.19399758538E+02  0.51100000000E-03 0. -1.
        -11    1    4    4    0    0  0.10535855649E+02  0.12912008970E+01 -0.28472355221E+01  0.10989913757E+02  0.51100000000E-03 0.  1.
        -12    1    4    4    0    0  0.77948401854E+00  0.17247777623E+01  0.23902591991E+02  0.23977413487E+02  0.00000000000E+00 0.  1.
</event>
<event>
 8    1  0.1238315E-006  0.9118800E+02  0.7816164E-02  0.1184000E+00
        -11   -1    0    0    0    0  0.00000000000E+00  0.00000000000E+00  0.45593999997E+02  0.45594000000E+02  0.51100000000E-03 0.  1.
         11   -1    0    0    0    0 -0.00000000000E+00 -0.00000000000E+00 -0.45593999997E+02  0.45594000000E+02  0.51100000000E-03 0. -1.
         23    2    1    2    0    0  0.71054273576E-14  0.00000000000E+00  0.55511151231E-16  0.91188000000E+02  0.91188000000E+02 0.  0.
    9900012    2    3    3    0    0  0.35890132939E+02 -0.82244725245E+01  0.19153423363E+00  0.54367078283E+02  0.39999986562E+02 0.  0.
        -12    1    3    3    0    0 -0.35890132939E+02  0.82244725245E+01 -0.19153423363E+00  0.36820921717E+02  0.00000000000E+00 0.  1.
         11    1    4    4    0    0  0.13343819049E+02  0.34221179088E+01 -0.62920293698E+00  0.13790007048E+02  0.51100000000E-03 0. -1.
        -11    1    4    4    0    0  0.29795741939E+02 -0.40838911050E+01  0.11428628569E+01  0.30096021997E+02  0.51100000000E-03 0.  1.
         12    1    4    4    0    0 -0.72494280491E+01 -0.75626993283E+01 -0.32212568629E+00  0.10481049238E+02  0.00000000000E+00 0. -1.
</event>
<event>
 8    1  0.1238315E-006  0.9118800E+02  0.7816164E-02  0.1184000E+00
        -11   -1    0    0    0    0  0.00000000000E+00  0.00000000000E+00  0.45593999997E+02  0.45594000000E+02  0.51100000000E-03 0.  1.
         11   -1    0    0    0    0 -0.00000000000E+00 -0.00000000000E+00 -0.45593999997E+02  0.45594000000E+02  0.51100000000E-03 0. -1.
         23    2    1    2    0    0  0.35527136788E-14 -0.35527136788E-14 -0.35527136788E-14  0.91188000000E+02  0.91188000000E+02 0.  0.
    9900012    2    3    3    0    0 -0.16512261228E+02  0.15443859812E+02  0.29062203328E+02  0.54367092366E+02  0.40000018666E+02 0.  0.
         12    1    3    3    0    0  0.16512261228E+02 -0.15443859812E+02 -0.29062203328E+02  0.36820907634E+02  0.00000000000E+00 0. -1.
         11    1    4    4    0    0 -0.88921917854E+01  0.57580868226E+01  0.76045231867E+00  0.10620966368E+02  0.51100000000E-03 0. -1.
        -11    1    4    4    0    0 -0.19243877220E+02  0.86046588591E+01  0.22043223019E+02  0.30500338456E+02  0.51100000000E-03 0.  1.
         12    1    4    4    0    0  0.11623807778E+02  0.10811141301E+01  0.62585279894E+01  0.13245787542E+02  0.00000000000E+00 0. -1.
</event>
<event>
 8    1  0.1238315E-006  0.9118800E+02  0.7816164E-02  0.1184000E+00
        -11   -1    0    0    0    0  0.00000000000E+00  0.00000000000E+00  0.45593999997E+02  0.45594000000E+02  0.51100000000E-03 0. -1.
         11   -1    0    0    0    0 -0.00000000000E+00 -0.00000000000E+00 -0.45593999997E+02  0.45594000000E+02  0.51100000000E-03 0.  1.
         23    2    1    2    0    0  0.35527136788E-14  0.35527136788E-14  0.00000000000E+00  0.91188000000E+02  0.91188000000E+02 0.  0.
    9900012    2    3    3    0    0  0.21215438072E+02  0.16753584149E+02 -0.25000071175E+02  0.54367069088E+02  0.39999965600E+02 0.  0.
         12    1    3    3    0    0 -0.21215438072E+02 -0.16753584149E+02  0.25000071175E+02  0.36820930912E+02  0.00000000000E+00 0. -1.
         11    1    4    4    0    0  0.62217948737E+01  0.18274497895E+02  0.33785510529E+01  0.19598025723E+02  0.51100000000E-03 0. -1.
        -11    1    4    4    0    0  0.16286444006E+01 -0.28256154974E+01  0.12163505994E+00  0.32636453348E+01  0.51100000000E-03 0.  1.
        -12    1    4    4    0    0  0.13364998798E+02  0.13047017517E+01 -0.28500257288E+02  0.31505398030E+02  0.00000000000E+00 0.  1.
</event>
<event>
 8    1  0.1238315E-006  0.9118800E+02  0.7816164E-02  0.1184000E+00
        -11   -1    0    0    0    0  0.00000000000E+00  0.00000000000E+00  0.45593999997E+02  0.45594000000E+02  0.51100000000E-03 0.  1.
         11   -1    0    0    0    0 -0.00000000000E+00 -0.00000000000E+00 -0.45593999997E+02  0.45594000000E+02  0.51100000000E-03 0. -1.
         23    2    1    2    0    0  0.17763568394E-14  0.59674487574E-15 -0.14210854715E-13  0.91188000000E+02  0.91188000000E+02 0.  0.
    9900012    2    3    3    0    0 -0.10863977286E+02 -0.88534540059E-01  0.35181559091E+02  0.54367137151E+02  0.40000120763E+02 0.  0.
         12    1    3    3    0    0  0.10863977286E+02  0.88534540059E-01 -0.35181559091E+02  0.36820862849E+02  0.00000000000E+00 0. -1.
         11    1    4    4    0    0 -0.72483597132E+01  0.12361534774E+02  0.32594948184E+02  0.35605854966E+02  0.51100000000E-03 0. -1.
        -11    1    4    4    0    0  0.25569978011E+00  0.27001031382E+01  0.14689086523E+01  0.30844176475E+01  0.51100000000E-03 0.  1.
        -12    1    4    4    0    0 -0.38713173533E+01 -0.15150172453E+02  0.11177022553E+01  0.15676864537E+02  0.00000000000E+00 0.  1.
</event>
<event>
 8    1  0.1238315E-006  0.9118800E+02  0.7816164E-02  0.1184000E+00
        -11   -1    0    0    0    0  0.00000000000E+00  0.00000000000E+00  0.45593999997E+02  0.45594000000E+02  0.51100000000E-03 0.  1.
         11   -1    0    0    0    0 -0.00000000000E+00 -0.00000000000E+00 -0.45593999997E+02  0.45594000000E+02  0.51100000000E-03 0. -1.
         23    2    1    2    0    0  0.13322676296E-14 -0.71054273576E-14  0.17763568394E-14  0.91188000000E+02  0.91188000000E+02 0.  0.
    9900012    2    3    3    0    0 -0.11710329175E+01 -0.34147663610E+02  0.13723926118E+02  0.54367076651E+02  0.39999982842E+02 0.  0.
         12    1    3    3    0    0  0.11710329175E+01  0.34147663610E+02 -0.13723926118E+02  0.36820923349E+02  0.00000000000E+00 0. -1.
         11    1    4    4    0    0  0.90108495657E+01 -0.16415074393E+02  0.46754307807E+01  0.19300511145E+02  0.51100000000E-03 0. -1.
        -11    1    4    4    0    0  0.82413137921E+01 -0.85779101796E+00  0.52159113388E+01  0.97908523533E+01  0.51100000000E-03 0.  1.
         12    1    4    4    0    0 -0.18423196275E+02 -0.16874798199E+02  0.38325839989E+01  0.25275713153E+02  0.00000000000E+00 0. -1.
</event>
<event>
 8    1  0.1238315E-006  0.9118800E+02  0.7816164E-02  0.1184000E+00
        -11   -1    0    0    0    0  0.00000000000E+00  0.00000000000E+00  0.45593999997E+02  0.45594000000E+02  0.51100000000E-03 0.  1.
         11   -1    0    0    0    0 -0.00000000000E+00 -0.00000000000E+00 -0.45593999997E+02  0.45594000000E+02  0.51100000000E-03 0. -1.
         23    2    1    2    0    0 -0.17763568394E-14  0.00000000000E+00  0.00000000000E+00  0.91188000000E+02  0.91188000000E+02 0.  0.
    9900012    2    3    3    0    0 -0.12144891862E+02 -0.28025794101E+02  0.20562995896E+02  0.54367077503E+02  0.39999984783E+02 0.  0.
         12    1    3    3    0    0  0.12144891862E+02  0.28025794101E+02 -0.20562995896E+02  0.36820922497E+02  0.00000000000E+00 0. -1.
         11    1    4    4    0    0 -0.71418331486E+00 -0.28764818214E+02  0.16233036009E+02  0.33036892757E+02  0.51100000000E-03 0.  1.
        -11    1    4    4    0    0 -0.14913483155E+02 -0.10354769854E+01  0.70897071901E+01  0.16545335920E+02  0.51100000000E-03 0. -1.
         12    1    4    4    0    0  0.34827746079E+01  0.17745010982E+01 -0.27597473027E+01  0.47848488264E+01  0.00000000000E+00 0. -1.
</event>
<event>
 8    1  0.1238315E-006  0.9118800E+02  0.7816164E-02  0.1184000E+00
        -11   -1    0    0    0    0  0.00000000000E+00  0.00000000000E+00  0.45593999997E+02  0.45594000000E+02  0.51100000000E-03 0. -1.
         11   -1    0    0    0    0 -0.00000000000E+00 -0.00000000000E+00 -0.45593999997E+02  0.45594000000E+02  0.51100000000E-03 0.  1.
         23    2    1    2    0    0  0.00000000000E+00  0.00000000000E+00  0.00000000000E+00  0.91188000000E+02  0.91188000000E+02 0.  0.
    9900012    2    3    3    0    0 -0.20035002653E+02 -0.13311499121E+02 -0.27878144474E+02  0.54366969604E+02  0.39999738805E+02 0.  0.
         12    1    3    3    0    0  0.20035002653E+02  0.13311499121E+02  0.27878144474E+02  0.36821030396E+02  0.00000000000E+00 0. -1.
         11    1    4    4    0    0 -0.94055909722E+00  0.96215874173E+01 -0.74721830644E+01  0.12218556210E+02  0.51100000000E-03 0. -1.
        -11    1    4    4    0    0 -0.17568857184E+02 -0.71816497670E+01 -0.17969105046E+02  0.26136747551E+02  0.51100000000E-03 0.  1.
        -12    1    4    4    0    0 -0.15255863720E+01 -0.15751436771E+02 -0.24368563631E+01  0.16011665843E+02  0.00000000000E+00 0.  1.
</event>
<event>
 8    1  0.1238315E-006  0.9118800E+02  0.7816164E-02  0.1184000E+00
        -11   -1    0    0    0    0  0.00000000000E+00  0.00000000000E+00  0.45593999997E+02  0.45594000000E+02  0.51100000000E-03 0.  1.
         11   -1    0    0    0    0 -0.00000000000E+00 -0.00000000000E+00 -0.45593999997E+02  0.45594000000E+02  0.51100000000E-03 0. -1.
         23    2    1    2    0    0  0.00000000000E+00  0.00000000000E+00  0.00000000000E+00  0.91188000000E+02  0.91188000000E+02 0.  0.
    9900012    2    3    3    0    0 -0.22546369823E+02  0.27398804974E+02  0.98360149194E+01  0.54367075301E+02  0.39999979764E+02 0.  0.
        -12    1    3    3    0    0  0.22546369823E+02 -0.27398804974E+02 -0.98360149194E+01  0.36820924699E+02  0.00000000000E+00 0.  1.
         11    1    4    4    0    0 -0.89912203053E+01  0.18303054457E+02 -0.64087711822E+01  0.21375598082E+02  0.51100000000E-03 0. -1.
        -11    1    4    4    0    0 -0.13256846710E+02  0.70191236352E+01  0.22134926795E+02  0.26738868072E+02  0.51100000000E-03 0.  1.
        -12    1    4    4    0    0 -0.29830280773E+00  0.20766268821E+01 -0.58901406929E+01  0.62526091478E+01  0.00000000000E+00 0.  1.
</event>
<event>
 8    1  0.1238315E-006  0.9118800E+02  0.7816164E-02  0.1184000E+00
        -11   -1    0    0    0    0  0.00000000000E+00  0.00000000000E+00  0.45593999997E+02  0.45594000000E+02  0.51100000000E-03 0.  1.
         11   -1    0    0    0    0 -0.00000000000E+00 -0.00000000000E+00 -0.45593999997E+02  0.45594000000E+02  0.51100000000E-03 0. -1.
         23    2    1    2    0    0  0.88817841970E-15 -0.35527136788E-14  0.00000000000E+00  0.91188000000E+02  0.91188000000E+02 0.  0.
    9900012    2    3    3    0    0 -0.65698187530E+01  0.29423463306E+02 -0.21139457249E+02  0.54367090667E+02  0.40000014792E+02 0.  0.
        -12    1    3    3    0    0  0.65698187530E+01 -0.29423463306E+02  0.21139457249E+02  0.36820909333E+02  0.00000000000E+00 0.  1.
         11    1    4    4    0    0  0.85638209128E+01  0.66121336887E+01 -0.12933826797E+02  0.16862479546E+02  0.51100000000E-03 0. -1.
        -11    1    4    4    0    0  0.56466289385E+01  0.11809015005E+01 -0.44289588343E+01  0.72728689896E+01  0.51100000000E-03 0.  1.
        -12    1    4    4    0    0 -0.20780268604E+02  0.21630428117E+02 -0.37766716174E+01  0.30231742131E+02  0.00000000000E+00 0.  1.
</event>
<event>
 8    1  0.1238315E-006  0.9118800E+02  0.7816164E-02  0.1184000E+00
        -11   -1    0    0    0    0  0.00000000000E+00  0.00000000000E+00  0.45593999997E+02  0.45594000000E+02  0.51100000000E-03 0. -1.
         11   -1    0    0    0    0 -0.00000000000E+00 -0.00000000000E+00 -0.45593999997E+02  0.45594000000E+02  0.51100000000E-03 0.  1.
         23    2    1    2    0    0 -0.17763568394E-14  0.00000000000E+00  0.71054273576E-14  0.91188000000E+02  0.91188000000E+02 0.  0.
    9900012    2    3    3    0    0  0.10717987444E+02  0.16775002547E+02 -0.30975861906E+02  0.54367082221E+02  0.39999995539E+02 0.  0.
         12    1    3    3    0    0 -0.10717987444E+02 -0.16775002547E+02  0.30975861906E+02  0.36820917779E+02  0.00000000000E+00 0. -1.
         11    1    4    4    0    0  0.45129645570E+01 -0.30995854328E+01 -0.21747343973E+01  0.58909887886E+01  0.51100000000E-03 0. -1.
        -11    1    4    4    0    0  0.25611023993E+01 -0.17604951499E+01  0.63329267064E+01  0.70543993084E+01  0.51100000000E-03 0.  1.
        -12    1    4    4    0    0  0.36439204876E+01  0.21635083129E+02 -0.35134054215E+02  0.41421694124E+02  0.00000000000E+00 0.  1.
</event>
<event>
 8    1  0.1238315E-006  0.9118800E+02  0.7816164E-02  0.1184000E+00
        -11   -1    0    0    0    0  0.00000000000E+00  0.00000000000E+00  0.45593999997E+02  0.45594000000E+02  0.51100000000E-03 0.  1.
         11   -1    0    0    0    0 -0.00000000000E+00 -0.00000000000E+00 -0.45593999997E+02  0.45594000000E+02  0.51100000000E-03 0. -1.
         23    2    1    2    0    0 -0.17763568394E-14  0.00000000000E+00  0.00000000000E+00  0.91188000000E+02  0.91188000000E+02 0.  0.
    9900012    2    3    3    0    0 -0.10049107845E+02  0.12861138918E+02 -0.33005806907E+02  0.54367126132E+02  0.40000095644E+02 0.  0.
        -12    1    3    3    0    0  0.10049107845E+02 -0.12861138918E+02  0.33005806907E+02  0.36820873868E+02  0.00000000000E+00 0.  1.
         11    1    4    4    0    0 -0.52127201792E+01  0.87647807973E+01 -0.10030094179E+02  0.14303727612E+02  0.51100000000E-03 0. -1.
        -11    1    4    4    0    0  0.76786338814E+01  0.92636277183E+01  0.14666892950E+01  0.12121361084E+02  0.51100000000E-03 0.  1.
         12    1    4    4    0    0 -0.12515021547E+02 -0.51672695972E+01 -0.24442402024E+02  0.27942037437E+02  0.00000000000E+00 0. -1.
</event>
<event>
 8    1  0.1238315E-006  0.9118800E+02  0.7816164E-02  0.1184000E+00
        -11   -1    0    0    0    0  0.00000000000E+00  0.00000000000E+00  0.45593999997E+02  0.45594000000E+02  0.51100000000E-03 0.  1.
         11   -1    0    0    0    0 -0.00000000000E+00 -0.00000000000E+00 -0.45593999997E+02  0.45594000000E+02  0.51100000000E-03 0. -1.
         23    2    1    2    0    0  0.17763568394E-14  0.00000000000E+00  0.35527136788E-14  0.91188000000E+02  0.91188000000E+02 0.  0.
    9900012    2    3    3    0    0 -0.14200644557E+02  0.28527456924E+02  0.18447373870E+02  0.54367086009E+02  0.40000004175E+02 0.  0.
         12    1    3    3    0    0  0.14200644557E+02 -0.28527456924E+02 -0.18447373870E+02  0.36820913991E+02  0.00000000000E+00 0. -1.
         11    1    4    4    0    0  0.81500817541E+01  0.12837421509E+01  0.54327061907E+01  0.98785688905E+01  0.51100000000E-03 0. -1.
        -11    1    4    4    0    0 -0.18545237464E+02  0.18518701773E+02  0.19759475796E+02  0.32822325206E+02  0.51100000000E-03 0.  1.
         12    1    4    4    0    0 -0.38054888465E+01  0.87250130003E+01 -0.67448081160E+01  0.11666191912E+02  0.00000000000E+00 0. -1.
</event>
<event>
 8    1  0.1238315E-006  0.9118800E+02  0.7816164E-02  0.1184000E+00
        -11   -1    0    0    0    0  0.00000000000E+00  0.00000000000E+00  0.45593999997E+02  0.45594000000E+02  0.51100000000E-03 0.  1.
         11   -1    0    0    0    0 -0.00000000000E+00 -0.00000000000E+00 -0.45593999997E+02  0.45594000000E+02  0.51100000000E-03 0. -1.
         23    2    1    2    0    0  0.00000000000E+00  0.00000000000E+00  0.00000000000E+00  0.91188000000E+02  0.91188000000E+02 0.  0.
    9900012    2    3    3    0    0 -0.30075865221E+02  0.19524199427E+02  0.83683277781E+01  0.54367069242E+02  0.39999965951E+02 0.  0.
         12    1    3    3    0    0  0.30075865221E+02 -0.19524199427E+02 -0.83683277781E+01  0.36820930758E+02  0.00000000000E+00 0. -1.
         11    1    4    4    0    0 -0.31673883103E+01  0.73610583520E+01  0.37838739304E+01  0.88620105480E+01  0.51100000000E-03 0. -1.
        -11    1    4    4    0    0 -0.34494608490E+01  0.13831939868E+01  0.16612667332E+02  0.17023299383E+02  0.51100000000E-03 0.  1.
        -12    1    4    4    0    0 -0.23459016062E+02  0.10779947088E+02 -0.12028213484E+02  0.28481759311E+02  0.00000000000E+00 0.  1.
</event>
<event>
 8    1  0.1238315E-006  0.9118800E+02  0.7816164E-02  0.1184000E+00
        -11   -1    0    0    0    0  0.00000000000E+00  0.00000000000E+00  0.45593999997E+02  0.45594000000E+02  0.51100000000E-03 0.  1.
         11   -1    0    0    0    0 -0.00000000000E+00 -0.00000000000E+00 -0.45593999997E+02  0.45594000000E+02  0.51100000000E-03 0. -1.
         23    2    1    2    0    0  0.00000000000E+00 -0.35527136788E-14  0.00000000000E+00  0.91188000000E+02  0.91188000000E+02 0.  0.
    9900012    2    3    3    0    0  0.17678197791E+02 -0.25895593160E+02  0.19304973134E+02  0.54367049307E+02  0.39999920506E+02 0.  0.
         12    1    3    3    0    0 -0.17678197791E+02  0.25895593160E+02 -0.19304973134E+02  0.36820950693E+02  0.00000000000E+00 0. -1.
         11    1    4    4    0    0  0.60664721016E+00 -0.36605223117E+01  0.22761840733E+02  0.23062281723E+02  0.51100000000E-03 0. -1.
        -11    1    4    4    0    0  0.11175912685E+02 -0.19130030373E+02  0.25906722087E+01  0.22306292143E+02  0.51100000000E-03 0.  1.
        -12    1    4    4    0    0  0.58956378951E+01 -0.31050404748E+01 -0.60475398079E+01  0.89984754413E+01  0.00000000000E+00 0.  1.
</event>
<event>
 8    1  0.1238315E-006  0.9118800E+02  0.7816164E-02  0.1184000E+00
        -11   -1    0    0    0    0  0.00000000000E+00  0.00000000000E+00  0.45593999997E+02  0.45594000000E+02  0.51100000000E-03 0. -1.
         11   -1    0    0    0    0 -0.00000000000E+00 -0.00000000000E+00 -0.45593999997E+02  0.45594000000E+02  0.51100000000E-03 0.  1.
         23    2    1    2    0    0  0.00000000000E+00  0.00000000000E+00  0.00000000000E+00  0.91188000000E+02  0.91188000000E+02 0.  0.
    9900012    2    3    3    0    0  0.17692522956E+02  0.65518808727E+01  0.31619992867E+02  0.54367130097E+02  0.40000104681E+02 0.  0.
        -12    1    3    3    0    0 -0.17692522956E+02 -0.65518808727E+01 -0.31619992867E+02  0.36820869903E+02  0.00000000000E+00 0.  1.
         11    1    4    4    0    0  0.11648927208E+02  0.94394259605E+01  0.81318397297E+01  0.17056584805E+02  0.51100000000E-03 0. -1.
        -11    1    4    4    0    0 -0.36477704775E+01  0.79684171628E+01 -0.10042619006E+01  0.88210228298E+01  0.51100000000E-03 0.  1.
        -12    1    4    4    0    0  0.96913662260E+01 -0.10855962251E+02  0.24492415038E+02  0.28489522462E+02  0.00000000000E+00 0.  1.
</event>
<event>
 8    1  0.1238315E-006  0.9118800E+02  0.7816164E-02  0.1184000E+00
        -11   -1    0    0    0    0  0.00000000000E+00  0.00000000000E+00  0.45593999997E+02  0.45594000000E+02  0.51100000000E-03 0. -1.
         11   -1    0    0    0    0 -0.00000000000E+00 -0.00000000000E+00 -0.45593999997E+02  0.45594000000E+02  0.51100000000E-03 0.  1.
         23    2    1    2    0    0  0.35527136788E-14  0.00000000000E+00  0.44408920985E-15  0.91188000000E+02  0.91188000000E+02 0.  0.
    9900012    2    3    3    0    0  0.31629426781E+02 -0.18655443210E+02 -0.27081672210E+01  0.54367077014E+02  0.39999983668E+02 0.  0.
         12    1    3    3    0    0 -0.31629426781E+02  0.18655443210E+02  0.27081672210E+01  0.36820922986E+02  0.00000000000E+00 0. -1.
         11    1    4    4    0    0 -0.55340565699E+00 -0.88447028855E+01  0.16229575838E+01  0.90093850253E+01  0.51100000000E-03 0. -1.
        -11    1    4    4    0    0  0.27961847570E+02 -0.58119331549E+01 -0.15698445017E+02  0.32589640421E+02  0.51100000000E-03 0.  1.
        -12    1    4    4    0    0  0.42209848679E+01 -0.39988071697E+01  0.11367320212E+02  0.12768051568E+02  0.00000000000E+00 0.  1.
</event>
<event>
 8    1  0.1238315E-006  0.9118800E+02  0.7816164E-02  0.1184000E+00
        -11   -1    0    0    0    0  0.00000000000E+00  0.00000000000E+00  0.45593999997E+02  0.45594000000E+02  0.51100000000E-03 0.  1.
         11   -1    0    0    0    0 -0.00000000000E+00 -0.00000000000E+00 -0.45593999997E+02  0.45594000000E+02  0.51100000000E-03 0. -1.
         23    2    1    2    0    0  0.00000000000E+00 -0.35527136788E-14  0.00000000000E+00  0.91188000000E+02  0.91188000000E+02 0.  0.
    9900012    2    3    3    0    0 -0.13270831137E+02 -0.17855019888E+02 -0.29340472069E+02  0.54367082093E+02  0.39999995248E+02 0.  0.
        -12    1    3    3    0    0  0.13270831137E+02  0.17855019888E+02  0.29340472069E+02  0.36820917907E+02  0.00000000000E+00 0.  1.
         11    1    4    4    0    0 -0.10711932018E+02 -0.38721223725E+01 -0.47903375572E+01  0.12356623867E+02  0.51100000000E-03 0. -1.
        -11    1    4    4    0    0 -0.13815132798E+02 -0.13633676723E+02 -0.23817899859E+02  0.30725028709E+02  0.51100000000E-03 0.  1.
        -12    1    4    4    0    0  0.11256233679E+02 -0.34922079267E+00 -0.73223465241E+00  0.11285429517E+02  0.00000000000E+00 0.  1.
</event>
<event>
 8    1  0.1238315E-006  0.9118800E+02  0.7816164E-02  0.1184000E+00
        -11   -1    0    0    0    0  0.00000000000E+00  0.00000000000E+00  0.45593999997E+02  0.45594000000E+02  0.51100000000E-03 0.  1.
         11   -1    0    0    0    0 -0.00000000000E+00 -0.00000000000E+00 -0.45593999997E+02  0.45594000000E+02  0.51100000000E-03 0. -1.
         23    2    1    2    0    0 -0.44408920985E-15  0.00000000000E+00  0.13322676296E-14  0.91188000000E+02  0.91188000000E+02 0.  0.
    9900012    2    3    3    0    0 -0.27449362714E+01  0.36643139728E+02  0.23506615446E+01  0.54367082385E+02  0.39999995914E+02 0.  0.
        -12    1    3    3    0    0  0.27449362714E+01 -0.36643139728E+02 -0.23506615446E+01  0.36820917615E+02  0.00000000000E+00 0.  1.
         11    1    4    4    0    0 -0.10342853114E+02  0.25014985456E+02 -0.15502310381E+02  0.31193681016E+02  0.51100000000E-03 0. -1.
        -11    1    4    4    0    0  0.50485721635E+01  0.60243783016E+01  0.62645129380E+01  0.10051136126E+02  0.51100000000E-03 0.  1.
         12    1    4    4    0    0  0.25493446790E+01  0.56037759710E+01  0.11588458987E+02  0.13122265244E+02  0.00000000000E+00 0. -1.
</event>
<event>
 8    1  0.1238315E-006  0.9118800E+02  0.7816164E-02  0.1184000E+00
        -11   -1    0    0    0    0  0.00000000000E+00  0.00000000000E+00  0.45593999997E+02  0.45594000000E+02  0.51100000000E-03 0.  1.
         11   -1    0    0    0    0 -0.00000000000E+00 -0.00000000000E+00 -0.45593999997E+02  0.45594000000E+02  0.51100000000E-03 0. -1.
         23    2    1    2    0    0  0.35527136788E-14 -0.22204460493E-15  0.00000000000E+00  0.91188000000E+02  0.91188000000E+02 0.  0.
    9900012    2    3    3    0    0  0.28198913351E+02 -0.14652842973E+01 -0.23631637045E+02  0.54367081466E+02  0.39999993818E+02 0.  0.
         12    1    3    3    0    0 -0.28198913351E+02  0.14652842973E+01  0.23631637045E+02  0.36820918534E+02  0.00000000000E+00 0. -1.
         11    1    4    4    0    0  0.16036568311E+02  0.37080377277E+01 -0.17840511401E+02  0.24273543505E+02  0.51100000000E-03 0. -1.
        -11    1    4    4    0    0  0.17888995688E+02  0.10528748933E+00  0.32267525129E+01  0.18177986253E+02  0.51100000000E-03 0.  1.
         12    1    4    4    0    0 -0.57266506478E+01 -0.52786095144E+01 -0.90178781572E+01  0.11915551708E+02  0.00000000000E+00 0. -1.
</event>
<event>
 8    1  0.1238315E-006  0.9118800E+02  0.7816164E-02  0.1184000E+00
        -11   -1    0    0    0    0  0.00000000000E+00  0.00000000000E+00  0.45593999997E+02  0.45594000000E+02  0.51100000000E-03 0. -1.
         11   -1    0    0    0    0 -0.00000000000E+00 -0.00000000000E+00 -0.45593999997E+02  0.45594000000E+02  0.51100000000E-03 0.  1.
         23    2    1    2    0    0  0.00000000000E+00  0.00000000000E+00  0.00000000000E+00  0.91188000000E+02  0.91188000000E+02 0.  0.
    9900012    2    3    3    0    0 -0.33678159275E+02  0.90514684357E+01 -0.11816619702E+02  0.54367082111E+02  0.39999995288E+02 0.  0.
         12    1    3    3    0    0  0.33678159275E+02 -0.90514684357E+01  0.11816619702E+02  0.36820917889E+02  0.00000000000E+00 0. -1.
         11    1    4    4    0    0  0.67663209070E+01  0.72473594629E+01 -0.30604133726E+01  0.10376581714E+02  0.51100000000E-03 0. -1.
        -11    1    4    4    0    0 -0.25455269290E+02  0.81405973739E+01 -0.39033866362E+01  0.27008822406E+02  0.51100000000E-03 0.  1.
         12    1    4    4    0    0 -0.14989210892E+02 -0.63364884011E+01 -0.48528196935E+01  0.16981677991E+02  0.00000000000E+00 0. -1.
</event>
<event>
 8    1  0.1238315E-006  0.9118800E+02  0.7816164E-02  0.1184000E+00
        -11   -1    0    0    0    0  0.00000000000E+00  0.00000000000E+00  0.45593999997E+02  0.45594000000E+02  0.51100000000E-03 0.  1.
         11   -1    0    0    0    0 -0.00000000000E+00 -0.00000000000E+00 -0.45593999997E+02  0.45594000000E+02  0.51100000000E-03 0. -1.
         23    2    1    2    0    0  0.00000000000E+00  0.00000000000E+00  0.00000000000E+00  0.91188000000E+02  0.91188000000E+02 0.  0.
    9900012    2    3    3    0    0  0.12206629473E+02 -0.19970277906E+02  0.28424741946E+02  0.54367085326E+02  0.40000002617E+02 0.  0.
         12    1    3    3    0    0 -0.12206629473E+02  0.19970277906E+02 -0.28424741946E+02  0.36820914674E+02  0.00000000000E+00 0. -1.
         11    1    4    4    0    0  0.65187832972E+01  0.79503469039E+01  0.12628692384E+02  0.16284545532E+02  0.51100000000E-03 0. -1.
        -11    1    4    4    0    0  0.11558285661E+02 -0.24820862311E+02  0.15442203069E+02  0.31434548019E+02  0.51100000000E-03 0.  1.
         12    1    4    4    0    0 -0.58704394854E+01 -0.30997624996E+01  0.35384649298E+00  0.66479917754E+01  0.00000000000E+00 0. -1.
</event>
<event>
 8    1  0.1238315E-006  0.9118800E+02  0.7816164E-02  0.1184000E+00
        -11   -1    0    0    0    0  0.00000000000E+00  0.00000000000E+00  0.45593999997E+02  0.45594000000E+02  0.51100000000E-03 0. -1.
         11   -1    0    0    0    0 -0.00000000000E+00 -0.00000000000E+00 -0.45593999997E+02  0.45594000000E+02  0.51100000000E-03 0.  1.
         23    2    1    2    0    0 -0.35527136788E-14  0.00000000000E+00  0.00000000000E+00  0.91188000000E+02  0.91188000000E+02 0.  0.
    9900012    2    3    3    0    0  0.25525806886E+02 -0.85899100764E+01  0.25108292985E+02  0.54367085442E+02  0.40000002881E+02 0.  0.
        -12    1    3    3    0    0 -0.25525806886E+02  0.85899100764E+01 -0.25108292985E+02  0.36820914558E+02  0.00000000000E+00 0.  1.
         11    1    4    4    0    0  0.24847416667E+02 -0.35938945301E+01  0.77964203367E+01  0.26288673668E+02  0.51100000000E-03 0. -1.
        -11    1    4    4    0    0  0.78290415999E+01 -0.91866376684E+01  0.15410868814E+02  0.19575062756E+02  0.51100000000E-03 0.  1.
         12    1    4    4    0    0 -0.71506513804E+01  0.41906221221E+01  0.19010038336E+01  0.85033490173E+01  0.00000000000E+00 0. -1.
</event>
<event>
 8    1  0.1238315E-006  0.9118800E+02  0.7816164E-02  0.1184000E+00
        -11   -1    0    0    0    0  0.00000000000E+00  0.00000000000E+00  0.45593999997E+02  0.45594000000E+02  0.51100000000E-03 0.  1.
         11   -1    0    0    0    0 -0.00000000000E+00 -0.00000000000E+00 -0.45593999997E+02  0.45594000000E+02  0.51100000000E-03 0. -1.
         23    2    1    2    0    0  0.00000000000E+00 -0.17763568394E-14  0.00000000000E+00  0.91188000000E+02  0.91188000000E+02 0.  0.
    9900012    2    3    3    0    0  0.23400011990E+02 -0.12026351947E+02 -0.25760160951E+02  0.54367087538E+02  0.40000007660E+02 0.  0.
        -12    1    3    3    0    0 -0.23400011990E+02  0.12026351947E+02  0.25760160951E+02  0.36820912462E+02  0.00000000000E+00 0.  1.
         11    1    4    4    0    0  0.25158505854E+02 -0.21496869886E+02 -0.15522013297E+02  0.36551316375E+02  0.51100000000E-03 0.  1.
        -11    1    4    4    0    0 -0.33779413517E+01  0.10762739536E+02 -0.53056750351E+01  0.12465842849E+02  0.51100000000E-03 0. -1.
         12    1    4    4    0    0  0.16194474880E+01 -0.12922215979E+01 -0.49324726193E+01  0.53499283140E+01  0.00000000000E+00 0. -1.
</event>
<event>
 8    1  0.1238315E-006  0.9118800E+02  0.7816164E-02  0.1184000E+00
        -11   -1    0    0    0    0  0.00000000000E+00  0.00000000000E+00  0.45593999997E+02  0.45594000000E+02  0.51100000000E-03 0.  1.
         11   -1    0    0    0    0 -0.00000000000E+00 -0.00000000000E+00 -0.45593999997E+02  0.45594000000E+02  0.51100000000E-03 0. -1.
         23    2    1    2    0    0  0.00000000000E+00  0.00000000000E+00  0.35527136788E-14  0.91188000000E+02  0.91188000000E+02 0.  0.
    9900012    2    3    3    0    0  0.20931225613E+02 -0.22227582317E+02 -0.20581520856E+02  0.54367073585E+02  0.39999975851E+02 0.  0.
        -12    1    3    3    0    0 -0.20931225613E+02  0.22227582317E+02  0.20581520856E+02  0.36820926415E+02  0.00000000000E+00 0.  1.
         11    1    4    4    0    0  0.14993231443E+02 -0.12524797639E+02 -0.16269374165E+01  0.19603940181E+02  0.51100000000E-03 0. -1.
        -11    1    4    4    0    0 -0.17963326803E+01 -0.13816184332E+02 -0.21518842828E+02  0.25635412178E+02  0.51100000000E-03 0.  1.
         12    1    4    4    0    0  0.77343268509E+01  0.41133996543E+01  0.25642593892E+01  0.91277212254E+01  0.00000000000E+00 0. -1.
</event>
<event>
 8    1  0.1238315E-006  0.9118800E+02  0.7816164E-02  0.1184000E+00
        -11   -1    0    0    0    0  0.00000000000E+00  0.00000000000E+00  0.45593999997E+02  0.45594000000E+02  0.51100000000E-03 0.  1.
         11   -1    0    0    0    0 -0.00000000000E+00 -0.00000000000E+00 -0.45593999997E+02  0.45594000000E+02  0.51100000000E-03 0. -1.
         23    2    1    2    0    0  0.17763568394E-14  0.35527136788E-14 -0.35527136788E-14  0.91188000000E+02  0.91188000000E+02 0.  0.
    9900012    2    3    3    0    0  0.13825998296E+02  0.29308038728E+02  0.17483153890E+02  0.54367081585E+02  0.39999994089E+02 0.  0.
         12    1    3    3    0    0 -0.13825998296E+02 -0.29308038728E+02 -0.17483153890E+02  0.36820918415E+02  0.00000000000E+00 0. -1.
         11    1    4    4    0    0 -0.10604333895E+01 -0.33521721002E+00 -0.14962906587E+01  0.18643431948E+01  0.51100000000E-03 0. -1.
        -11    1    4    4    0    0 -0.11004798180E+02  0.76591379713E+01 -0.36902510868E+00  0.13412835540E+02  0.51100000000E-03 0.  1.
        -12    1    4    4    0    0  0.25891229865E+02  0.21984117967E+02  0.19348469658E+02  0.39089902850E+02  0.00000000000E+00 0.  1.
</event>
<event>
 8    1  0.1238315E-006  0.9118800E+02  0.7816164E-02  0.1184000E+00
        -11   -1    0    0    0    0  0.00000000000E+00  0.00000000000E+00  0.45593999997E+02  0.45594000000E+02  0.51100000000E-03 0. -1.
         11   -1    0    0    0    0 -0.00000000000E+00 -0.00000000000E+00 -0.45593999997E+02  0.45594000000E+02  0.51100000000E-03 0.  1.
         23    2    1    2    0    0  0.17763568394E-14  0.00000000000E+00  0.00000000000E+00  0.91188000000E+02  0.91188000000E+02 0.  0.
    9900012    2    3    3    0    0  0.13834729520E+02  0.24848059657E+02 -0.23387054562E+02  0.54367080258E+02  0.39999991064E+02 0.  0.
         12    1    3    3    0    0 -0.13834729520E+02 -0.24848059657E+02  0.23387054562E+02  0.36820919742E+02  0.00000000000E+00 0. -1.
         11    1    4    4    0    0 -0.68611843581E+01  0.25210825104E+00 -0.79160443567E+01  0.10478700677E+02  0.51100000000E-03 0. -1.
        -11    1    4    4    0    0 -0.58384038100E+01  0.18779666453E+01 -0.26033655969E+01  0.66626744227E+01  0.51100000000E-03 0.  1.
         12    1    4    4    0    0  0.26534317688E+02  0.22717984760E+02 -0.12867644608E+02  0.37225705158E+02  0.00000000000E+00 0. -1.
</event>
<event>
 8    1  0.1238315E-006  0.9118800E+02  0.7816164E-02  0.1184000E+00
        -11   -1    0    0    0    0  0.00000000000E+00  0.00000000000E+00  0.45593999997E+02  0.45594000000E+02  0.51100000000E-03 0. -1.
         11   -1    0    0    0    0 -0.00000000000E+00 -0.00000000000E+00 -0.45593999997E+02  0.45594000000E+02  0.51100000000E-03 0.  1.
         23    2    1    2    0    0  0.00000000000E+00  0.00000000000E+00  0.00000000000E+00  0.91188000000E+02  0.91188000000E+02 0.  0.
    9900012    2    3    3    0    0 -0.15378800808E+02 -0.82692598014E+01 -0.32417440445E+02  0.54367100813E+02  0.40000037922E+02 0.  0.
         12    1    3    3    0    0  0.15378800808E+02  0.82692598014E+01  0.32417440445E+02  0.36820899187E+02  0.00000000000E+00 0. -1.
         11    1    4    4    0    0  0.16873226380E+01 -0.24723963929E+01  0.71348154101E+01  0.77372729567E+01  0.51100000000E-03 0. -1.
        -11    1    4    4    0    0 -0.19918222048E+02 -0.48265535667E+01 -0.38150708522E+02  0.43307132783E+02  0.51100000000E-03 0.  1.
        -12    1    4    4    0    0  0.28520986015E+01 -0.97030984192E+00 -0.14015473332E+01  0.33226950731E+01  0.00000000000E+00 0.  1.
</event>
<event>
 8    1  0.1238315E-006  0.9118800E+02  0.7816164E-02  0.1184000E+00
        -11   -1    0    0    0    0  0.00000000000E+00  0.00000000000E+00  0.45593999997E+02  0.45594000000E+02  0.51100000000E-03 0.  1.
         11   -1    0    0    0    0 -0.00000000000E+00 -0.00000000000E+00 -0.45593999997E+02  0.45594000000E+02  0.51100000000E-03 0. -1.
         23    2    1    2    0    0 -0.88817841970E-15  0.00000000000E+00  0.00000000000E+00  0.91188000000E+02  0.91188000000E+02 0.  0.
    9900012    2    3    3    0    0 -0.41339494400E+01 -0.36184038760E+02  0.54224356106E+01  0.54367122676E+02  0.40000087765E+02 0.  0.
         12    1    3    3    0    0  0.41339494400E+01  0.36184038760E+02 -0.54224356106E+01  0.36820877324E+02  0.00000000000E+00 0. -1.
         11    1    4    4    0    0 -0.12061341675E+02 -0.13347904887E+02  0.19867821897E+01  0.18099442854E+02  0.51100000000E-03 0. -1.
        -11    1    4    4    0    0 -0.74011056728E+01 -0.18719169805E+02  0.32834052299E+01  0.20395206141E+02  0.51100000000E-03 0.  1.
        -12    1    4    4    0    0  0.15328497908E+02 -0.41169640683E+01  0.15224819094E+00  0.15872473682E+02  0.00000000000E+00 0.  1.
</event>
<event>
 8    1  0.1238315E-006  0.9118800E+02  0.7816164E-02  0.1184000E+00
        -11   -1    0    0    0    0  0.00000000000E+00  0.00000000000E+00  0.45593999997E+02  0.45594000000E+02  0.51100000000E-03 0.  1.
         11   -1    0    0    0    0 -0.00000000000E+00 -0.00000000000E+00 -0.45593999997E+02  0.45594000000E+02  0.51100000000E-03 0. -1.
         23    2    1    2    0    0  0.35527136788E-14  0.35527136788E-14  0.00000000000E+00  0.91188000000E+02  0.91188000000E+02 0.  0.
    9900012    2    3    3    0    0  0.17733469261E+02  0.27616592483E+02 -0.16692241532E+02  0.54367040754E+02  0.39999901007E+02 0.  0.
        -12    1    3    3    0    0 -0.17733469261E+02 -0.27616592483E+02  0.16692241532E+02  0.36820959246E+02  0.00000000000E+00 0.  1.
         11    1    4    4    0    0  0.20211870359E+01  0.95841176038E+01  0.61465578368E+01  0.11563765856E+02  0.51100000000E-03 0. -1.
        -11    1    4    4    0    0 -0.71787778841E+00  0.22070268478E+01 -0.19629784133E+02  0.19766505544E+02  0.51100000000E-03 0.  1.
         12    1    4    4    0    0  0.16430160014E+02  0.15825448032E+02 -0.32090152356E+01  0.23036769354E+02  0.00000000000E+00 0. -1.
</event>
<event>
 8    1  0.1238315E-006  0.9118800E+02  0.7816164E-02  0.1184000E+00
        -11   -1    0    0    0    0  0.00000000000E+00  0.00000000000E+00  0.45593999997E+02  0.45594000000E+02  0.51100000000E-03 0.  1.
         11   -1    0    0    0    0 -0.00000000000E+00 -0.00000000000E+00 -0.45593999997E+02  0.45594000000E+02  0.51100000000E-03 0. -1.
         23    2    1    2    0    0 -0.35527136788E-14  0.88817841970E-15  0.10658141036E-13  0.91188000000E+02  0.91188000000E+02 0.  0.
    9900012    2    3    3    0    0 -0.25304124724E+02 -0.49735824886E+01 -0.26282050439E+02  0.54367062667E+02  0.39999950962E+02 0.  0.
         12    1    3    3    0    0  0.25304124724E+02  0.49735824886E+01  0.26282050439E+02  0.36820937333E+02  0.00000000000E+00 0. -1.
         11    1    4    4    0    0 -0.19569067798E+02 -0.10002614902E+02 -0.23027397491E+02  0.31831772726E+02  0.51100000000E-03 0. -1.
        -11    1    4    4    0    0 -0.42090914236E+01  0.22711019329E+01  0.88323157396E+01  0.10044110522E+02  0.51100000000E-03 0.  1.
        -12    1    4    4    0    0 -0.15259655023E+01  0.27579304803E+01 -0.12086968687E+02  0.12491179419E+02  0.00000000000E+00 0.  1.
</event>
<event>
 8    1  0.1238315E-006  0.9118800E+02  0.7816164E-02  0.1184000E+00
        -11   -1    0    0    0    0  0.00000000000E+00  0.00000000000E+00  0.45593999997E+02  0.45594000000E+02  0.51100000000E-03 0.  1.
         11   -1    0    0    0    0 -0.00000000000E+00 -0.00000000000E+00 -0.45593999997E+02  0.45594000000E+02  0.51100000000E-03 0. -1.
         23    2    1    2    0    0  0.26645352591E-14  0.00000000000E+00  0.00000000000E+00  0.91188000000E+02  0.91188000000E+02 0.  0.
    9900012    2    3    3    0    0 -0.40884375563E+01 -0.11790534551E+02  0.34641716843E+02  0.54367074258E+02  0.39999977387E+02 0.  0.
         12    1    3    3    0    0  0.40884375563E+01  0.11790534551E+02 -0.34641716843E+02  0.36820925742E+02  0.00000000000E+00 0. -1.
         11    1    4    4    0    0  0.10076484998E+02 -0.12305782709E+01  0.60635268364E+01  0.11824391348E+02  0.51100000000E-03 0. -1.
        -11    1    4    4    0    0 -0.17379692219E+02  0.96105437277E+00  0.24190955578E+02  0.29802343183E+02  0.51100000000E-03 0.  1.
         12    1    4    4    0    0  0.32147696649E+01 -0.11521010653E+02  0.43872344283E+01  0.12740339728E+02  0.00000000000E+00 0. -1.
</event>
<event>
 8    1  0.1238315E-006  0.9118800E+02  0.7816164E-02  0.1184000E+00
        -11   -1    0    0    0    0  0.00000000000E+00  0.00000000000E+00  0.45593999997E+02  0.45594000000E+02  0.51100000000E-03 0.  1.
         11   -1    0    0    0    0 -0.00000000000E+00 -0.00000000000E+00 -0.45593999997E+02  0.45594000000E+02  0.51100000000E-03 0. -1.
         23    2    1    2    0    0  0.44408920985E-15  0.00000000000E+00  0.00000000000E+00  0.91188000000E+02  0.91188000000E+02 0.  0.
    9900012    2    3    3    0    0 -0.23156486098E+01  0.10081697365E+02  0.35338063843E+02  0.54367060218E+02  0.39999945380E+02 0.  0.
         12    1    3    3    0    0  0.23156486098E+01 -0.10081697365E+02 -0.35338063843E+02  0.36820939782E+02  0.00000000000E+00 0. -1.
         11    1    4    4    0    0  0.10134050892E+02  0.11297582328E+02  0.24867745018E+02  0.29133127132E+02  0.51100000000E-03 0. -1.
        -11    1    4    4    0    0 -0.51723881476E+01  0.30520209335E+01  0.14639490512E+02  0.15823498780E+02  0.51100000000E-03 0.  1.
         12    1    4    4    0    0 -0.72773113545E+01 -0.42679058959E+01 -0.41691716871E+01  0.94104343068E+01  0.00000000000E+00 0. -1.
</event>
<event>
 8    1  0.1238315E-006  0.9118800E+02  0.7816164E-02  0.1184000E+00
        -11   -1    0    0    0    0  0.00000000000E+00  0.00000000000E+00  0.45593999997E+02  0.45594000000E+02  0.51100000000E-03 0.  1.
         11   -1    0    0    0    0 -0.00000000000E+00 -0.00000000000E+00 -0.45593999997E+02  0.45594000000E+02  0.51100000000E-03 0. -1.
         23    2    1    2    0    0  0.00000000000E+00  0.00000000000E+00  0.00000000000E+00  0.91188000000E+02  0.91188000000E+02 0.  0.
    9900012    2    3    3    0    0  0.16670625849E+02  0.21266217706E+02 -0.25012324581E+02  0.54367106982E+02  0.40000051986E+02 0.  0.
        -12    1    3    3    0    0 -0.16670625849E+02 -0.21266217706E+02  0.25012324581E+02  0.36820893018E+02  0.00000000000E+00 0.  1.
         11    1    4    4    0    0  0.32171109653E+01  0.55213166231E+01 -0.52387303053E+01  0.82631129538E+01  0.51100000000E-03 0. -1.
        -11    1    4    4    0    0  0.19168998692E+02  0.48592192849E+01  0.32141789442E+01  0.20034806449E+02  0.51100000000E-03 0.  1.
         12    1    4    4    0    0 -0.57154838090E+01  0.10885681799E+02 -0.22987773220E+02  0.26069187578E+02  0.00000000000E+00 0. -1.
</event>
<event>
 8    1  0.1238315E-006  0.9118800E+02  0.7816164E-02  0.1184000E+00
        -11   -1    0    0    0    0  0.00000000000E+00  0.00000000000E+00  0.45593999997E+02  0.45594000000E+02  0.51100000000E-03 0. -1.
         11   -1    0    0    0    0 -0.00000000000E+00 -0.00000000000E+00 -0.45593999997E+02  0.45594000000E+02  0.51100000000E-03 0.  1.
         23    2    1    2    0    0  0.00000000000E+00  0.00000000000E+00  0.00000000000E+00  0.91188000000E+02  0.91188000000E+02 0.  0.
    9900012    2    3    3    0    0 -0.19128322302E+02  0.15681244588E+02  0.27276094949E+02  0.54367088800E+02  0.40000010538E+02 0.  0.
        -12    1    3    3    0    0  0.19128322302E+02 -0.15681244588E+02 -0.27276094949E+02  0.36820911200E+02  0.00000000000E+00 0.  1.
         11    1    4    4    0    0  0.45127818628E+01  0.31094492356E+01  0.15527726125E+02  0.16466455404E+02  0.51100000000E-03 0. -1.
        -11    1    4    4    0    0 -0.21019272656E+02  0.38343584237E+01 -0.19367793856E+01  0.21453746576E+02  0.51100000000E-03 0.  1.
        -12    1    4    4    0    0 -0.26218315082E+01  0.87374369287E+01  0.13685148210E+02  0.16446886820E+02  0.00000000000E+00 0.  1.
</event>
<event>
 8    1  0.1238315E-006  0.9118800E+02  0.7816164E-02  0.1184000E+00
        -11   -1    0    0    0    0  0.00000000000E+00  0.00000000000E+00  0.45593999997E+02  0.45594000000E+02  0.51100000000E-03 0.  1.
         11   -1    0    0    0    0 -0.00000000000E+00 -0.00000000000E+00 -0.45593999997E+02  0.45594000000E+02  0.51100000000E-03 0. -1.
         23    2    1    2    0    0  0.00000000000E+00  0.00000000000E+00  0.35527136788E-14  0.91188000000E+02  0.91188000000E+02 0.  0.
    9900012    2    3    3    0    0 -0.79871147506E+01  0.17615591886E+02  0.31331733749E+02  0.54367073623E+02  0.39999975939E+02 0.  0.
         12    1    3    3    0    0  0.79871147506E+01 -0.17615591886E+02 -0.31331733749E+02  0.36820926377E+02  0.00000000000E+00 0. -1.
         11    1    4    4    0    0 -0.11559331453E+02  0.35641339806E+01  0.29858195982E+01  0.12459386566E+02  0.51100000000E-03 0. -1.
        -11    1    4    4    0    0 -0.10675517809E+02  0.72665041309E+01  0.52611022470E+01  0.13944459828E+02  0.51100000000E-03 0.  1.
        -12    1    4    4    0    0  0.14247734512E+02  0.67849537746E+01  0.23084811904E+02  0.27963227229E+02  0.00000000000E+00 0.  1.
</event>
<event>
 8    1  0.1238315E-006  0.9118800E+02  0.7816164E-02  0.1184000E+00
        -11   -1    0    0    0    0  0.00000000000E+00  0.00000000000E+00  0.45593999997E+02  0.45594000000E+02  0.51100000000E-03 0.  1.
         11   -1    0    0    0    0 -0.00000000000E+00 -0.00000000000E+00 -0.45593999997E+02  0.45594000000E+02  0.51100000000E-03 0. -1.
         23    2    1    2    0    0 -0.35527136788E-14  0.00000000000E+00  0.00000000000E+00  0.91188000000E+02  0.91188000000E+02 0.  0.
    9900012    2    3    3    0    0 -0.24459173920E+02  0.16991411824E+02 -0.21652269760E+02  0.54367081347E+02  0.39999993548E+02 0.  0.
        -12    1    3    3    0    0  0.24459173920E+02 -0.16991411824E+02  0.21652269760E+02  0.36820918653E+02  0.00000000000E+00 0.  1.
         11    1    4    4    0    0 -0.38970509300E+01  0.13275880280E+02 -0.15449902116E+02  0.20739707781E+02  0.51100000000E-03 0. -1.
        -11    1    4    4    0    0 -0.90287976346E+01  0.14179690965E+02 -0.65741761813E+01  0.18050003194E+02  0.51100000000E-03 0.  1.
         12    1    4    4    0    0 -0.11533325356E+02 -0.10464159421E+02  0.37180853731E+00  0.15577370373E+02  0.00000000000E+00 0. -1.
</event>
<event>
 8    1  0.1238315E-006  0.9118800E+02  0.7816164E-02  0.1184000E+00
        -11   -1    0    0    0    0  0.00000000000E+00  0.00000000000E+00  0.45593999997E+02  0.45594000000E+02  0.51100000000E-03 0.  1.
         11   -1    0    0    0    0 -0.00000000000E+00 -0.00000000000E+00 -0.45593999997E+02  0.45594000000E+02  0.51100000000E-03 0. -1.
         23    2    1    2    0    0  0.00000000000E+00  0.35527136788E-14  0.00000000000E+00  0.91188000000E+02  0.91188000000E+02 0.  0.
    9900012    2    3    3    0    0 -0.15707439245E+02  0.28414449997E+02  0.17368806815E+02  0.54367081130E+02  0.39999993053E+02 0.  0.
        -12    1    3    3    0    0  0.15707439245E+02 -0.28414449997E+02 -0.17368806815E+02  0.36820918870E+02  0.00000000000E+00 0.  1.
         11    1    4    4    0    0 -0.70626172152E+01  0.42438703066E+01  0.11732131447E+01  0.83227054767E+01  0.51100000000E-03 0. -1.
        -11    1    4    4    0    0 -0.86719170312E+01 -0.37257005145E+01 -0.53021362752E+01  0.10825693449E+02  0.51100000000E-03 0.  1.
        -12    1    4    4    0    0  0.27095001241E-01  0.27896280205E+02  0.21497729945E+02  0.35218682204E+02  0.00000000000E+00 0.  1.
</event>
<event>
 8    1  0.1238315E-006  0.9118800E+02  0.7816164E-02  0.1184000E+00
        -11   -1    0    0    0    0  0.00000000000E+00  0.00000000000E+00  0.45593999997E+02  0.45594000000E+02  0.51100000000E-03 0.  1.
         11   -1    0    0    0    0 -0.00000000000E+00 -0.00000000000E+00 -0.45593999997E+02  0.45594000000E+02  0.51100000000E-03 0. -1.
         23    2    1    2    0    0  0.00000000000E+00  0.00000000000E+00  0.35527136788E-14  0.91188000000E+02  0.91188000000E+02 0.  0.
    9900012    2    3    3    0    0 -0.19967504237E+02  0.95847070948E+01  0.29414484852E+02  0.54367085364E+02  0.40000002704E+02 0.  0.
         12    1    3    3    0    0  0.19967504237E+02 -0.95847070948E+01 -0.29414484852E+02  0.36820914636E+02  0.00000000000E+00 0. -1.
         11    1    4    4    0    0 -0.10161576301E+02  0.46038169567E+01  0.22851535515E+02  0.25429224116E+02  0.51100000000E-03 0.  1.
        -11    1    4    4    0    0 -0.17792442374E+01 -0.88590561109E+01 -0.38783157515E+01  0.98331032011E+01  0.51100000000E-03 0. -1.
         12    1    4    4    0    0 -0.80266836983E+01  0.13839946249E+02  0.10441265088E+02  0.19104758046E+02  0.00000000000E+00 0. -1.
</event>
<event>
 8    1  0.1238315E-006  0.9118800E+02  0.7816164E-02  0.1184000E+00
        -11   -1    0    0    0    0  0.00000000000E+00  0.00000000000E+00  0.45593999997E+02  0.45594000000E+02  0.51100000000E-03 0.  1.
         11   -1    0    0    0    0 -0.00000000000E+00 -0.00000000000E+00 -0.45593999997E+02  0.45594000000E+02  0.51100000000E-03 0. -1.
         23    2    1    2    0    0  0.00000000000E+00  0.00000000000E+00 -0.17763568394E-14  0.91188000000E+02  0.91188000000E+02 0.  0.
    9900012    2    3    3    0    0  0.22156540823E+02  0.27950715731E+02  0.91447538753E+01  0.54367063910E+02  0.39999953796E+02 0.  0.
         12    1    3    3    0    0 -0.22156540823E+02 -0.27950715731E+02 -0.91447538753E+01  0.36820936090E+02  0.00000000000E+00 0. -1.
         11    1    4    4    0    0 -0.54282489328E+01  0.45350483231E+01 -0.52774636066E+01  0.88252009693E+01  0.51100000000E-03 0. -1.
        -11    1    4    4    0    0  0.84305031047E+01  0.24498699283E+01  0.14723417889E+02  0.17142178387E+02  0.51100000000E-03 0.  1.
         12    1    4    4    0    0  0.19154286651E+02  0.20965797480E+02 -0.30120040703E+00  0.28399684554E+02  0.00000000000E+00 0. -1.
</event>
<event>
 8    1  0.1238315E-006  0.9118800E+02  0.7816164E-02  0.1184000E+00
        -11   -1    0    0    0    0  0.00000000000E+00  0.00000000000E+00  0.45593999997E+02  0.45594000000E+02  0.51100000000E-03 0.  1.
         11   -1    0    0    0    0 -0.00000000000E+00 -0.00000000000E+00 -0.45593999997E+02  0.45594000000E+02  0.51100000000E-03 0. -1.
         23    2    1    2    0    0 -0.17763568394E-14  0.35527136788E-14  0.00000000000E+00  0.91188000000E+02  0.91188000000E+02 0.  0.
    9900012    2    3    3    0    0 -0.14977572628E+02  0.10384243018E+02 -0.31994051691E+02  0.54367088435E+02  0.40000009706E+02 0.  0.
        -12    1    3    3    0    0  0.14977572628E+02 -0.10384243018E+02  0.31994051691E+02  0.36820911565E+02  0.00000000000E+00 0.  1.
         11    1    4    4    0    0  0.11783632286E+01 -0.50134362582E+01 -0.31119262280E+02  0.31542535854E+02  0.51100000000E-03 0. -1.
        -11    1    4    4    0    0 -0.12771928319E+02  0.14420612507E+02 -0.11033053976E+01  0.19294908684E+02  0.51100000000E-03 0.  1.
         12    1    4    4    0    0 -0.33840075373E+01  0.97706676939E+00  0.22851598663E+00  0.35296438972E+01  0.00000000000E+00 0. -1.
</event>
<event>
 8    1  0.1238315E-006  0.9118800E+02  0.7816164E-02  0.1184000E+00
        -11   -1    0    0    0    0  0.00000000000E+00  0.00000000000E+00  0.45593999997E+02  0.45594000000E+02  0.51100000000E-03 0. -1.
         11   -1    0    0    0    0 -0.00000000000E+00 -0.00000000000E+00 -0.45593999997E+02  0.45594000000E+02  0.51100000000E-03 0.  1.
         23    2    1    2    0    0 -0.35527136788E-14 -0.35527136788E-14  0.00000000000E+00  0.91188000000E+02  0.91188000000E+02 0.  0.
    9900012    2    3    3    0    0  0.25370722431E+02  0.10653576107E+02 -0.24466461250E+02  0.54367082485E+02  0.39999996142E+02 0.  0.
         12    1    3    3    0    0 -0.25370722431E+02 -0.10653576107E+02  0.24466461250E+02  0.36820917515E+02  0.00000000000E+00 0. -1.
         11    1    4    4    0    0  0.11636473713E+02 -0.25446082761E+01 -0.13599056176E+02  0.18078077356E+02  0.51100000000E-03 0.  1.
        -11    1    4    4    0    0  0.16393472039E+02  0.18092299195E+02 -0.15605880545E+02  0.28976209613E+02  0.51100000000E-03 0. -1.
         12    1    4    4    0    0 -0.26592233217E+01 -0.48941148120E+01  0.47384754717E+01  0.73127955163E+01  0.00000000000E+00 0. -1.
</event>
<event>
 8    1  0.1238315E-006  0.9118800E+02  0.7816164E-02  0.1184000E+00
        -11   -1    0    0    0    0  0.00000000000E+00  0.00000000000E+00  0.45593999997E+02  0.45594000000E+02  0.51100000000E-03 0. -1.
         11   -1    0    0    0    0 -0.00000000000E+00 -0.00000000000E+00 -0.45593999997E+02  0.45594000000E+02  0.51100000000E-03 0.  1.
         23    2    1    2    0    0  0.00000000000E+00 -0.35527136788E-14  0.35527136788E-14  0.91188000000E+02  0.91188000000E+02 0.  0.
    9900012    2    3    3    0    0 -0.25787122694E+02  0.23666069905E+02 -0.11433388033E+02  0.54367069492E+02  0.39999966520E+02 0.  0.
         12    1    3    3    0    0  0.25787122694E+02 -0.23666069905E+02  0.11433388033E+02  0.36820930508E+02  0.00000000000E+00 0. -1.
         11    1    4    4    0    0 -0.49620395413E+01  0.94153822168E+01  0.74251342816E+00  0.10668766806E+02  0.51100000000E-03 0. -1.
        -11    1    4    4    0    0 -0.24887682567E+02  0.14247156476E+02  0.21980585858E+01  0.28761252981E+02  0.51100000000E-03 0.  1.
         12    1    4    4    0    0  0.40625994145E+01  0.35312122858E-02 -0.14373960047E+02  0.14937049706E+02  0.00000000000E+00 0. -1.
</event>
<event>
 8    1  0.1238315E-006  0.9118800E+02  0.7816164E-02  0.1184000E+00
        -11   -1    0    0    0    0  0.00000000000E+00  0.00000000000E+00  0.45593999997E+02  0.45594000000E+02  0.51100000000E-03 0. -1.
         11   -1    0    0    0    0 -0.00000000000E+00 -0.00000000000E+00 -0.45593999997E+02  0.45594000000E+02  0.51100000000E-03 0.  1.
         23    2    1    2    0    0  0.00000000000E+00  0.35527136788E-14  0.00000000000E+00  0.91188000000E+02  0.91188000000E+02 0.  0.
    9900012    2    3    3    0    0  0.86827737214E+01 -0.29631438871E+02 -0.20059088366E+02  0.54367085357E+02  0.40000002689E+02 0.  0.
         12    1    3    3    0    0 -0.86827737214E+01  0.29631438871E+02  0.20059088366E+02  0.36820914643E+02  0.00000000000E+00 0. -1.
         11    1    4    4    0    0  0.11971816424E+02 -0.29140875258E+02 -0.88163235652E+01  0.32714561907E+02  0.51100000000E-03 0. -1.
        -11    1    4    4    0    0  0.39630712666E+01 -0.25889177359E+01 -0.13056481478E+02  0.13888129382E+02  0.51100000000E-03 0.  1.
        -12    1    4    4    0    0 -0.72521139692E+01  0.20983541235E+01  0.18137166767E+01  0.77643940674E+01  0.00000000000E+00 0.  1.
</event>
<event>
 8    1  0.1238315E-006  0.9118800E+02  0.7816164E-02  0.1184000E+00
        -11   -1    0    0    0    0  0.00000000000E+00  0.00000000000E+00  0.45593999997E+02  0.45594000000E+02  0.51100000000E-03 0. -1.
         11   -1    0    0    0    0 -0.00000000000E+00 -0.00000000000E+00 -0.45593999997E+02  0.45594000000E+02  0.51100000000E-03 0.  1.
         23    2    1    2    0    0  0.00000000000E+00  0.00000000000E+00  0.35527136788E-14  0.91188000000E+02  0.91188000000E+02 0.  0.
    9900012    2    3    3    0    0 -0.48425637698E+01 -0.24639286470E+02 -0.26930196034E+02  0.54367077686E+02  0.39999985201E+02 0.  0.
         12    1    3    3    0    0  0.48425637698E+01  0.24639286470E+02  0.26930196034E+02  0.36820922314E+02  0.00000000000E+00 0. -1.
         11    1    4    4    0    0  0.29837243265E+01 -0.11207759123E+02  0.40660905573E+01  0.12290222459E+02  0.51100000000E-03 0. -1.
        -11    1    4    4    0    0 -0.14186206999E+02 -0.33846380895E+01 -0.91871295299E+01  0.17236809255E+02  0.51100000000E-03 0.  1.
        -12    1    4    4    0    0  0.63599189028E+01 -0.10046889258E+02 -0.21809157061E+02  0.24840045973E+02  0.00000000000E+00 0.  1.
</event>
<event>
 8    1  0.1238315E-006  0.9118800E+02  0.7816164E-02  0.1184000E+00
        -11   -1    0    0    0    0  0.00000000000E+00  0.00000000000E+00  0.45593999997E+02  0.45594000000E+02  0.51100000000E-03 0.  1.
         11   -1    0    0    0    0 -0.00000000000E+00 -0.00000000000E+00 -0.45593999997E+02  0.45594000000E+02  0.51100000000E-03 0. -1.
         23    2    1    2    0    0 -0.35527136788E-14  0.00000000000E+00  0.00000000000E+00  0.91188000000E+02  0.91188000000E+02 0.  0.
    9900012    2    3    3    0    0 -0.18226844325E+02 -0.26779150728E+02 -0.17505230159E+02  0.54367165535E+02  0.40000185470E+02 0.  0.
        -12    1    3    3    0    0  0.18226844325E+02  0.26779150728E+02  0.17505230159E+02  0.36820834465E+02  0.00000000000E+00 0.  1.
         11    1    4    4    0    0  0.29840742205E+01 -0.17320033967E+02  0.40241231975E+01  0.18030026160E+02  0.51100000000E-03 0.  1.
        -11    1    4    4    0    0 -0.13732538808E+02 -0.91688538140E+01 -0.35880560397E+01  0.16897474628E+02  0.51100000000E-03 0. -1.
         12    1    4    4    0    0 -0.74783797375E+01 -0.29026294662E+00 -0.17941297317E+02  0.19439664747E+02  0.00000000000E+00 0. -1.
</event>
<event>
 8    1  0.1238315E-006  0.9118800E+02  0.7816164E-02  0.1184000E+00
        -11   -1    0    0    0    0  0.00000000000E+00  0.00000000000E+00  0.45593999997E+02  0.45594000000E+02  0.51100000000E-03 0.  1.
         11   -1    0    0    0    0 -0.00000000000E+00 -0.00000000000E+00 -0.45593999997E+02  0.45594000000E+02  0.51100000000E-03 0. -1.
         23    2    1    2    0    0  0.00000000000E+00 -0.35527136788E-14 -0.35527136788E-14  0.91188000000E+02  0.91188000000E+02 0.  0.
    9900012    2    3    3    0    0 -0.17764913451E+02  0.25459014373E+02  0.19799656648E+02  0.54367082492E+02  0.39999996156E+02 0.  0.
         12    1    3    3    0    0  0.17764913451E+02 -0.25459014373E+02 -0.19799656648E+02  0.36820917508E+02  0.00000000000E+00 0. -1.
         11    1    4    4    0    0 -0.10004422151E+02  0.43449180900E-01 -0.43203329731E+01  0.10897505571E+02  0.51100000000E-03 0. -1.
        -11    1    4    4    0    0 -0.15285802015E+02  0.23967569793E+02  0.20104064128E+02  0.34817718761E+02  0.51100000000E-03 0.  1.
         12    1    4    4    0    0  0.75253107152E+01  0.14479953987E+01  0.40159254939E+01  0.86518581593E+01  0.00000000000E+00 0. -1.
</event>
<event>
 8    1  0.1238315E-006  0.9118800E+02  0.7816164E-02  0.1184000E+00
        -11   -1    0    0    0    0  0.00000000000E+00  0.00000000000E+00  0.45593999997E+02  0.45594000000E+02  0.51100000000E-03 0.  1.
         11   -1    0    0    0    0 -0.00000000000E+00 -0.00000000000E+00 -0.45593999997E+02  0.45594000000E+02  0.51100000000E-03 0. -1.
         23    2    1    2    0    0 -0.17763568394E-14  0.00000000000E+00  0.00000000000E+00  0.91188000000E+02  0.91188000000E+02 0.  0.
    9900012    2    3    3    0    0 -0.82724583296E+01  0.21238190435E+02  0.28918560987E+02  0.54367116396E+02  0.40000073449E+02 0.  0.
         12    1    3    3    0    0  0.82724583296E+01 -0.21238190435E+02 -0.28918560987E+02  0.36820883604E+02  0.00000000000E+00 0. -1.
         11    1    4    4    0    0  0.64716160408E+01  0.12306757398E+02  0.19814630389E+01  0.14045080558E+02  0.51100000000E-03 0. -1.
        -11    1    4    4    0    0 -0.18921919076E+02  0.80472772140E+01  0.29023597093E+02  0.35569184423E+02  0.51100000000E-03 0.  1.
        -12    1    4    4    0    0  0.41778447054E+01  0.88415582302E+00 -0.20864991442E+01  0.47528514158E+01  0.00000000000E+00 0.  1.
</event>
<event>
 8    1  0.1238315E-006  0.9118800E+02  0.7816164E-02  0.1184000E+00
        -11   -1    0    0    0    0  0.00000000000E+00  0.00000000000E+00  0.45593999997E+02  0.45594000000E+02  0.51100000000E-03 0.  1.
         11   -1    0    0    0    0 -0.00000000000E+00 -0.00000000000E+00 -0.45593999997E+02  0.45594000000E+02  0.51100000000E-03 0. -1.
         23    2    1    2    0    0 -0.35527136788E-14  0.00000000000E+00  0.00000000000E+00  0.91188000000E+02  0.91188000000E+02 0.  0.
    9900012    2    3    3    0    0 -0.31536478267E+02  0.16404784522E+02 -0.95975832785E+01  0.54367081741E+02  0.39999994444E+02 0.  0.
        -12    1    3    3    0    0  0.31536478267E+02 -0.16404784522E+02  0.95975832785E+01  0.36820918259E+02  0.00000000000E+00 0.  1.
         11    1    4    4    0    0 -0.15405866841E+02  0.20654018431E+02 -0.33305723489E+01  0.25981184017E+02  0.51100000000E-03 0. -1.
        -11    1    4    4    0    0 -0.17881868374E+02 -0.50327531149E+00 -0.11835627175E+02  0.21449861852E+02  0.51100000000E-03 0.  1.
        -12    1    4    4    0    0  0.17512569480E+01 -0.37459585982E+01  0.55686162458E+01  0.69360358715E+01  0.00000000000E+00 0.  1.
</event>
<event>
 8    1  0.1238315E-006  0.9118800E+02  0.7816164E-02  0.1184000E+00
        -11   -1    0    0    0    0  0.00000000000E+00  0.00000000000E+00  0.45593999997E+02  0.45594000000E+02  0.51100000000E-03 0. -1.
         11   -1    0    0    0    0 -0.00000000000E+00 -0.00000000000E+00 -0.45593999997E+02  0.45594000000E+02  0.51100000000E-03 0.  1.
         23    2    1    2    0    0 -0.71054273576E-14 -0.88817841970E-15  0.00000000000E+00  0.91188000000E+02  0.91188000000E+02 0.  0.
    9900012    2    3    3    0    0  0.36722436684E+02  0.21876046191E+01 -0.15676736937E+01  0.54367074281E+02  0.39999977438E+02 0.  0.
        -12    1    3    3    0    0 -0.36722436684E+02 -0.21876046191E+01  0.15676736937E+01  0.36820925719E+02  0.00000000000E+00 0.  1.
         11    1    4    4    0    0  0.98841787171E+01 -0.15931247151E+01 -0.16492693540E-01  0.10011758464E+02  0.51100000000E-03 0. -1.
        -11    1    4    4    0    0  0.34341701022E+02  0.86019189417E+01 -0.15488944675E+01  0.35436485617E+02  0.51100000000E-03 0.  1.
        -12    1    4    4    0    0 -0.75034430548E+01 -0.48211896075E+01 -0.22865327118E-02  0.89188302000E+01  0.00000000000E+00 0.  1.
</event>
<event>
 8    1  0.1238315E-006  0.9118800E+02  0.7816164E-02  0.1184000E+00
        -11   -1    0    0    0    0  0.00000000000E+00  0.00000000000E+00  0.45593999997E+02  0.45594000000E+02  0.51100000000E-03 0.  1.
         11   -1    0    0    0    0 -0.00000000000E+00 -0.00000000000E+00 -0.45593999997E+02  0.45594000000E+02  0.51100000000E-03 0. -1.
         23    2    1    2    0    0 -0.17763568394E-14  0.00000000000E+00 -0.35527136788E-14  0.91188000000E+02  0.91188000000E+02 0.  0.
    9900012    2    3    3    0    0  0.11429246678E+02  0.22540914356E+02  0.26777793594E+02  0.54367207920E+02  0.40000282095E+02 0.  0.
         12    1    3    3    0    0 -0.11429246678E+02 -0.22540914356E+02 -0.26777793594E+02  0.36820792080E+02  0.00000000000E+00 0. -1.
         11    1    4    4    0    0 -0.52638354032E+01  0.15617785004E+01 -0.72723837821E+01  0.91123367679E+01  0.51100000000E-03 0. -1.
        -11    1    4    4    0    0 -0.11310881132E+01  0.48245234742E+01  0.24150214605E+01  0.55125054185E+01  0.51100000000E-03 0.  1.
         12    1    4    4    0    0  0.17824170195E+02  0.16154612381E+02  0.31635155915E+02  0.39742365734E+02  0.00000000000E+00 0. -1.
</event>
<event>
 8    1  0.1238315E-006  0.9118800E+02  0.7816164E-02  0.1184000E+00
        -11   -1    0    0    0    0  0.00000000000E+00  0.00000000000E+00  0.45593999997E+02  0.45594000000E+02  0.51100000000E-03 0. -1.
         11   -1    0    0    0    0 -0.00000000000E+00 -0.00000000000E+00 -0.45593999997E+02  0.45594000000E+02  0.51100000000E-03 0.  1.
         23    2    1    2    0    0  0.17763568394E-14  0.00000000000E+00  0.35527136788E-14  0.91188000000E+02  0.91188000000E+02 0.  0.
    9900012    2    3    3    0    0  0.12404279455E+02  0.23638248098E+02 -0.25360392801E+02  0.54367048832E+02  0.39999919421E+02 0.  0.
         12    1    3    3    0    0 -0.12404279455E+02 -0.23638248098E+02  0.25360392801E+02  0.36820951168E+02  0.00000000000E+00 0. -1.
         11    1    4    4    0    0 -0.44048769755E+01  0.50274835906E+01  0.41595834968E+01  0.78727801665E+01  0.51100000000E-03 0. -1.
        -11    1    4    4    0    0 -0.29795402734E+01  0.12273216169E+02 -0.19963863581E+02  0.23623406713E+02  0.51100000000E-03 0.  1.
        -12    1    4    4    0    0  0.19788696704E+02  0.63375483378E+01 -0.95561127170E+01  0.22870861952E+02  0.00000000000E+00 0.  1.
</event>
<event>
 8    1  0.1238315E-006  0.9118800E+02  0.7816164E-02  0.1184000E+00
        -11   -1    0    0    0    0  0.00000000000E+00  0.00000000000E+00  0.45593999997E+02  0.45594000000E+02  0.51100000000E-03 0.  1.
         11   -1    0    0    0    0 -0.00000000000E+00 -0.00000000000E+00 -0.45593999997E+02  0.45594000000E+02  0.51100000000E-03 0. -1.
         23    2    1    2    0    0 -0.35527136788E-14 -0.35527136788E-14  0.00000000000E+00  0.91188000000E+02  0.91188000000E+02 0.  0.
    9900012    2    3    3    0    0 -0.15055329868E+02  0.31564275492E+02 -0.11524493707E+02  0.54367076600E+02  0.39999982726E+02 0.  0.
         12    1    3    3    0    0  0.15055329868E+02 -0.31564275492E+02  0.11524493707E+02  0.36820923400E+02  0.00000000000E+00 0. -1.
         11    1    4    4    0    0  0.10945815170E+01  0.47211074854E+01 -0.93855832107E+01  0.10562960620E+02  0.51100000000E-03 0. -1.
        -11    1    4    4    0    0 -0.25158032971E+02  0.17014303289E+02 -0.53872864187E+00  0.30376032792E+02  0.51100000000E-03 0.  1.
        -12    1    4    4    0    0  0.90081215858E+01  0.98288647179E+01 -0.16001818544E+01  0.13428083188E+02  0.00000000000E+00 0.  1.
</event>
<event>
 8    1  0.1238315E-006  0.9118800E+02  0.7816164E-02  0.1184000E+00
        -11   -1    0    0    0    0  0.00000000000E+00  0.00000000000E+00  0.45593999997E+02  0.45594000000E+02  0.51100000000E-03 0.  1.
         11   -1    0    0    0    0 -0.00000000000E+00 -0.00000000000E+00 -0.45593999997E+02  0.45594000000E+02  0.51100000000E-03 0. -1.
         23    2    1    2    0    0  0.00000000000E+00 -0.35527136788E-14  0.35527136788E-14  0.91188000000E+02  0.91188000000E+02 0.  0.
    9900012    2    3    3    0    0 -0.20766580369E+02  0.20698240430E+02 -0.22273519836E+02  0.54367113223E+02  0.40000066214E+02 0.  0.
        -12    1    3    3    0    0  0.20766580369E+02 -0.20698240430E+02  0.22273519836E+02  0.36820886777E+02  0.00000000000E+00 0.  1.
         11    1    4    4    0    0 -0.13781306185E+02  0.92416537317E+01 -0.22950111476E+02  0.28320313926E+02  0.51100000000E-03 0. -1.
        -11    1    4    4    0    0  0.77332648986E+01  0.62125756080E+01  0.27278955065E+01  0.10287900458E+02  0.51100000000E-03 0.  1.
        -12    1    4    4    0    0 -0.14718539083E+02  0.52440110908E+01 -0.20513038673E+01  0.15758898839E+02  0.00000000000E+00 0.  1.
</event>
<event>
 8    1  0.1238315E-006  0.9118800E+02  0.7816164E-02  0.1184000E+00
        -11   -1    0    0    0    0  0.00000000000E+00  0.00000000000E+00  0.45593999997E+02  0.45594000000E+02  0.51100000000E-03 0. -1.
         11   -1    0    0    0    0 -0.00000000000E+00 -0.00000000000E+00 -0.45593999997E+02  0.45594000000E+02  0.51100000000E-03 0.  1.
         23    2    1    2    0    0  0.00000000000E+00  0.88817841970E-15  0.35527136788E-14  0.91188000000E+02  0.91188000000E+02 0.  0.
    9900012    2    3    3    0    0 -0.34189726522E+02  0.55678534204E+01 -0.12483642664E+02  0.54367085759E+02  0.40000003605E+02 0.  0.
        -12    1    3    3    0    0  0.34189726522E+02 -0.55678534204E+01  0.12483642664E+02  0.36820914241E+02  0.00000000000E+00 0.  1.
         11    1    4    4    0    0 -0.12828488564E+02  0.74778370474E+01  0.29196989327E+01  0.15133169128E+02  0.51100000000E-03 0. -1.
        -11    1    4    4    0    0 -0.83033320407E+01  0.13197152180E+02 -0.34765266495E+01  0.15974867338E+02  0.51100000000E-03 0.  1.
         12    1    4    4    0    0 -0.13057905917E+02 -0.15107135807E+02 -0.11926814947E+02  0.23259049293E+02  0.00000000000E+00 0. -1.
</event>
<event>
 8    1  0.1238315E-006  0.9118800E+02  0.7816164E-02  0.1184000E+00
        -11   -1    0    0    0    0  0.00000000000E+00  0.00000000000E+00  0.45593999997E+02  0.45594000000E+02  0.51100000000E-03 0. -1.
         11   -1    0    0    0    0 -0.00000000000E+00 -0.00000000000E+00 -0.45593999997E+02  0.45594000000E+02  0.51100000000E-03 0.  1.
         23    2    1    2    0    0  0.35527136788E-14  0.00000000000E+00  0.35527136788E-14  0.91188000000E+02  0.91188000000E+02 0.  0.
    9900012    2    3    3    0    0  0.23363199118E+02 -0.12972702673E+02  0.25330796771E+02  0.54367090822E+02  0.40000015146E+02 0.  0.
        -12    1    3    3    0    0 -0.23363199118E+02  0.12972702673E+02 -0.25330796771E+02  0.36820909178E+02  0.00000000000E+00 0.  1.
         11    1    4    4    0    0  0.14175355838E+02  0.38732348015E+01  0.15977702551E+00  0.14695856216E+02  0.51100000000E-03 0. -1.
        -11    1    4    4    0    0  0.13212149065E+02 -0.95178467764E+01  0.37969378468E+01  0.16720257996E+02  0.51100000000E-03 0.  1.
         12    1    4    4    0    0 -0.40243057851E+01 -0.73280906977E+01  0.21374081899E+02  0.22950976610E+02  0.00000000000E+00 0. -1.
</event>
<event>
 8    1  0.1238315E-006  0.9118800E+02  0.7816164E-02  0.1184000E+00
        -11   -1    0    0    0    0  0.00000000000E+00  0.00000000000E+00  0.45593999997E+02  0.45594000000E+02  0.51100000000E-03 0.  1.
         11   -1    0    0    0    0 -0.00000000000E+00 -0.00000000000E+00 -0.45593999997E+02  0.45594000000E+02  0.51100000000E-03 0. -1.
         23    2    1    2    0    0 -0.35527136788E-14 -0.13322676296E-14  0.35527136788E-14  0.91188000000E+02  0.91188000000E+02 0.  0.
    9900012    2    3    3    0    0  0.23567312175E+02  0.24850679115E+01  0.28181204745E+02  0.54367162604E+02  0.40000178788E+02 0.  0.
         12    1    3    3    0    0 -0.23567312175E+02 -0.24850679115E+01 -0.28181204745E+02  0.36820837396E+02  0.00000000000E+00 0. -1.
         11    1    4    4    0    0  0.10578011131E+02  0.39269944137E+01  0.10620099148E+02  0.15495228646E+02  0.51100000000E-03 0. -1.
        -11    1    4    4    0    0  0.19998879472E+02  0.88800667835E+01  0.86034789642E+01  0.23512350303E+02  0.51100000000E-03 0.  1.
         12    1    4    4    0    0 -0.70095784290E+01 -0.10321993286E+02  0.89576266329E+01  0.15359583654E+02  0.00000000000E+00 0. -1.
</event>
<event>
 8    1  0.1238315E-006  0.9118800E+02  0.7816164E-02  0.1184000E+00
        -11   -1    0    0    0    0  0.00000000000E+00  0.00000000000E+00  0.45593999997E+02  0.45594000000E+02  0.51100000000E-03 0.  1.
         11   -1    0    0    0    0 -0.00000000000E+00 -0.00000000000E+00 -0.45593999997E+02  0.45594000000E+02  0.51100000000E-03 0. -1.
         23    2    1    2    0    0  0.00000000000E+00  0.00000000000E+00 -0.22204460493E-15  0.91188000000E+02  0.91188000000E+02 0.  0.
    9900012    2    3    3    0    0 -0.36363810516E+02 -0.57477737450E+01 -0.64460825109E+00  0.54367093736E+02  0.40000021791E+02 0.  0.
        -12    1    3    3    0    0  0.36363810516E+02  0.57477737450E+01  0.64460825109E+00  0.36820906264E+02  0.00000000000E+00 0.  1.
         11    1    4    4    0    0 -0.19995083925E+02 -0.62621905890E+01 -0.10437667846E+02  0.23408616415E+02  0.51100000000E-03 0. -1.
        -11    1    4    4    0    0 -0.53017395133E+01 -0.54071500187E+01 -0.67830555627E+01  0.10166393472E+02  0.51100000000E-03 0.  1.
         12    1    4    4    0    0 -0.11066987078E+02  0.59215668626E+01  0.16576115158E+02  0.20792083849E+02  0.00000000000E+00 0. -1.
</event>
<event>
 8    1  0.1238315E-006  0.9118800E+02  0.7816164E-02  0.1184000E+00
        -11   -1    0    0    0    0  0.00000000000E+00  0.00000000000E+00  0.45593999997E+02  0.45594000000E+02  0.51100000000E-03 0.  1.
         11   -1    0    0    0    0 -0.00000000000E+00 -0.00000000000E+00 -0.45593999997E+02  0.45594000000E+02  0.51100000000E-03 0. -1.
         23    2    1    2    0    0  0.00000000000E+00  0.00000000000E+00  0.00000000000E+00  0.91188000000E+02  0.91188000000E+02 0.  0.
    9900012    2    3    3    0    0  0.29001254979E+02  0.10653203215E+02  0.20030382258E+02  0.54367085529E+02  0.40000003080E+02 0.  0.
         12    1    3    3    0    0 -0.29001254979E+02 -0.10653203215E+02 -0.20030382258E+02  0.36820914471E+02  0.00000000000E+00 0. -1.
         11    1    4    4    0    0  0.83232322062E+00  0.80458809099E+01  0.23287688896E+02  0.24652493098E+02  0.51100000000E-03 0. -1.
        -11    1    4    4    0    0  0.19719467470E+02 -0.15362306213E+00 -0.56417642877E+01  0.20511228678E+02  0.51100000000E-03 0.  1.
         12    1    4    4    0    0  0.84494642882E+01  0.27609453671E+01  0.23844576491E+01  0.92033637524E+01  0.00000000000E+00 0. -1.
</event>
<event>
 8    1  0.1238315E-006  0.9118800E+02  0.7816164E-02  0.1184000E+00
        -11   -1    0    0    0    0  0.00000000000E+00  0.00000000000E+00  0.45593999997E+02  0.45594000000E+02  0.51100000000E-03 0.  1.
         11   -1    0    0    0    0 -0.00000000000E+00 -0.00000000000E+00 -0.45593999997E+02  0.45594000000E+02  0.51100000000E-03 0. -1.
         23    2    1    2    0    0 -0.35527136788E-14 -0.35527136788E-14 -0.35527136788E-14  0.91188000000E+02  0.91188000000E+02 0.  0.
    9900012    2    3    3    0    0 -0.18515715309E+02 -0.26903525007E+02 -0.17004399500E+02  0.54367068812E+02  0.39999964971E+02 0.  0.
        -12    1    3    3    0    0  0.18515715309E+02  0.26903525007E+02  0.17004399500E+02  0.36820931188E+02  0.00000000000E+00 0.  1.
         11    1    4    4    0    0 -0.16674729128E+01  0.15977844782E+00  0.16804913290E+01  0.23727718886E+01  0.51100000000E-03 0. -1.
        -11    1    4    4    0    0  0.40447629015E+01  0.60523255948E+01 -0.91536949738E+01  0.11695335992E+02  0.51100000000E-03 0.  1.
         12    1    4    4    0    0 -0.20893005298E+02 -0.33115629049E+02 -0.95311958555E+01  0.40298960931E+02  0.00000000000E+00 0. -1.
</event>
<event>
 8    1  0.1238315E-006  0.9118800E+02  0.7816164E-02  0.1184000E+00
        -11   -1    0    0    0    0  0.00000000000E+00  0.00000000000E+00  0.45593999997E+02  0.45594000000E+02  0.51100000000E-03 0.  1.
         11   -1    0    0    0    0 -0.00000000000E+00 -0.00000000000E+00 -0.45593999997E+02  0.45594000000E+02  0.51100000000E-03 0. -1.
         23    2    1    2    0    0 -0.35527136788E-14  0.00000000000E+00 -0.35527136788E-14  0.91188000000E+02  0.91188000000E+02 0.  0.
    9900012    2    3    3    0    0 -0.22238674682E+02  0.19109602046E+02  0.22272077950E+02  0.54367068477E+02  0.39999964208E+02 0.  0.
        -12    1    3    3    0    0  0.22238674682E+02 -0.19109602046E+02 -0.22272077950E+02  0.36820931523E+02  0.00000000000E+00 0.  1.
         11    1    4    4    0    0 -0.27444338143E+01  0.42151655939E+01 -0.23693950874E+01  0.55599974179E+01  0.51100000000E-03 0. -1.
        -11    1    4    4    0    0 -0.23580464152E+01  0.22817144462E+02  0.16450658001E+02  0.28227763164E+02  0.51100000000E-03 0.  1.
         12    1    4    4    0    0 -0.17136194453E+02 -0.79227080097E+01  0.81908150363E+01  0.20579307896E+02  0.00000000000E+00 0. -1.
</event>
<event>
 8    1  0.1238315E-006  0.9118800E+02  0.7816164E-02  0.1184000E+00
        -11   -1    0    0    0    0  0.00000000000E+00  0.00000000000E+00  0.45593999997E+02  0.45594000000E+02  0.51100000000E-03 0. -1.
         11   -1    0    0    0    0 -0.00000000000E+00 -0.00000000000E+00 -0.45593999997E+02  0.45594000000E+02  0.51100000000E-03 0.  1.
         23    2    1    2    0    0 -0.35527136788E-14  0.00000000000E+00  0.17763568394E-14  0.91188000000E+02  0.91188000000E+02 0.  0.
    9900012    2    3    3    0    0  0.27599052476E+02  0.21001096252E+02 -0.12370388733E+02  0.54367078518E+02  0.39999987098E+02 0.  0.
        -12    1    3    3    0    0 -0.27599052476E+02 -0.21001096252E+02  0.12370388733E+02  0.36820921482E+02  0.00000000000E+00 0.  1.
         11    1    4    4    0    0  0.31422609985E+01 -0.12295601159E+01  0.49444100494E+01  0.59860515583E+01  0.51100000000E-03 0. -1.
        -11    1    4    4    0    0  0.36578225431E+01  0.92879657783E+01  0.82673608885E+01  0.12961297403E+02  0.51100000000E-03 0.  1.
        -12    1    4    4    0    0  0.20798968934E+02  0.12942690590E+02 -0.25582159671E+02  0.35419729557E+02  0.00000000000E+00 0.  1.
</event>
<event>
 8    1  0.1238315E-006  0.9118800E+02  0.7816164E-02  0.1184000E+00
        -11   -1    0    0    0    0  0.00000000000E+00  0.00000000000E+00  0.45593999997E+02  0.45594000000E+02  0.51100000000E-03 0. -1.
         11   -1    0    0    0    0 -0.00000000000E+00 -0.00000000000E+00 -0.45593999997E+02  0.45594000000E+02  0.51100000000E-03 0.  1.
         23    2    1    2    0    0  0.71054273576E-14  0.00000000000E+00  0.88817841970E-15  0.91188000000E+02  0.91188000000E+02 0.  0.
    9900012    2    3    3    0    0  0.35829697927E+02 -0.81207721553E+01  0.24626050575E+01  0.54367100804E+02  0.40000037903E+02 0.  0.
        -12    1    3    3    0    0 -0.35829697927E+02  0.81207721553E+01 -0.24626050575E+01  0.36820899196E+02  0.00000000000E+00 0.  1.
         11    1    4    4    0    0  0.69973425220E+01 -0.11506762214E+01  0.16513783207E+02  0.17971975245E+02  0.51100000000E-03 0. -1.
        -11    1    4    4    0    0  0.98383562589E+01 -0.87725015452E+01 -0.10799875587E+02  0.17040755564E+02  0.51100000000E-03 0.  1.
        -12    1    4    4    0    0  0.18993999146E+02  0.18024056113E+01 -0.32513025624E+01  0.19354369995E+02  0.00000000000E+00 0.  1.
</event>
<event>
 8    1  0.1238315E-006  0.9118800E+02  0.7816164E-02  0.1184000E+00
        -11   -1    0    0    0    0  0.00000000000E+00  0.00000000000E+00  0.45593999997E+02  0.45594000000E+02  0.51100000000E-03 0. -1.
         11   -1    0    0    0    0 -0.00000000000E+00 -0.00000000000E+00 -0.45593999997E+02  0.45594000000E+02  0.51100000000E-03 0.  1.
         23    2    1    2    0    0  0.17763568394E-14  0.00000000000E+00  0.00000000000E+00  0.91188000000E+02  0.91188000000E+02 0.  0.
    9900012    2    3    3    0    0 -0.58388271093E+01 -0.11190804303E+02  0.34589834805E+02  0.54367045710E+02  0.39999912306E+02 0.  0.
        -12    1    3    3    0    0  0.58388271093E+01  0.11190804303E+02 -0.34589834805E+02  0.36820954290E+02  0.00000000000E+00 0.  1.
         11    1    4    4    0    0 -0.10210656674E+02 -0.11764498789E+02  0.65913806555E+01  0.16914704865E+02  0.51100000000E-03 0. -1.
        -11    1    4    4    0    0  0.36170223709E+01 -0.11601619443E+02  0.10150678273E+02  0.15834035941E+02  0.51100000000E-03 0.  1.
        -12    1    4    4    0    0  0.75480719337E+00  0.12175313929E+02  0.17847775876E+02  0.21618304904E+02  0.00000000000E+00 0.  1.
</event>
<event>
 8    1  0.1238315E-006  0.9118800E+02  0.7816164E-02  0.1184000E+00
        -11   -1    0    0    0    0  0.00000000000E+00  0.00000000000E+00  0.45593999997E+02  0.45594000000E+02  0.51100000000E-03 0.  1.
         11   -1    0    0    0    0 -0.00000000000E+00 -0.00000000000E+00 -0.45593999997E+02  0.45594000000E+02  0.51100000000E-03 0. -1.
         23    2    1    2    0    0  0.17763568394E-14  0.35527136788E-14  0.00000000000E+00  0.91188000000E+02  0.91188000000E+02 0.  0.
    9900012    2    3    3    0    0  0.11432970583E+02  0.15654763577E+02 -0.31304895292E+02  0.54367069698E+02  0.39999966991E+02 0.  0.
        -12    1    3    3    0    0 -0.11432970583E+02 -0.15654763577E+02  0.31304895292E+02  0.36820930302E+02  0.00000000000E+00 0.  1.
         11    1    4    4    0    0  0.32514287881E+01  0.43460227223E+01 -0.11965766609E+02  0.13139226517E+02  0.51100000000E-03 0. -1.
        -11    1    4    4    0    0  0.13575541394E+02 -0.80004821221E+01 -0.12263602776E+02  0.19967448300E+02  0.51100000000E-03 0.  1.
        -12    1    4    4    0    0 -0.53939995986E+01  0.19309222977E+02 -0.70755259080E+01  0.21260394881E+02  0.00000000000E+00 0.  1.
</event>
<event>
 8    1  0.1238315E-006  0.9118800E+02  0.7816164E-02  0.1184000E+00
        -11   -1    0    0    0    0  0.00000000000E+00  0.00000000000E+00  0.45593999997E+02  0.45594000000E+02  0.51100000000E-03 0. -1.
         11   -1    0    0    0    0 -0.00000000000E+00 -0.00000000000E+00 -0.45593999997E+02  0.45594000000E+02  0.51100000000E-03 0.  1.
         23    2    1    2    0    0 -0.35527136788E-14  0.00000000000E+00 -0.88817841970E-15  0.91188000000E+02  0.91188000000E+02 0.  0.
    9900012    2    3    3    0    0 -0.11789513080E+02 -0.34223695870E+02  0.67466981419E+01  0.54367191841E+02  0.40000245438E+02 0.  0.
         12    1    3    3    0    0  0.11789513080E+02  0.34223695870E+02 -0.67466981419E+01  0.36820808159E+02  0.00000000000E+00 0. -1.
         11    1    4    4    0    0 -0.18289823459E+02 -0.19465246814E+01 -0.20287007152E+01  0.18504654208E+02  0.51100000000E-03 0. -1.
        -11    1    4    4    0    0  0.87488868317E+01 -0.30507024858E+02  0.70153192928E+01  0.32502865897E+02  0.51100000000E-03 0.  1.
        -12    1    4    4    0    0 -0.22485764532E+01 -0.17701463308E+01  0.17600795643E+01  0.33596717356E+01  0.00000000000E+00 0.  1.
</event>
<event>
 8    1  0.1238315E-006  0.9118800E+02  0.7816164E-02  0.1184000E+00
        -11   -1    0    0    0    0  0.00000000000E+00  0.00000000000E+00  0.45593999997E+02  0.45594000000E+02  0.51100000000E-03 0. -1.
         11   -1    0    0    0    0 -0.00000000000E+00 -0.00000000000E+00 -0.45593999997E+02  0.45594000000E+02  0.51100000000E-03 0.  1.
         23    2    1    2    0    0  0.00000000000E+00  0.00000000000E+00  0.00000000000E+00  0.91188000000E+02  0.91188000000E+02 0.  0.
    9900012    2    3    3    0    0  0.73041728658E+01  0.35034835384E+02 -0.86595243772E+01  0.54367109271E+02  0.40000057205E+02 0.  0.
         12    1    3    3    0    0 -0.73041728658E+01 -0.35034835384E+02  0.86595243772E+01  0.36820890729E+02  0.00000000000E+00 0. -1.
         11    1    4    4    0    0 -0.37937655923E+01  0.83179390698E+00  0.48814257421E+01  0.62380169934E+01  0.51100000000E-03 0. -1.
        -11    1    4    4    0    0  0.19597702043E+02  0.17403606346E+02 -0.13089007898E+02  0.29296374643E+02  0.51100000000E-03 0.  1.
        -12    1    4    4    0    0 -0.84997635851E+01  0.16799435131E+02 -0.45194222103E+00  0.18832717635E+02  0.00000000000E+00 0.  1.
</event>
<event>
 8    1  0.1238315E-006  0.9118800E+02  0.7816164E-02  0.1184000E+00
        -11   -1    0    0    0    0  0.00000000000E+00  0.00000000000E+00  0.45593999997E+02  0.45594000000E+02  0.51100000000E-03 0. -1.
         11   -1    0    0    0    0 -0.00000000000E+00 -0.00000000000E+00 -0.45593999997E+02  0.45594000000E+02  0.51100000000E-03 0.  1.
         23    2    1    2    0    0  0.35527136788E-14 -0.35527136788E-14  0.00000000000E+00  0.91188000000E+02  0.91188000000E+02 0.  0.
    9900012    2    3    3    0    0  0.21719783303E+02 -0.25492333074E+02  0.15302579176E+02  0.54367123290E+02  0.40000089164E+02 0.  0.
        -12    1    3    3    0    0 -0.21719783303E+02  0.25492333074E+02 -0.15302579176E+02  0.36820876710E+02  0.00000000000E+00 0.  1.
         11    1    4    4    0    0  0.43139525645E+01 -0.91120386580E+01  0.86894370574E+01  0.13309611259E+02  0.51100000000E-03 0. -1.
        -11    1    4    4    0    0  0.13251226115E+02  0.72960065382E+01  0.77417474616E+01  0.16992979697E+02  0.51100000000E-03 0.  1.
         12    1    4    4    0    0  0.41546046241E+01 -0.23676300954E+02 -0.11286053434E+01  0.24064532334E+02  0.00000000000E+00 0. -1.
</event>
<event>
 8    1  0.1238315E-006  0.9118800E+02  0.7816164E-02  0.1184000E+00
        -11   -1    0    0    0    0  0.00000000000E+00  0.00000000000E+00  0.45593999997E+02  0.45594000000E+02  0.51100000000E-03 0.  1.
         11   -1    0    0    0    0 -0.00000000000E+00 -0.00000000000E+00 -0.45593999997E+02  0.45594000000E+02  0.51100000000E-03 0. -1.
         23    2    1    2    0    0 -0.35527136788E-14  0.17763568394E-14  0.00000000000E+00  0.91188000000E+02  0.91188000000E+02 0.  0.
    9900012    2    3    3    0    0 -0.31080498377E+02  0.10913849449E+02  0.16452019395E+02  0.54367103333E+02  0.40000043668E+02 0.  0.
        -12    1    3    3    0    0  0.31080498377E+02 -0.10913849449E+02 -0.16452019395E+02  0.36820896667E+02  0.00000000000E+00 0.  1.
         11    1    4    4    0    0 -0.16669087462E+02  0.22861468799E+02  0.49090372745E+01  0.28715916835E+02  0.51100000000E-03 0. -1.
        -11    1    4    4    0    0 -0.27791603548E+01 -0.37966513163E+00 -0.27240994186E+01  0.39100634002E+01  0.51100000000E-03 0.  1.
        -12    1    4    4    0    0 -0.11632250561E+02 -0.11567954219E+02  0.14267081539E+02  0.21741123098E+02  0.00000000000E+00 0.  1.
</event>
<event>
 8    1  0.1238315E-006  0.9118800E+02  0.7816164E-02  0.1184000E+00
        -11   -1    0    0    0    0  0.00000000000E+00  0.00000000000E+00  0.45593999997E+02  0.45594000000E+02  0.51100000000E-03 0. -1.
         11   -1    0    0    0    0 -0.00000000000E+00 -0.00000000000E+00 -0.45593999997E+02  0.45594000000E+02  0.51100000000E-03 0.  1.
         23    2    1    2    0    0  0.00000000000E+00  0.00000000000E+00  0.00000000000E+00  0.91188000000E+02  0.91188000000E+02 0.  0.
    9900012    2    3    3    0    0  0.34699723342E+02 -0.63822259358E+01 -0.10534514420E+02  0.54367087437E+02  0.40000007429E+02 0.  0.
         12    1    3    3    0    0 -0.34699723342E+02  0.63822259358E+01  0.10534514420E+02  0.36820912563E+02  0.00000000000E+00 0. -1.
         11    1    4    4    0    0  0.13281388838E+01 -0.38947068815E+01  0.82197094417E+01  0.91921878872E+01  0.51100000000E-03 0. -1.
        -11    1    4    4    0    0  0.23165445783E+02 -0.27019438584E+01 -0.24196284762E+02  0.33606525787E+02  0.51100000000E-03 0.  1.
         12    1    4    4    0    0  0.10206138676E+02  0.21442480401E+00  0.54420609002E+01  0.11568373762E+02  0.00000000000E+00 0. -1.
</event>
<event>
 8    1  0.1238315E-006  0.9118800E+02  0.7816164E-02  0.1184000E+00
        -11   -1    0    0    0    0  0.00000000000E+00  0.00000000000E+00  0.45593999997E+02  0.45594000000E+02  0.51100000000E-03 0.  1.
         11   -1    0    0    0    0 -0.00000000000E+00 -0.00000000000E+00 -0.45593999997E+02  0.45594000000E+02  0.51100000000E-03 0. -1.
         23    2    1    2    0    0 -0.35527136788E-14 -0.71054273576E-14 -0.88817841970E-15  0.91188000000E+02  0.91188000000E+02 0.  0.
    9900012    2    3    3    0    0 -0.21231916373E+02 -0.29764952372E+02 -0.43626124223E+01  0.54367094936E+02  0.40000024525E+02 0.  0.
        -12    1    3    3    0    0  0.21231916373E+02  0.29764952372E+02  0.43626124223E+01  0.36820905064E+02  0.00000000000E+00 0.  1.
         11    1    4    4    0    0 -0.52388617940E+01 -0.37360121176E+01  0.16879671315E+01  0.66522697433E+01  0.51100000000E-03 0. -1.
        -11    1    4    4    0    0 -0.85678141411E+01  0.80892659232E+01 -0.49498388599E+01  0.12780632509E+02  0.51100000000E-03 0.  1.
        -12    1    4    4    0    0 -0.74252404382E+01 -0.34118206178E+02 -0.11007406940E+01  0.34934192683E+02  0.00000000000E+00 0.  1.
</event>
<event>
 8    1  0.1238315E-006  0.9118800E+02  0.7816164E-02  0.1184000E+00
        -11   -1    0    0    0    0  0.00000000000E+00  0.00000000000E+00  0.45593999997E+02  0.45594000000E+02  0.51100000000E-03 0.  1.
         11   -1    0    0    0    0 -0.00000000000E+00 -0.00000000000E+00 -0.45593999997E+02  0.45594000000E+02  0.51100000000E-03 0. -1.
         23    2    1    2    0    0  0.35527136788E-14  0.00000000000E+00  0.00000000000E+00  0.91188000000E+02  0.91188000000E+02 0.  0.
    9900012    2    3    3    0    0 -0.24667181153E+02  0.23069517573E+02  0.14666519483E+02  0.54367092070E+02  0.40000017991E+02 0.  0.
         12    1    3    3    0    0  0.24667181153E+02 -0.23069517573E+02 -0.14666519483E+02  0.36820907930E+02  0.00000000000E+00 0. -1.
         11    1    4    4    0    0  0.27628007259E+01  0.58290448976E+01  0.49098412091E+01  0.81066252676E+01  0.51100000000E-03 0. -1.
        -11    1    4    4    0    0 -0.77373520825E+01 -0.17851491168E+01 -0.97988998517E+01  0.12612367469E+02  0.51100000000E-03 0.  1.
        -12    1    4    4    0    0 -0.19692629797E+02  0.19025621792E+02  0.19555578126E+02  0.33648099333E+02  0.00000000000E+00 0.  1.
</event>
<event>
 8    1  0.1238315E-006  0.9118800E+02  0.7816164E-02  0.1184000E+00
        -11   -1    0    0    0    0  0.00000000000E+00  0.00000000000E+00  0.45593999997E+02  0.45594000000E+02  0.51100000000E-03 0.  1.
         11   -1    0    0    0    0 -0.00000000000E+00 -0.00000000000E+00 -0.45593999997E+02  0.45594000000E+02  0.51100000000E-03 0. -1.
         23    2    1    2    0    0  0.35527136788E-14 -0.17763568394E-14  0.35527136788E-14  0.91188000000E+02  0.91188000000E+02 0.  0.
    9900012    2    3    3    0    0  0.19505553525E+02 -0.98906512169E+01  0.29622464578E+02  0.54367054772E+02  0.39999932964E+02 0.  0.
         12    1    3    3    0    0 -0.19505553525E+02  0.98906512169E+01 -0.29622464578E+02  0.36820945228E+02  0.00000000000E+00 0. -1.
         11    1    4    4    0    0  0.13854436507E+02  0.62130263694E+01  0.79399569600E+01  0.17134468897E+02  0.51100000000E-03 0. -1.
        -11    1    4    4    0    0  0.41465117489E+01  0.54911364262E+01  0.42627917000E+00  0.68940447581E+01  0.51100000000E-03 0.  1.
        -12    1    4    4    0    0  0.15046052684E+01 -0.21594814013E+02  0.21256228448E+02  0.30338541117E+02  0.00000000000E+00 0.  1.
</event>
<event>
 8    1  0.1238315E-006  0.9118800E+02  0.7816164E-02  0.1184000E+00
        -11   -1    0    0    0    0  0.00000000000E+00  0.00000000000E+00  0.45593999997E+02  0.45594000000E+02  0.51100000000E-03 0.  1.
         11   -1    0    0    0    0 -0.00000000000E+00 -0.00000000000E+00 -0.45593999997E+02  0.45594000000E+02  0.51100000000E-03 0. -1.
         23    2    1    2    0    0  0.00000000000E+00  0.88817841970E-15  0.00000000000E+00  0.91188000000E+02  0.91188000000E+02 0.  0.
    9900012    2    3    3    0    0  0.28556213047E+01 -0.55154860581E+01  0.36293291154E+02  0.54367107259E+02  0.40000052618E+02 0.  0.
         12    1    3    3    0    0 -0.28556213047E+01  0.55154860581E+01 -0.36293291154E+02  0.36820892741E+02  0.00000000000E+00 0. -1.
         11    1    4    4    0    0  0.68111167968E+01  0.54484211962E+01  0.10202757920E+02  0.13422848989E+02  0.51100000000E-03 0. -1.
        -11    1    4    4    0    0  0.84634270965E+01 -0.10681394568E+02  0.25001478890E+02  0.28474475151E+02  0.51100000000E-03 0.  1.
        -12    1    4    4    0    0 -0.12418922589E+02 -0.28251268634E+00  0.10890543439E+01  0.12469783119E+02  0.00000000000E+00 0.  1.
</event>
<event>
 8    1  0.1238315E-006  0.9118800E+02  0.7816164E-02  0.1184000E+00
        -11   -1    0    0    0    0  0.00000000000E+00  0.00000000000E+00  0.45593999997E+02  0.45594000000E+02  0.51100000000E-03 0.  1.
         11   -1    0    0    0    0 -0.00000000000E+00 -0.00000000000E+00 -0.45593999997E+02  0.45594000000E+02  0.51100000000E-03 0. -1.
         23    2    1    2    0    0  0.00000000000E+00 -0.35527136788E-14  0.00000000000E+00  0.91188000000E+02  0.91188000000E+02 0.  0.
    9900012    2    3    3    0    0  0.23470861011E+02 -0.27944223219E+02  0.49009311194E+01  0.54367081302E+02  0.39999993445E+02 0.  0.
         12    1    3    3    0    0 -0.23470861011E+02  0.27944223219E+02 -0.49009311194E+01  0.36820918698E+02  0.00000000000E+00 0. -1.
         11    1    4    4    0    0 -0.64196599398E+01  0.25965346934E+00 -0.70986332859E+00  0.64640049407E+01  0.51100000000E-03 0. -1.
        -11    1    4    4    0    0  0.24643274038E+02 -0.30925327294E+02  0.96999048730E+01  0.40715537309E+02  0.51100000000E-03 0.  1.
        -12    1    4    4    0    0  0.52472469131E+01  0.27214506058E+01 -0.40891104250E+01  0.71875390527E+01  0.00000000000E+00 0.  1.
</event>
<event>
 8    1  0.1238315E-006  0.9118800E+02  0.7816164E-02  0.1184000E+00
        -11   -1    0    0    0    0  0.00000000000E+00  0.00000000000E+00  0.45593999997E+02  0.45594000000E+02  0.51100000000E-03 0. -1.
         11   -1    0    0    0    0 -0.00000000000E+00 -0.00000000000E+00 -0.45593999997E+02  0.45594000000E+02  0.51100000000E-03 0.  1.
         23    2    1    2    0    0  0.00000000000E+00  0.00000000000E+00  0.00000000000E+00  0.91188000000E+02  0.91188000000E+02 0.  0.
    9900012    2    3    3    0    0  0.27414294306E+02 -0.21006313028E+02  0.12766023990E+02  0.54367080839E+02  0.39999992390E+02 0.  0.
        -12    1    3    3    0    0 -0.27414294306E+02  0.21006313028E+02 -0.12766023990E+02  0.36820919161E+02  0.00000000000E+00 0.  1.
         11    1    4    4    0    0  0.10541794930E+02  0.90738976230E+01  0.82897256941E+01  0.16192115698E+02  0.51100000000E-03 0. -1.
        -11    1    4    4    0    0  0.47931466107E+01 -0.21614821776E+02  0.69789228461E+01  0.23213792004E+02  0.51100000000E-03 0.  1.
        -12    1    4    4    0    0  0.12079352765E+02 -0.84653888745E+01 -0.25026245500E+01  0.14961173138E+02  0.00000000000E+00 0.  1.
</event>
<event>
 8    1  0.1238315E-006  0.9118800E+02  0.7816164E-02  0.1184000E+00
        -11   -1    0    0    0    0  0.00000000000E+00  0.00000000000E+00  0.45593999997E+02  0.45594000000E+02  0.51100000000E-03 0.  1.
         11   -1    0    0    0    0 -0.00000000000E+00 -0.00000000000E+00 -0.45593999997E+02  0.45594000000E+02  0.51100000000E-03 0. -1.
         23    2    1    2    0    0  0.88817841970E-15  0.17763568394E-14  0.00000000000E+00  0.91188000000E+02  0.91188000000E+02 0.  0.
    9900012    2    3    3    0    0  0.74806720729E+01 -0.12526494001E+02  0.33806913628E+02  0.54367069598E+02  0.39999966763E+02 0.  0.
         12    1    3    3    0    0 -0.74806720729E+01  0.12526494001E+02 -0.33806913628E+02  0.36820930402E+02  0.00000000000E+00 0. -1.
         11    1    4    4    0    0 -0.47098896098E+00  0.28856357852E+01  0.19366464757E+02  0.19585930714E+02  0.51100000000E-03 0. -1.
        -11    1    4    4    0    0  0.16885465336E+02 -0.11289778733E+02  0.14475061143E+02  0.24942041592E+02  0.51100000000E-03 0.  1.
         12    1    4    4    0    0 -0.89338043017E+01 -0.41223510531E+01 -0.34612272178E-01  0.98390972917E+01  0.00000000000E+00 0. -1.
</event>
<event>
 8    1  0.1238315E-006  0.9118800E+02  0.7816164E-02  0.1184000E+00
        -11   -1    0    0    0    0  0.00000000000E+00  0.00000000000E+00  0.45593999997E+02  0.45594000000E+02  0.51100000000E-03 0.  1.
         11   -1    0    0    0    0 -0.00000000000E+00 -0.00000000000E+00 -0.45593999997E+02  0.45594000000E+02  0.51100000000E-03 0. -1.
         23    2    1    2    0    0  0.00000000000E+00  0.17763568394E-14  0.00000000000E+00  0.91188000000E+02  0.91188000000E+02 0.  0.
    9900012    2    3    3    0    0  0.82519108518E+01  0.15455098881E+02 -0.32385576528E+02  0.54367086362E+02  0.40000004979E+02 0.  0.
        -12    1    3    3    0    0 -0.82519108518E+01 -0.15455098881E+02  0.32385576528E+02  0.36820913638E+02  0.00000000000E+00 0.  1.
         11    1    4    4    0    0  0.12605886530E+02  0.25222854340E+02 -0.21946657166E+02  0.35731729839E+02  0.51100000000E-03 0. -1.
        -11    1    4    4    0    0 -0.46918359962E+01 -0.81358262563E+01 -0.12719288212E+02  0.15810923021E+02  0.51100000000E-03 0.  1.
         12    1    4    4    0    0  0.33786031826E+00 -0.16319292024E+01  0.22803688499E+01  0.28244335021E+01  0.00000000000E+00 0. -1.
</event>
<event>
 8    1  0.1238315E-006  0.9118800E+02  0.7816164E-02  0.1184000E+00
        -11   -1    0    0    0    0  0.00000000000E+00  0.00000000000E+00  0.45593999997E+02  0.45594000000E+02  0.51100000000E-03 0.  1.
         11   -1    0    0    0    0 -0.00000000000E+00 -0.00000000000E+00 -0.45593999997E+02  0.45594000000E+02  0.51100000000E-03 0. -1.
         23    2    1    2    0    0  0.00000000000E+00  0.00000000000E+00  0.00000000000E+00  0.91188000000E+02  0.91188000000E+02 0.  0.
    9900012    2    3    3    0    0  0.83081960534E+01  0.48420959157E+01 -0.35543033623E+02  0.54367092167E+02  0.40000018214E+02 0.  0.
        -12    1    3    3    0    0 -0.83081960534E+01 -0.48420959157E+01  0.35543033623E+02  0.36820907833E+02  0.00000000000E+00 0.  1.
         11    1    4    4    0    0 -0.60853568028E+01  0.16628077664E+01 -0.66506280937E+00  0.63434064892E+01  0.51100000000E-03 0. -1.
        -11    1    4    4    0    0  0.55584368532E+01 -0.13173870071E+02 -0.17263665276E+02  0.22416092700E+02  0.51100000000E-03 0.  1.
         12    1    4    4    0    0  0.88351160031E+01  0.16353158221E+02 -0.17614305537E+02  0.25607592978E+02  0.00000000000E+00 0. -1.
</event>
<event>
 8    1  0.1238315E-006  0.9118800E+02  0.7816164E-02  0.1184000E+00
        -11   -1    0    0    0    0  0.00000000000E+00  0.00000000000E+00  0.45593999997E+02  0.45594000000E+02  0.51100000000E-03 0. -1.
         11   -1    0    0    0    0 -0.00000000000E+00 -0.00000000000E+00 -0.45593999997E+02  0.45594000000E+02  0.51100000000E-03 0.  1.
         23    2    1    2    0    0  0.00000000000E+00  0.00000000000E+00  0.00000000000E+00  0.91188000000E+02  0.91188000000E+02 0.  0.
    9900012    2    3    3    0    0 -0.31851890891E+02 -0.11431278365E+02 -0.14510800338E+02  0.54367076535E+02  0.39999982577E+02 0.  0.
        -12    1    3    3    0    0  0.31851890891E+02  0.11431278365E+02  0.14510800338E+02  0.36820923465E+02  0.00000000000E+00 0.  1.
         11    1    4    4    0    0 -0.29897634292E+02 -0.72035446018E+01  0.75358639827E+01  0.31663051611E+02  0.51100000000E-03 0. -1.
        -11    1    4    4    0    0 -0.13384576541E+01 -0.69108681035E+00 -0.10631792702E+02  0.10737974026E+02  0.51100000000E-03 0.  1.
         12    1    4    4    0    0 -0.61579894444E+00 -0.35366469524E+01 -0.11414871619E+02  0.11966050898E+02  0.00000000000E+00 0. -1.
</event>
<event>
 8    1  0.1238315E-006  0.9118800E+02  0.7816164E-02  0.1184000E+00
        -11   -1    0    0    0    0  0.00000000000E+00  0.00000000000E+00  0.45593999997E+02  0.45594000000E+02  0.51100000000E-03 0.  1.
         11   -1    0    0    0    0 -0.00000000000E+00 -0.00000000000E+00 -0.45593999997E+02  0.45594000000E+02  0.51100000000E-03 0. -1.
         23    2    1    2    0    0 -0.71054273576E-14 -0.11102230246E-15  0.00000000000E+00  0.91188000000E+02  0.91188000000E+02 0.  0.
    9900012    2    3    3    0    0  0.34229934171E+02  0.30561390299E+00  0.13564581587E+02  0.54367086556E+02  0.40000005423E+02 0.  0.
        -12    1    3    3    0    0 -0.34229934171E+02 -0.30561390299E+00 -0.13564581587E+02  0.36820913444E+02  0.00000000000E+00 0.  1.
         11    1    4    4    0    0 -0.11211487935E+01 -0.45539390660E+01  0.20388740648E+01  0.51139361892E+01  0.51100000000E-03 0. -1.
        -11    1    4    4    0    0  0.40836781452E+02  0.35491942420E+01  0.13683677564E+02  0.43214378754E+02  0.51100000000E-03 0.  1.
        -12    1    4    4    0    0 -0.54856984881E+01  0.13103587270E+01 -0.21579700420E+01  0.60387716133E+01  0.00000000000E+00 0.  1.
</event>
<event>
 8    1  0.1238315E-006  0.9118800E+02  0.7816164E-02  0.1184000E+00
        -11   -1    0    0    0    0  0.00000000000E+00  0.00000000000E+00  0.45593999997E+02  0.45594000000E+02  0.51100000000E-03 0.  1.
         11   -1    0    0    0    0 -0.00000000000E+00 -0.00000000000E+00 -0.45593999997E+02  0.45594000000E+02  0.51100000000E-03 0. -1.
         23    2    1    2    0    0  0.00000000000E+00 -0.35527136788E-14 -0.22204460493E-15  0.91188000000E+02  0.91188000000E+02 0.  0.
    9900012    2    3    3    0    0  0.22601742866E+02  0.29065259897E+02  0.38932847273E+00  0.54367086240E+02  0.40000004701E+02 0.  0.
         12    1    3    3    0    0 -0.22601742866E+02 -0.29065259897E+02 -0.38932847273E+00  0.36820913760E+02  0.00000000000E+00 0. -1.
         11    1    4    4    0    0  0.16058018924E+02 -0.95808406776E+00  0.81955617548E+01  0.18053950526E+02  0.51100000000E-03 0. -1.
        -11    1    4    4    0    0  0.85025568130E+01  0.40551682030E+01 -0.22496656948E+01  0.96849810280E+01  0.51100000000E-03 0.  1.
        -12    1    4    4    0    0 -0.19588328719E+01  0.25968175762E+02 -0.55565675873E+01  0.26628154686E+02  0.00000000000E+00 0.  1.
</event>
<event>
 8    1  0.1238315E-006  0.9118800E+02  0.7816164E-02  0.1184000E+00
        -11   -1    0    0    0    0  0.00000000000E+00  0.00000000000E+00  0.45593999997E+02  0.45594000000E+02  0.51100000000E-03 0.  1.
         11   -1    0    0    0    0 -0.00000000000E+00 -0.00000000000E+00 -0.45593999997E+02  0.45594000000E+02  0.51100000000E-03 0. -1.
         23    2    1    2    0    0 -0.17763568394E-14  0.00000000000E+00  0.00000000000E+00  0.91188000000E+02  0.91188000000E+02 0.  0.
    9900012    2    3    3    0    0 -0.12028634333E+02 -0.33445517599E+02 -0.96171003096E+01  0.54367091405E+02  0.40000016477E+02 0.  0.
        -12    1    3    3    0    0  0.12028634333E+02  0.33445517599E+02  0.96171003096E+01  0.36820908595E+02  0.00000000000E+00 0.  1.
         11    1    4    4    0    0  0.10687677146E+02 -0.22944274615E+02  0.26489186932E+01  0.25449615928E+02  0.51100000000E-03 0. -1.
        -11    1    4    4    0    0 -0.27302680384E+01  0.68830405295E-01 -0.40027019511E+01  0.48456913188E+01  0.51100000000E-03 0.  1.
         12    1    4    4    0    0 -0.19986043441E+02 -0.10570073389E+02 -0.82633170517E+01  0.24071784158E+02  0.00000000000E+00 0. -1.
</event>
<event>
 8    1  0.1238315E-006  0.9118800E+02  0.7816164E-02  0.1184000E+00
        -11   -1    0    0    0    0  0.00000000000E+00  0.00000000000E+00  0.45593999997E+02  0.45594000000E+02  0.51100000000E-03 0.  1.
         11   -1    0    0    0    0 -0.00000000000E+00 -0.00000000000E+00 -0.45593999997E+02  0.45594000000E+02  0.51100000000E-03 0. -1.
         23    2    1    2    0    0  0.00000000000E+00 -0.35527136788E-14  0.35527136788E-14  0.91188000000E+02  0.91188000000E+02 0.  0.
    9900012    2    3    3    0    0 -0.21033776921E+01 -0.19009267945E+02  0.31464317996E+02  0.54367085121E+02  0.40000002151E+02 0.  0.
         12    1    3    3    0    0  0.21033776921E+01  0.19009267945E+02 -0.31464317996E+02  0.36820914879E+02  0.00000000000E+00 0. -1.
         11    1    4    4    0    0 -0.97530323279E+01 -0.12131775085E+02  0.10940310834E+02  0.19026087556E+02  0.51100000000E-03 0. -1.
        -11    1    4    4    0    0  0.82442423032E+01 -0.74278130448E+01  0.26803329004E+02  0.29009625708E+02  0.51100000000E-03 0.  1.
         12    1    4    4    0    0 -0.59458766744E+00  0.55032018423E+00 -0.62793218416E+01  0.63313718569E+01  0.00000000000E+00 0. -1.
</event>
<event>
 8    1  0.1238315E-006  0.9118800E+02  0.7816164E-02  0.1184000E+00
        -11   -1    0    0    0    0  0.00000000000E+00  0.00000000000E+00  0.45593999997E+02  0.45594000000E+02  0.51100000000E-03 0. -1.
         11   -1    0    0    0    0 -0.00000000000E+00 -0.00000000000E+00 -0.45593999997E+02  0.45594000000E+02  0.51100000000E-03 0.  1.
         23    2    1    2    0    0 -0.17763568394E-14  0.00000000000E+00  0.00000000000E+00  0.91188000000E+02  0.91188000000E+02 0.  0.
    9900012    2    3    3    0    0  0.12768610248E+02  0.33380475166E+02 -0.88590214470E+01  0.54367139187E+02  0.40000125405E+02 0.  0.
         12    1    3    3    0    0 -0.12768610248E+02 -0.33380475166E+02  0.88590214470E+01  0.36820860813E+02  0.00000000000E+00 0. -1.
         11    1    4    4    0    0  0.25504297516E+01  0.28143452745E+01 -0.11975822126E+01  0.39823905709E+01  0.51100000000E-03 0. -1.
        -11    1    4    4    0    0  0.12890220453E+02  0.38932891183E+02 -0.65665004561E+01  0.41533681846E+02  0.51100000000E-03 0.  1.
         12    1    4    4    0    0 -0.26720399566E+01 -0.83667612914E+01 -0.10949387783E+01  0.88510667699E+01  0.00000000000E+00 0. -1.
</event>
<event>
 8    1  0.1238315E-006  0.9118800E+02  0.7816164E-02  0.1184000E+00
        -11   -1    0    0    0    0  0.00000000000E+00  0.00000000000E+00  0.45593999997E+02  0.45594000000E+02  0.51100000000E-03 0. -1.
         11   -1    0    0    0    0 -0.00000000000E+00 -0.00000000000E+00 -0.45593999997E+02  0.45594000000E+02  0.51100000000E-03 0.  1.
         23    2    1    2    0    0  0.00000000000E+00  0.00000000000E+00 -0.17763568394E-14  0.91188000000E+02  0.91188000000E+02 0.  0.
    9900012    2    3    3    0    0  0.34334361295E+02 -0.10125214521E+02  0.86262066856E+01  0.54367085068E+02  0.40000002029E+02 0.  0.
        -12    1    3    3    0    0 -0.34334361295E+02  0.10125214521E+02 -0.86262066856E+01  0.36820914932E+02  0.00000000000E+00 0.  1.
         11    1    4    4    0    0  0.60148272834E+01  0.44426588753E+01  0.41010503417E+01  0.85284218527E+01  0.51100000000E-03 0. -1.
        -11    1    4    4    0    0  0.17385489372E+02 -0.60573862662E+01 -0.13697146561E+02  0.22946873278E+02  0.51100000000E-03 0.  1.
         12    1    4    4    0    0  0.10934044640E+02 -0.85104871302E+01  0.18222302905E+02  0.22891789937E+02  0.00000000000E+00 0. -1.
</event>
<event>
 8    1  0.1238315E-006  0.9118800E+02  0.7816164E-02  0.1184000E+00
        -11   -1    0    0    0    0  0.00000000000E+00  0.00000000000E+00  0.45593999997E+02  0.45594000000E+02  0.51100000000E-03 0. -1.
         11   -1    0    0    0    0 -0.00000000000E+00 -0.00000000000E+00 -0.45593999997E+02  0.45594000000E+02  0.51100000000E-03 0.  1.
         23    2    1    2    0    0  0.88817841970E-15 -0.17763568394E-14  0.00000000000E+00  0.91188000000E+02  0.91188000000E+02 0.  0.
    9900012    2    3    3    0    0  0.38238625781E+01 -0.50902145291E+01 -0.36266335296E+02  0.54367091745E+02  0.40000017250E+02 0.  0.
         12    1    3    3    0    0 -0.38238625781E+01  0.50902145291E+01  0.36266335296E+02  0.36820908255E+02  0.00000000000E+00 0. -1.
         11    1    4    4    0    0 -0.99131601512E+01  0.73445197315E+01 -0.14578018317E+02  0.19097940533E+02  0.51100000000E-03 0. -1.
        -11    1    4    4    0    0  0.10295899727E+02 -0.11308748103E+02 -0.25674352132E+02  0.29884204733E+02  0.51100000000E-03 0.  1.
        -12    1    4    4    0    0  0.34411230020E+01 -0.11259861573E+01  0.39860351534E+01  0.53849464793E+01  0.00000000000E+00 0.  1.
</event>
<event>
 8    1  0.1238315E-006  0.9118800E+02  0.7816164E-02  0.1184000E+00
        -11   -1    0    0    0    0  0.00000000000E+00  0.00000000000E+00  0.45593999997E+02  0.45594000000E+02  0.51100000000E-03 0.  1.
         11   -1    0    0    0    0 -0.00000000000E+00 -0.00000000000E+00 -0.45593999997E+02  0.45594000000E+02  0.51100000000E-03 0. -1.
         23    2    1    2    0    0  0.35527136788E-14  0.00000000000E+00  0.35527136788E-14  0.91188000000E+02  0.91188000000E+02 0.  0.
    9900012    2    3    3    0    0 -0.22392850910E+02 -0.84839303304E+01 -0.27970751868E+02  0.54367084670E+02  0.40000001121E+02 0.  0.
        -12    1    3    3    0    0  0.22392850910E+02  0.84839303304E+01  0.27970751868E+02  0.36820915330E+02  0.00000000000E+00 0.  1.
         11    1    4    4    0    0 -0.18041383905E+02  0.63381627927E+01 -0.55076570147E+01  0.19899701677E+02  0.51100000000E-03 0. -1.
        -11    1    4    4    0    0  0.28819753797E+01 -0.25353531343E+01 -0.19539378482E+02  0.19912837802E+02  0.51100000000E-03 0.  1.
        -12    1    4    4    0    0 -0.72334423849E+01 -0.12286739989E+02 -0.29237163713E+01  0.14554545191E+02  0.00000000000E+00 0.  1.
</event>
<event>
 8    1  0.1238315E-006  0.9118800E+02  0.7816164E-02  0.1184000E+00
        -11   -1    0    0    0    0  0.00000000000E+00  0.00000000000E+00  0.45593999997E+02  0.45594000000E+02  0.51100000000E-03 0. -1.
         11   -1    0    0    0    0 -0.00000000000E+00 -0.00000000000E+00 -0.45593999997E+02  0.45594000000E+02  0.51100000000E-03 0.  1.
         23    2    1    2    0    0  0.00000000000E+00  0.00000000000E+00  0.71054273576E-14  0.91188000000E+02  0.91188000000E+02 0.  0.
    9900012    2    3    3    0    0 -0.98946192309E+01 -0.57185532447E+01 -0.35002493316E+02  0.54367083671E+02  0.39999998845E+02 0.  0.
         12    1    3    3    0    0  0.98946192309E+01  0.57185532447E+01  0.35002493316E+02  0.36820916329E+02  0.00000000000E+00 0. -1.
         11    1    4    4    0    0  0.43988830888E+01 -0.14490946464E+02 -0.23853740822E+02  0.28254887246E+02  0.51100000000E-03 0. -1.
        -11    1    4    4    0    0  0.17560287798E+01  0.28477302710E+00 -0.73515392163E+01  0.75637201073E+01  0.51100000000E-03 0.  1.
         12    1    4    4    0    0 -0.16049531099E+02  0.84876201919E+01 -0.37972132784E+01  0.18548476318E+02  0.00000000000E+00 0. -1.
</event>
<event>
 8    1  0.1238315E-006  0.9118800E+02  0.7816164E-02  0.1184000E+00
        -11   -1    0    0    0    0  0.00000000000E+00  0.00000000000E+00  0.45593999997E+02  0.45594000000E+02  0.51100000000E-03 0.  1.
         11   -1    0    0    0    0 -0.00000000000E+00 -0.00000000000E+00 -0.45593999997E+02  0.45594000000E+02  0.51100000000E-03 0. -1.
         23    2    1    2    0    0  0.71054273576E-14  0.00000000000E+00  0.44408920985E-15  0.91188000000E+02  0.91188000000E+02 0.  0.
    9900012    2    3    3    0    0  0.29755256809E+02 -0.21445477975E+02  0.32397528255E+01  0.54367084317E+02  0.40000000318E+02 0.  0.
        -12    1    3    3    0    0 -0.29755256809E+02  0.21445477975E+02 -0.32397528255E+01  0.36820915683E+02  0.00000000000E+00 0.  1.
         11    1    4    4    0    0  0.20455624544E+01  0.90739589082E+01  0.79482466136E+00  0.93355665349E+01  0.51100000000E-03 0. -1.
        -11    1    4    4    0    0  0.98001379300E+01 -0.23935021454E+02  0.74506586098E+00  0.25874371081E+02  0.51100000000E-03 0.  1.
        -12    1    4    4    0    0  0.17909556425E+02 -0.65844154295E+01  0.16998623032E+01  0.19157146701E+02  0.00000000000E+00 0.  1.
</event>
<event>
 8    1  0.1238315E-006  0.9118800E+02  0.7816164E-02  0.1184000E+00
        -11   -1    0    0    0    0  0.00000000000E+00  0.00000000000E+00  0.45593999997E+02  0.45594000000E+02  0.51100000000E-03 0.  1.
         11   -1    0    0    0    0 -0.00000000000E+00 -0.00000000000E+00 -0.45593999997E+02  0.45594000000E+02  0.51100000000E-03 0. -1.
         23    2    1    2    0    0 -0.35527136788E-14 -0.35527136788E-14  0.35527136788E-14  0.91188000000E+02  0.91188000000E+02 0.  0.
    9900012    2    3    3    0    0  0.20929227163E+02  0.22155196536E+02 -0.20661453197E+02  0.54367069384E+02  0.39999966274E+02 0.  0.
        -12    1    3    3    0    0 -0.20929227163E+02 -0.22155196536E+02  0.20661453197E+02  0.36820930616E+02  0.00000000000E+00 0.  1.
         11    1    4    4    0    0  0.98037260220E+01  0.81609603876E+01 -0.18297276958E+01  0.12886513185E+02  0.51100000000E-03 0.  1.
        -11    1    4    4    0    0  0.18792062617E+02  0.19216257092E+02 -0.17589683046E+02  0.32121692109E+02  0.51100000000E-03 0. -1.
        -12    1    4    4    0    0 -0.76665614759E+01 -0.52220209430E+01 -0.12420424555E+01  0.93588640900E+01  0.00000000000E+00 0.  1.
</event>
<event>
 8    1  0.1238315E-006  0.9118800E+02  0.7816164E-02  0.1184000E+00
        -11   -1    0    0    0    0  0.00000000000E+00  0.00000000000E+00  0.45593999997E+02  0.45594000000E+02  0.51100000000E-03 0. -1.
         11   -1    0    0    0    0 -0.00000000000E+00 -0.00000000000E+00 -0.45593999997E+02  0.45594000000E+02  0.51100000000E-03 0.  1.
         23    2    1    2    0    0  0.00000000000E+00 -0.35527136788E-14  0.00000000000E+00  0.91188000000E+02  0.91188000000E+02 0.  0.
    9900012    2    3    3    0    0  0.60863298839E+01 -0.27753220035E+02 -0.23419972320E+02  0.54367085600E+02  0.40000003242E+02 0.  0.
         12    1    3    3    0    0 -0.60863298839E+01  0.27753220035E+02  0.23419972320E+02  0.36820914400E+02  0.00000000000E+00 0. -1.
         11    1    4    4    0    0  0.77552680733E+01 -0.10160284783E+02 -0.66429251243E+00  0.12799095850E+02  0.51100000000E-03 0. -1.
        -11    1    4    4    0    0 -0.35184114311E+01  0.13067953862E+01 -0.22257201819E+02  0.22571441386E+02  0.51100000000E-03 0.  1.
        -12    1    4    4    0    0  0.18494732417E+01 -0.18899730638E+02 -0.49847798927E+00  0.18996548365E+02  0.00000000000E+00 0.  1.
</event>
<event>
 8    1  0.1238315E-006  0.9118800E+02  0.7816164E-02  0.1184000E+00
        -11   -1    0    0    0    0  0.00000000000E+00  0.00000000000E+00  0.45593999997E+02  0.45594000000E+02  0.51100000000E-03 0.  1.
         11   -1    0    0    0    0 -0.00000000000E+00 -0.00000000000E+00 -0.45593999997E+02  0.45594000000E+02  0.51100000000E-03 0. -1.
         23    2    1    2    0    0  0.17763568394E-14 -0.44408920985E-15 -0.71054273576E-14  0.91188000000E+02  0.91188000000E+02 0.  0.
    9900012    2    3    3    0    0  0.12523026956E+02  0.15393695763E+01  0.34591648141E+02  0.54367109409E+02  0.40000057519E+02 0.  0.
         12    1    3    3    0    0 -0.12523026956E+02 -0.15393695763E+01 -0.34591648141E+02  0.36820890591E+02  0.00000000000E+00 0. -1.
         11    1    4    4    0    0  0.29205211991E+01  0.68755556809E+01 -0.53124759183E+01  0.91665211852E+01  0.51100000000E-03 0. -1.
        -11    1    4    4    0    0  0.89917156358E+00 -0.52119100724E+01  0.34612158785E+02  0.35013912266E+02  0.51100000000E-03 0.  1.
        -12    1    4    4    0    0  0.87033341934E+01 -0.12427603214E+00  0.52919652736E+01  0.10186675958E+02  0.00000000000E+00 0.  1.
</event>
<event>
 8    1  0.1238315E-006  0.9118800E+02  0.7816164E-02  0.1184000E+00
        -11   -1    0    0    0    0  0.00000000000E+00  0.00000000000E+00  0.45593999997E+02  0.45594000000E+02  0.51100000000E-03 0.  1.
         11   -1    0    0    0    0 -0.00000000000E+00 -0.00000000000E+00 -0.45593999997E+02  0.45594000000E+02  0.51100000000E-03 0. -1.
         23    2    1    2    0    0 -0.88817841970E-15  0.00000000000E+00  0.00000000000E+00  0.91188000000E+02  0.91188000000E+02 0.  0.
    9900012    2    3    3    0    0  0.60704012505E+01 -0.55277640693E+01  0.35893932706E+02  0.54367077252E+02  0.39999984211E+02 0.  0.
         12    1    3    3    0    0 -0.60704012505E+01  0.55277640693E+01 -0.35893932706E+02  0.36820922748E+02  0.00000000000E+00 0. -1.
         11    1    4    4    0    0 -0.45167224412E+01  0.47758203885E+01  0.20161014616E+01  0.68756023269E+01  0.51100000000E-03 0. -1.
        -11    1    4    4    0    0  0.19440755524E+02 -0.67369561849E+01  0.31551046355E+02  0.37666936168E+02  0.51100000000E-03 0.  1.
        -12    1    4    4    0    0 -0.88536318322E+01 -0.35666282728E+01  0.23267848893E+01  0.98245387565E+01  0.00000000000E+00 0.  1.
</event>
<event>
 8    1  0.1238315E-006  0.9118800E+02  0.7816164E-02  0.1184000E+00
        -11   -1    0    0    0    0  0.00000000000E+00  0.00000000000E+00  0.45593999997E+02  0.45594000000E+02  0.51100000000E-03 0.  1.
         11   -1    0    0    0    0 -0.00000000000E+00 -0.00000000000E+00 -0.45593999997E+02  0.45594000000E+02  0.51100000000E-03 0. -1.
         23    2    1    2    0    0  0.00000000000E+00 -0.17763568394E-14  0.00000000000E+00  0.91188000000E+02  0.91188000000E+02 0.  0.
    9900012    2    3    3    0    0 -0.21696380712E+02 -0.12676339378E+02  0.26913863064E+02  0.54367101844E+02  0.40000040274E+02 0.  0.
         12    1    3    3    0    0  0.21696380712E+02  0.12676339378E+02 -0.26913863064E+02  0.36820898156E+02  0.00000000000E+00 0. -1.
         11    1    4    4    0    0 -0.20932501800E+02  0.14743726953E+01  0.16917189722E+02  0.26954307908E+02  0.51100000000E-03 0.  1.
        -11    1    4    4    0    0 -0.76248521919E+01  0.16462478520E+01  0.57033421476E+01  0.96631576026E+01  0.51100000000E-03 0. -1.
        -12    1    4    4    0    0  0.68609732802E+01 -0.15796959925E+02  0.42933311937E+01  0.17749636333E+02  0.00000000000E+00 0.  1.
</event>
<event>
 8    1  0.1238315E-006  0.9118800E+02  0.7816164E-02  0.1184000E+00
        -11   -1    0    0    0    0  0.00000000000E+00  0.00000000000E+00  0.45593999997E+02  0.45594000000E+02  0.51100000000E-03 0.  1.
         11   -1    0    0    0    0 -0.00000000000E+00 -0.00000000000E+00 -0.45593999997E+02  0.45594000000E+02  0.51100000000E-03 0. -1.
         23    2    1    2    0    0  0.00000000000E+00  0.44408920985E-15  0.17763568394E-14  0.91188000000E+02  0.91188000000E+02 0.  0.
    9900012    2    3    3    0    0  0.34866023980E+02 -0.20142769366E+01 -0.11665427326E+02  0.54367093785E+02  0.40000021902E+02 0.  0.
        -12    1    3    3    0    0 -0.34866023980E+02  0.20142769366E+01  0.11665427326E+02  0.36820906215E+02  0.00000000000E+00 0.  1.
         11    1    4    4    0    0  0.15093750092E+02 -0.15357627601E+02  0.17075263982E+01  0.21600779246E+02  0.51100000000E-03 0.  1.
        -11    1    4    4    0    0  0.73960871772E+01  0.60815048188E+01 -0.15541057615E+02  0.18254075667E+02  0.51100000000E-03 0. -1.
        -12    1    4    4    0    0  0.12376186711E+02  0.72618458459E+01  0.21681038911E+01  0.14512238872E+02  0.00000000000E+00 0.  1.
</event>
<event>
 8    1  0.1238315E-006  0.9118800E+02  0.7816164E-02  0.1184000E+00
        -11   -1    0    0    0    0  0.00000000000E+00  0.00000000000E+00  0.45593999997E+02  0.45594000000E+02  0.51100000000E-03 0. -1.
         11   -1    0    0    0    0 -0.00000000000E+00 -0.00000000000E+00 -0.45593999997E+02  0.45594000000E+02  0.51100000000E-03 0.  1.
         23    2    1    2    0    0  0.00000000000E+00  0.00000000000E+00  0.88817841970E-15  0.91188000000E+02  0.91188000000E+02 0.  0.
    9900012    2    3    3    0    0 -0.22807657794E+02 -0.27934809047E+02  0.74321495093E+01  0.54367086692E+02  0.40000005731E+02 0.  0.
        -12    1    3    3    0    0  0.22807657794E+02  0.27934809047E+02 -0.74321495093E+01  0.36820913308E+02  0.00000000000E+00 0.  1.
         11    1    4    4    0    0 -0.20973729393E+02 -0.26371090868E+02  0.68940699622E+01  0.34392731196E+02  0.51100000000E-03 0. -1.
        -11    1    4    4    0    0 -0.86780783971E+01  0.14882885783E+01 -0.54733702178E+01  0.10367344374E+02  0.51100000000E-03 0.  1.
        -12    1    4    4    0    0  0.68441499964E+01 -0.30520067575E+01  0.60114497649E+01  0.96070111219E+01  0.00000000000E+00 0.  1.
</event>
<event>
 8    1  0.1238315E-006  0.9118800E+02  0.7816164E-02  0.1184000E+00
        -11   -1    0    0    0    0  0.00000000000E+00  0.00000000000E+00  0.45593999997E+02  0.45594000000E+02  0.51100000000E-03 0.  1.
         11   -1    0    0    0    0 -0.00000000000E+00 -0.00000000000E+00 -0.45593999997E+02  0.45594000000E+02  0.51100000000E-03 0. -1.
         23    2    1    2    0    0  0.00000000000E+00 -0.35527136788E-14  0.00000000000E+00  0.91188000000E+02  0.91188000000E+02 0.  0.
    9900012    2    3    3    0    0  0.22020016252E+02 -0.28692047666E+02  0.69037724589E+01  0.54367125633E+02  0.40000094505E+02 0.  0.
         12    1    3    3    0    0 -0.22020016252E+02  0.28692047666E+02 -0.69037724589E+01  0.36820874367E+02  0.00000000000E+00 0. -1.
         11    1    4    4    0    0  0.20057596416E+01 -0.23453344629E+02  0.10386191515E+02  0.25728494330E+02  0.51100000000E-03 0. -1.
        -11    1    4    4    0    0  0.19702639907E+02 -0.75101718601E+01  0.34239396465E+01  0.21361649366E+02  0.51100000000E-03 0.  1.
         12    1    4    4    0    0  0.31161670392E+00  0.22714688239E+01 -0.69063587025E+01  0.72769819373E+01  0.00000000000E+00 0. -1.
</event>
<event>
 8    1  0.1238315E-006  0.9118800E+02  0.7816164E-02  0.1184000E+00
        -11   -1    0    0    0    0  0.00000000000E+00  0.00000000000E+00  0.45593999997E+02  0.45594000000E+02  0.51100000000E-03 0.  1.
         11   -1    0    0    0    0 -0.00000000000E+00 -0.00000000000E+00 -0.45593999997E+02  0.45594000000E+02  0.51100000000E-03 0. -1.
         23    2    1    2    0    0  0.00000000000E+00  0.88817841970E-15  0.00000000000E+00  0.91188000000E+02  0.91188000000E+02 0.  0.
    9900012    2    3    3    0    0 -0.34539879913E+02 -0.45261773393E+01  0.11928434774E+02  0.54367120844E+02  0.40000083587E+02 0.  0.
         12    1    3    3    0    0  0.34539879913E+02  0.45261773393E+01 -0.11928434774E+02  0.36820879156E+02  0.00000000000E+00 0. -1.
         11    1    4    4    0    0  0.47522429364E+01  0.12713334061E+01  0.43258481496E+01  0.65508063649E+01  0.51100000000E-03 0. -1.
        -11    1    4    4    0    0 -0.19489999806E+02 -0.29868187944E+01  0.16704305720E+02  0.25842116956E+02  0.51100000000E-03 0.  1.
         12    1    4    4    0    0 -0.19802123044E+02 -0.28106919510E+01 -0.91017190951E+01  0.21974197523E+02  0.00000000000E+00 0. -1.
</event>
<event>
 8    1  0.1238315E-006  0.9118800E+02  0.7816164E-02  0.1184000E+00
        -11   -1    0    0    0    0  0.00000000000E+00  0.00000000000E+00  0.45593999997E+02  0.45594000000E+02  0.51100000000E-03 0. -1.
         11   -1    0    0    0    0 -0.00000000000E+00 -0.00000000000E+00 -0.45593999997E+02  0.45594000000E+02  0.51100000000E-03 0.  1.
         23    2    1    2    0    0  0.00000000000E+00  0.00000000000E+00  0.00000000000E+00  0.91188000000E+02  0.91188000000E+02 0.  0.
    9900012    2    3    3    0    0  0.21919484485E+02  0.25212361943E+02  0.15480729609E+02  0.54367082248E+02  0.39999995601E+02 0.  0.
        -12    1    3    3    0    0 -0.21919484485E+02 -0.25212361943E+02 -0.15480729609E+02  0.36820917752E+02  0.00000000000E+00 0.  1.
         11    1    4    4    0    0 -0.99310335767E+00  0.13834586056E+02  0.91625886966E+01  0.16623328713E+02  0.51100000000E-03 0. -1.
        -11    1    4    4    0    0  0.15050473610E+02  0.93076480146E+01  0.16852620934E+02  0.24436855364E+02  0.51100000000E-03 0.  1.
        -12    1    4    4    0    0  0.78621142324E+01  0.20701278731E+01 -0.10534480022E+02  0.13306898171E+02  0.00000000000E+00 0.  1.
</event>
<event>
 8    1  0.1238315E-006  0.9118800E+02  0.7816164E-02  0.1184000E+00
        -11   -1    0    0    0    0  0.00000000000E+00  0.00000000000E+00  0.45593999997E+02  0.45594000000E+02  0.51100000000E-03 0. -1.
         11   -1    0    0    0    0 -0.00000000000E+00 -0.00000000000E+00 -0.45593999997E+02  0.45594000000E+02  0.51100000000E-03 0.  1.
         23    2    1    2    0    0  0.00000000000E+00 -0.71054273576E-14  0.00000000000E+00  0.91188000000E+02  0.91188000000E+02 0.  0.
    9900012    2    3    3    0    0  0.12867048504E+02  0.33997103828E+02 -0.58665088414E+01  0.54367082957E+02  0.39999997217E+02 0.  0.
         12    1    3    3    0    0 -0.12867048504E+02 -0.33997103828E+02  0.58665088414E+01  0.36820917043E+02  0.00000000000E+00 0. -1.
         11    1    4    4    0    0  0.50150385080E+01  0.29660697050E+02  0.62684427932E+01  0.30727852773E+02  0.51100000000E-03 0. -1.
        -11    1    4    4    0    0  0.98020541307E+01  0.58792571227E+01 -0.15621644982E+02  0.19356697076E+02  0.51100000000E-03 0.  1.
        -12    1    4    4    0    0 -0.19500441345E+01 -0.15428503449E+01  0.34866933477E+01  0.42825331072E+01  0.00000000000E+00 0.  1.
</event>
<event>
 8    1  0.1238315E-006  0.9118800E+02  0.7816164E-02  0.1184000E+00
        -11   -1    0    0    0    0  0.00000000000E+00  0.00000000000E+00  0.45593999997E+02  0.45594000000E+02  0.51100000000E-03 0. -1.
         11   -1    0    0    0    0 -0.00000000000E+00 -0.00000000000E+00 -0.45593999997E+02  0.45594000000E+02  0.51100000000E-03 0.  1.
         23    2    1    2    0    0  0.00000000000E+00  0.17763568394E-14  0.00000000000E+00  0.91188000000E+02  0.91188000000E+02 0.  0.
    9900012    2    3    3    0    0 -0.34992393809E+02 -0.11417574004E+02 -0.97538010600E+00  0.54367082209E+02  0.39999995512E+02 0.  0.
         12    1    3    3    0    0  0.34992393809E+02  0.11417574004E+02  0.97538010600E+00  0.36820917791E+02  0.00000000000E+00 0. -1.
         11    1    4    4    0    0 -0.28184711894E+02  0.48621743013E+01  0.13314462464E+01  0.28632000853E+02  0.51100000000E-03 0.  1.
        -11    1    4    4    0    0 -0.10886492336E+02 -0.61842239513E+01 -0.64511799342E+01  0.14084674794E+02  0.51100000000E-03 0. -1.
         12    1    4    4    0    0  0.40788104212E+01 -0.10095524354E+02  0.41443535818E+01  0.11650406562E+02  0.00000000000E+00 0. -1.
</event>
<event>
 8    1  0.1238315E-006  0.9118800E+02  0.7816164E-02  0.1184000E+00
        -11   -1    0    0    0    0  0.00000000000E+00  0.00000000000E+00  0.45593999997E+02  0.45594000000E+02  0.51100000000E-03 0.  1.
         11   -1    0    0    0    0 -0.00000000000E+00 -0.00000000000E+00 -0.45593999997E+02  0.45594000000E+02  0.51100000000E-03 0. -1.
         23    2    1    2    0    0  0.00000000000E+00  0.17763568394E-14  0.00000000000E+00  0.91188000000E+02  0.91188000000E+02 0.  0.
    9900012    2    3    3    0    0  0.34817951937E+02  0.42261515636E+01 -0.11208427493E+02  0.54367095869E+02  0.40000026653E+02 0.  0.
        -12    1    3    3    0    0 -0.34817951937E+02 -0.42261515636E+01  0.11208427493E+02  0.36820904131E+02  0.00000000000E+00 0.  1.
         11    1    4    4    0    0  0.29854970309E+02  0.14055456922E+02 -0.68582530516E+01  0.33703275162E+02  0.51100000000E-03 0. -1.
        -11    1    4    4    0    0 -0.62493779179E+01 -0.48424260895E+01 -0.21914837589E+01  0.82040487638E+01  0.51100000000E-03 0.  1.
         12    1    4    4    0    0  0.11212359546E+02 -0.49868792688E+01 -0.21586906826E+01  0.12459771944E+02  0.00000000000E+00 0. -1.
</event>
<event>
 8    1  0.1238315E-006  0.9118800E+02  0.7816164E-02  0.1184000E+00
        -11   -1    0    0    0    0  0.00000000000E+00  0.00000000000E+00  0.45593999997E+02  0.45594000000E+02  0.51100000000E-03 0.  1.
         11   -1    0    0    0    0 -0.00000000000E+00 -0.00000000000E+00 -0.45593999997E+02  0.45594000000E+02  0.51100000000E-03 0. -1.
         23    2    1    2    0    0 -0.17763568394E-14 -0.35527136788E-14 -0.35527136788E-14  0.91188000000E+02  0.91188000000E+02 0.  0.
    9900012    2    3    3    0    0 -0.97515111062E+01 -0.22452658982E+02 -0.27505734762E+02  0.54367091416E+02  0.40000016501E+02 0.  0.
        -12    1    3    3    0    0  0.97515111062E+01  0.22452658982E+02  0.27505734762E+02  0.36820908584E+02  0.00000000000E+00 0.  1.
         11    1    4    4    0    0  0.30290206722E+01 -0.45645271679E+01 -0.88669134541E+00  0.55494230603E+01  0.51100000000E-03 0.  1.
        -11    1    4    4    0    0 -0.44732872522E+00  0.12147685471E+01 -0.26039871264E+02  0.26072028331E+02  0.51100000000E-03 0. -1.
         12    1    4    4    0    0 -0.12333203053E+02 -0.19102900361E+02 -0.57917215255E+00  0.22745640024E+02  0.00000000000E+00 0. -1.
</event>
<event>
 8    1  0.1238315E-006  0.9118800E+02  0.7816164E-02  0.1184000E+00
        -11   -1    0    0    0    0  0.00000000000E+00  0.00000000000E+00  0.45593999997E+02  0.45594000000E+02  0.51100000000E-03 0.  1.
         11   -1    0    0    0    0 -0.00000000000E+00 -0.00000000000E+00 -0.45593999997E+02  0.45594000000E+02  0.51100000000E-03 0. -1.
         23    2    1    2    0    0  0.71054273576E-14 -0.88817841970E-15  0.00000000000E+00  0.91188000000E+02  0.91188000000E+02 0.  0.
    9900012    2    3    3    0    0  0.36502222208E+02 -0.40237371507E+01  0.26791795938E+01  0.54367072661E+02  0.39999973745E+02 0.  0.
        -12    1    3    3    0    0 -0.36502222208E+02  0.40237371507E+01 -0.26791795938E+01  0.36820927339E+02  0.00000000000E+00 0.  1.
         11    1    4    4    0    0  0.26498406340E+02 -0.91678155238E+01  0.48446822083E+01  0.28454970146E+02  0.51100000000E-03 0. -1.
        -11    1    4    4    0    0  0.15850230627E+02  0.17388396073E+01 -0.71832942946E+01  0.17488656075E+02  0.51100000000E-03 0.  1.
        -12    1    4    4    0    0 -0.58464147590E+01  0.34052387658E+01  0.50177916801E+01  0.84234464402E+01  0.00000000000E+00 0.  1.
</event>
<event>
 8    1  0.1238315E-006  0.9118800E+02  0.7816164E-02  0.1184000E+00
        -11   -1    0    0    0    0  0.00000000000E+00  0.00000000000E+00  0.45593999997E+02  0.45594000000E+02  0.51100000000E-03 0.  1.
         11   -1    0    0    0    0 -0.00000000000E+00 -0.00000000000E+00 -0.45593999997E+02  0.45594000000E+02  0.51100000000E-03 0. -1.
         23    2    1    2    0    0  0.00000000000E+00  0.00000000000E+00  0.00000000000E+00  0.91188000000E+02  0.91188000000E+02 0.  0.
    9900012    2    3    3    0    0 -0.74568318201E+01 -0.26620922816E+02  0.24320828719E+02  0.54367074130E+02  0.39999977094E+02 0.  0.
         12    1    3    3    0    0  0.74568318201E+01  0.26620922816E+02 -0.24320828719E+02  0.36820925870E+02  0.00000000000E+00 0. -1.
         11    1    4    4    0    0 -0.10053186810E+02 -0.12650561568E+02  0.72078300695E+01  0.17693391071E+02  0.51100000000E-03 0. -1.
        -11    1    4    4    0    0 -0.15988648489E+01 -0.20534716021E+02  0.19663857454E+02  0.28476274705E+02  0.51100000000E-03 0.  1.
         12    1    4    4    0    0  0.41952198384E+01  0.65643547731E+01 -0.25508588043E+01  0.81974083538E+01  0.00000000000E+00 0. -1.
</event>
<event>
 8    1  0.1238315E-006  0.9118800E+02  0.7816164E-02  0.1184000E+00
        -11   -1    0    0    0    0  0.00000000000E+00  0.00000000000E+00  0.45593999997E+02  0.45594000000E+02  0.51100000000E-03 0. -1.
         11   -1    0    0    0    0 -0.00000000000E+00 -0.00000000000E+00 -0.45593999997E+02  0.45594000000E+02  0.51100000000E-03 0.  1.
         23    2    1    2    0    0  0.00000000000E+00  0.00000000000E+00 -0.35527136788E-14  0.91188000000E+02  0.91188000000E+02 0.  0.
    9900012    2    3    3    0    0  0.29701794086E+02 -0.17867100584E+02  0.12423768167E+02  0.54367083788E+02  0.39999999112E+02 0.  0.
        -12    1    3    3    0    0 -0.29701794086E+02  0.17867100584E+02 -0.12423768167E+02  0.36820916212E+02  0.00000000000E+00 0.  1.
         11    1    4    4    0    0  0.10916297522E+02 -0.13414280790E+02  0.82708662032E+01  0.19170699223E+02  0.51100000000E-03 0. -1.
        -11    1    4    4    0    0  0.20998183888E+02 -0.61285251508E+01 -0.75717640370E+01  0.23147659882E+02  0.51100000000E-03 0.  1.
        -12    1    4    4    0    0 -0.22126873241E+01  0.16757053572E+01  0.11724666001E+02  0.12048724682E+02  0.00000000000E+00 0.  1.
</event>
<event>
 8    1  0.1238315E-006  0.9118800E+02  0.7816164E-02  0.1184000E+00
        -11   -1    0    0    0    0  0.00000000000E+00  0.00000000000E+00  0.45593999997E+02  0.45594000000E+02  0.51100000000E-03 0.  1.
         11   -1    0    0    0    0 -0.00000000000E+00 -0.00000000000E+00 -0.45593999997E+02  0.45594000000E+02  0.51100000000E-03 0. -1.
         23    2    1    2    0    0  0.88817841970E-15 -0.17763568394E-14  0.00000000000E+00  0.91188000000E+02  0.91188000000E+02 0.  0.
    9900012    2    3    3    0    0  0.50965249738E+01  0.88557678436E+01  0.35374860161E+02  0.54367083087E+02  0.39999997513E+02 0.  0.
         12    1    3    3    0    0 -0.50965249738E+01 -0.88557678436E+01 -0.35374860161E+02  0.36820916913E+02  0.00000000000E+00 0. -1.
         11    1    4    4    0    0  0.14743394544E+02 -0.77055389314E+01  0.14929025774E+02  0.22352154789E+02  0.51100000000E-03 0. -1.
        -11    1    4    4    0    0 -0.96288387226E+01  0.18695866808E+01  0.98506202716E+01  0.13901244890E+02  0.51100000000E-03 0.  1.
         12    1    4    4    0    0 -0.18030847400E-01  0.14691720094E+02  0.10595214115E+02  0.18113683408E+02  0.00000000000E+00 0. -1.
</event>
<event>
 8    1  0.1238315E-006  0.9118800E+02  0.7816164E-02  0.1184000E+00
        -11   -1    0    0    0    0  0.00000000000E+00  0.00000000000E+00  0.45593999997E+02  0.45594000000E+02  0.51100000000E-03 0. -1.
         11   -1    0    0    0    0 -0.00000000000E+00 -0.00000000000E+00 -0.45593999997E+02  0.45594000000E+02  0.51100000000E-03 0.  1.
         23    2    1    2    0    0 -0.22204460493E-15 -0.35527136788E-14  0.71054273576E-14  0.91188000000E+02  0.91188000000E+02 0.  0.
    9900012    2    3    3    0    0  0.11746871309E+01  0.11757188729E+02 -0.34873618425E+02  0.54367073358E+02  0.39999975335E+02 0.  0.
         12    1    3    3    0    0 -0.11746871309E+01 -0.11757188729E+02  0.34873618425E+02  0.36820926642E+02  0.00000000000E+00 0. -1.
         11    1    4    4    0    0 -0.11988560151E+01  0.17808644787E+01  0.33091615439E+01  0.39445258804E+01  0.51100000000E-03 0. -1.
        -11    1    4    4    0    0 -0.97614144188E+01  0.13178228498E+02 -0.32988018341E+02  0.36839656243E+02  0.51100000000E-03 0.  1.
         12    1    4    4    0    0  0.12134957565E+02 -0.32019042475E+01 -0.51947616285E+01  0.13582891234E+02  0.00000000000E+00 0. -1.
</event>
<event>
 8    1  0.1238315E-006  0.9118800E+02  0.7816164E-02  0.1184000E+00
        -11   -1    0    0    0    0  0.00000000000E+00  0.00000000000E+00  0.45593999997E+02  0.45594000000E+02  0.51100000000E-03 0.  1.
         11   -1    0    0    0    0 -0.00000000000E+00 -0.00000000000E+00 -0.45593999997E+02  0.45594000000E+02  0.51100000000E-03 0. -1.
         23    2    1    2    0    0  0.35527136788E-14  0.17763568394E-14  0.71054273576E-14  0.91188000000E+02  0.91188000000E+02 0.  0.
    9900012    2    3    3    0    0  0.97178066980E+01  0.72102125070E+01  0.34775788802E+02  0.54367103512E+02  0.40000044076E+02 0.  0.
         12    1    3    3    0    0 -0.97178066980E+01 -0.72102125070E+01 -0.34775788802E+02  0.36820896488E+02  0.00000000000E+00 0. -1.
         11    1    4    4    0    0 -0.95046127834E+01  0.24030893661E+01  0.39804618495E+01  0.10580953618E+02  0.51100000000E-03 0. -1.
        -11    1    4    4    0    0  0.14986573319E+02  0.14218070919E+02  0.18472206603E+02  0.27712331868E+02  0.51100000000E-03 0.  1.
         12    1    4    4    0    0  0.42358461620E+01 -0.94109477786E+01  0.12323120349E+02  0.16073818026E+02  0.00000000000E+00 0. -1.
</event>
<event>
 8    1  0.1238315E-006  0.9118800E+02  0.7816164E-02  0.1184000E+00
        -11   -1    0    0    0    0  0.00000000000E+00  0.00000000000E+00  0.45593999997E+02  0.45594000000E+02  0.51100000000E-03 0. -1.
         11   -1    0    0    0    0 -0.00000000000E+00 -0.00000000000E+00 -0.45593999997E+02  0.45594000000E+02  0.51100000000E-03 0.  1.
         23    2    1    2    0    0  0.00000000000E+00  0.00000000000E+00  0.00000000000E+00  0.91188000000E+02  0.91188000000E+02 0.  0.
    9900012    2    3    3    0    0  0.11557880051E+02  0.29550262789E+02  0.18680908925E+02  0.54367095878E+02  0.40000026672E+02 0.  0.
        -12    1    3    3    0    0 -0.11557880051E+02 -0.29550262789E+02 -0.18680908925E+02  0.36820904122E+02  0.00000000000E+00 0.  1.
         11    1    4    4    0    0 -0.25528711490E+01  0.23110994523E+02  0.88277934211E+01  0.24870970144E+02  0.51100000000E-03 0. -1.
        -11    1    4    4    0    0  0.83380269948E+01  0.70111314848E+01  0.17061857149E+02  0.20243162512E+02  0.51100000000E-03 0.  1.
        -12    1    4    4    0    0  0.57727242050E+01 -0.57186321900E+00 -0.72087416450E+01  0.92529632222E+01  0.00000000000E+00 0.  1.
</event>
<event>
 8    1  0.1238315E-006  0.9118800E+02  0.7816164E-02  0.1184000E+00
        -11   -1    0    0    0    0  0.00000000000E+00  0.00000000000E+00  0.45593999997E+02  0.45594000000E+02  0.51100000000E-03 0. -1.
         11   -1    0    0    0    0 -0.00000000000E+00 -0.00000000000E+00 -0.45593999997E+02  0.45594000000E+02  0.51100000000E-03 0.  1.
         23    2    1    2    0    0  0.00000000000E+00  0.17763568394E-14  0.00000000000E+00  0.91188000000E+02  0.91188000000E+02 0.  0.
    9900012    2    3    3    0    0 -0.80244244039E+01  0.10021909266E+02  0.34510144172E+02  0.54367080632E+02  0.39999991917E+02 0.  0.
        -12    1    3    3    0    0  0.80244244039E+01 -0.10021909266E+02 -0.34510144172E+02  0.36820919368E+02  0.00000000000E+00 0.  1.
         11    1    4    4    0    0  0.29106339926E+01  0.35023058052E+01  0.71724694485E+01  0.84960140326E+01  0.51100000000E-03 0. -1.
        -11    1    4    4    0    0  0.83050043494E+01  0.13478189372E+02  0.80818754475E+01  0.17775021716E+02  0.51100000000E-03 0.  1.
         12    1    4    4    0    0 -0.19240062746E+02 -0.69585859112E+01  0.19255799276E+02  0.28096044883E+02  0.00000000000E+00 0. -1.
</event>
<event>
 8    1  0.1238315E-006  0.9118800E+02  0.7816164E-02  0.1184000E+00
        -11   -1    0    0    0    0  0.00000000000E+00  0.00000000000E+00  0.45593999997E+02  0.45594000000E+02  0.51100000000E-03 0.  1.
         11   -1    0    0    0    0 -0.00000000000E+00 -0.00000000000E+00 -0.45593999997E+02  0.45594000000E+02  0.51100000000E-03 0. -1.
         23    2    1    2    0    0  0.71054273576E-14  0.17763568394E-14  0.00000000000E+00  0.91188000000E+02  0.91188000000E+02 0.  0.
    9900012    2    3    3    0    0 -0.33793423896E+02 -0.65329419085E+01  0.13080719902E+02  0.54367081193E+02  0.39999993196E+02 0.  0.
         12    1    3    3    0    0  0.33793423896E+02  0.65329419085E+01 -0.13080719902E+02  0.36820918807E+02  0.00000000000E+00 0. -1.
         11    1    4    4    0    0 -0.43901885387E+00  0.48671064628E+01  0.41369747205E+01  0.64028136763E+01  0.51100000000E-03 0. -1.
        -11    1    4    4    0    0 -0.17306396144E+02 -0.16062936725E+02 -0.72436124987E+01  0.24698161997E+02  0.51100000000E-03 0.  1.
        -12    1    4    4    0    0 -0.16048008898E+02  0.46628883537E+01  0.16187357680E+02  0.23266105520E+02  0.00000000000E+00 0.  1.
</event>
<event>
 8    1  0.1238315E-006  0.9118800E+02  0.7816164E-02  0.1184000E+00
        -11   -1    0    0    0    0  0.00000000000E+00  0.00000000000E+00  0.45593999997E+02  0.45594000000E+02  0.51100000000E-03 0. -1.
         11   -1    0    0    0    0 -0.00000000000E+00 -0.00000000000E+00 -0.45593999997E+02  0.45594000000E+02  0.51100000000E-03 0.  1.
         23    2    1    2    0    0 -0.17763568394E-14  0.35527136788E-14  0.00000000000E+00  0.91188000000E+02  0.91188000000E+02 0.  0.
    9900012    2    3    3    0    0 -0.51004903664E+01 -0.17000982002E+02 -0.32260416001E+02  0.54367043582E+02  0.39999907453E+02 0.  0.
         12    1    3    3    0    0  0.51004903664E+01  0.17000982002E+02  0.32260416001E+02  0.36820956418E+02  0.00000000000E+00 0. -1.
         11    1    4    4    0    0 -0.88271300846E+01 -0.16949412694E+01 -0.92132004036E+00  0.90354790861E+01  0.51100000000E-03 0. -1.
        -11    1    4    4    0    0  0.64746477158E+01  0.67419330402E+01 -0.15297227201E+02  0.17927071274E+02  0.51100000000E-03 0.  1.
        -12    1    4    4    0    0 -0.27480079976E+01 -0.22047973772E+02 -0.16041868760E+02  0.27404493222E+02  0.00000000000E+00 0.  1.
</event>
<event>
 8    1  0.1238315E-006  0.9118800E+02  0.7816164E-02  0.1184000E+00
        -11   -1    0    0    0    0  0.00000000000E+00  0.00000000000E+00  0.45593999997E+02  0.45594000000E+02  0.51100000000E-03 0. -1.
         11   -1    0    0    0    0 -0.00000000000E+00 -0.00000000000E+00 -0.45593999997E+02  0.45594000000E+02  0.51100000000E-03 0.  1.
         23    2    1    2    0    0  0.00000000000E+00  0.71054273576E-14  0.00000000000E+00  0.91188000000E+02  0.91188000000E+02 0.  0.
    9900012    2    3    3    0    0 -0.46535577950E+01 -0.32301421060E+02  0.17051190761E+02  0.54367075120E+02  0.39999979352E+02 0.  0.
        -12    1    3    3    0    0  0.46535577950E+01  0.32301421060E+02 -0.17051190761E+02  0.36820924880E+02  0.00000000000E+00 0.  1.
         11    1    4    4    0    0 -0.14770208775E+01 -0.22101094612E+01 -0.27335572529E+01  0.38129398132E+01  0.51100000000E-03 0. -1.
        -11    1    4    4    0    0 -0.15513916400E+02 -0.32973033652E+01  0.16941470197E+01  0.15950672272E+02  0.51100000000E-03 0.  1.
         12    1    4    4    0    0  0.12337379483E+02 -0.26794008233E+02  0.18090600994E+02  0.34603463035E+02  0.00000000000E+00 0. -1.
</event>
<event>
 8    1  0.1238315E-006  0.9118800E+02  0.7816164E-02  0.1184000E+00
        -11   -1    0    0    0    0  0.00000000000E+00  0.00000000000E+00  0.45593999997E+02  0.45594000000E+02  0.51100000000E-03 0. -1.
         11   -1    0    0    0    0 -0.00000000000E+00 -0.00000000000E+00 -0.45593999997E+02  0.45594000000E+02  0.51100000000E-03 0.  1.
         23    2    1    2    0    0  0.00000000000E+00  0.00000000000E+00  0.00000000000E+00  0.91188000000E+02  0.91188000000E+02 0.  0.
    9900012    2    3    3    0    0  0.21723653912E+02 -0.10651445926E+02  0.27756334229E+02  0.54367020526E+02  0.39999854893E+02 0.  0.
        -12    1    3    3    0    0 -0.21723653912E+02  0.10651445926E+02 -0.27756334229E+02  0.36820979474E+02  0.00000000000E+00 0.  1.
         11    1    4    4    0    0  0.13672579486E+02 -0.42743154450E+01  0.21298844602E+02  0.25668073242E+02  0.51100000000E-03 0. -1.
        -11    1    4    4    0    0  0.19531291822E+01  0.86801304295E+01  0.85257220966E+01  0.12322634272E+02  0.51100000000E-03 0.  1.
         12    1    4    4    0    0  0.60979452438E+01 -0.15057260910E+02 -0.20682324692E+01  0.16376313012E+02  0.00000000000E+00 0. -1.
</event>
<event>
 8    1  0.1238315E-006  0.9118800E+02  0.7816164E-02  0.1184000E+00
        -11   -1    0    0    0    0  0.00000000000E+00  0.00000000000E+00  0.45593999997E+02  0.45594000000E+02  0.51100000000E-03 0.  1.
         11   -1    0    0    0    0 -0.00000000000E+00 -0.00000000000E+00 -0.45593999997E+02  0.45594000000E+02  0.51100000000E-03 0. -1.
         23    2    1    2    0    0  0.00000000000E+00  0.00000000000E+00  0.00000000000E+00  0.91188000000E+02  0.91188000000E+02 0.  0.
    9900012    2    3    3    0    0 -0.20797415056E+02  0.26389176912E+02  0.15061858165E+02  0.54367072493E+02  0.39999973363E+02 0.  0.
         12    1    3    3    0    0  0.20797415056E+02 -0.26389176912E+02 -0.15061858165E+02  0.36820927507E+02  0.00000000000E+00 0. -1.
         11    1    4    4    0    0 -0.37479261386E+01  0.68560969196E+01 -0.59141658463E+01  0.97995088259E+01  0.51100000000E-03 0. -1.
        -11    1    4    4    0    0 -0.24133127507E+02  0.18206307175E+02  0.21861045141E+02  0.37306604766E+02  0.51100000000E-03 0.  1.
         12    1    4    4    0    0  0.70836385890E+01  0.13267728167E+01 -0.88502113043E+00  0.72609589014E+01  0.00000000000E+00 0. -1.
</event>
<event>
 8    1  0.1238315E-006  0.9118800E+02  0.7816164E-02  0.1184000E+00
        -11   -1    0    0    0    0  0.00000000000E+00  0.00000000000E+00  0.45593999997E+02  0.45594000000E+02  0.51100000000E-03 0.  1.
         11   -1    0    0    0    0 -0.00000000000E+00 -0.00000000000E+00 -0.45593999997E+02  0.45594000000E+02  0.51100000000E-03 0. -1.
         23    2    1    2    0    0  0.00000000000E+00  0.00000000000E+00  0.00000000000E+00  0.91188000000E+02  0.91188000000E+02 0.  0.
    9900012    2    3    3    0    0 -0.28590167872E+02  0.21248680924E+01  0.23105554124E+02  0.54367090251E+02  0.40000013846E+02 0.  0.
         12    1    3    3    0    0  0.28590167872E+02 -0.21248680924E+01 -0.23105554124E+02  0.36820909749E+02  0.00000000000E+00 0. -1.
         11    1    4    4    0    0 -0.29082136821E+02  0.15314849735E+02  0.10333353047E+02  0.34454223108E+02  0.51100000000E-03 0. -1.
        -11    1    4    4    0    0 -0.76478317622E-01 -0.24725270477E+01  0.76127945681E+01  0.80046161890E+01  0.51100000000E-03 0.  1.
         12    1    4    4    0    0  0.56844726704E+00 -0.10717454595E+02  0.51594065086E+01  0.11908250955E+02  0.00000000000E+00 0. -1.
</event>
<event>
 8    1  0.1238315E-006  0.9118800E+02  0.7816164E-02  0.1184000E+00
        -11   -1    0    0    0    0  0.00000000000E+00  0.00000000000E+00  0.45593999997E+02  0.45594000000E+02  0.51100000000E-03 0.  1.
         11   -1    0    0    0    0 -0.00000000000E+00 -0.00000000000E+00 -0.45593999997E+02  0.45594000000E+02  0.51100000000E-03 0. -1.
         23    2    1    2    0    0 -0.35527136788E-14  0.00000000000E+00  0.00000000000E+00  0.91188000000E+02  0.91188000000E+02 0.  0.
    9900012    2    3    3    0    0 -0.30438369292E+02  0.15347028032E+02 -0.13919557866E+02  0.54367086299E+02  0.40000004836E+02 0.  0.
         12    1    3    3    0    0  0.30438369292E+02 -0.15347028032E+02  0.13919557866E+02  0.36820913701E+02  0.00000000000E+00 0. -1.
         11    1    4    4    0    0  0.11725413511E+01 -0.15226554100E+01  0.31116397769E-01  0.19220565051E+01  0.51100000000E-03 0. -1.
        -11    1    4    4    0    0 -0.17257517099E+02  0.38753943544E+01  0.11026107317E+02  0.20842639484E+02  0.51100000000E-03 0.  1.
         12    1    4    4    0    0 -0.14353393544E+02  0.12994289088E+02 -0.24976781582E+02  0.31602390310E+02  0.00000000000E+00 0. -1.
</event>
<event>
 8    1  0.1238315E-006  0.9118800E+02  0.7816164E-02  0.1184000E+00
        -11   -1    0    0    0    0  0.00000000000E+00  0.00000000000E+00  0.45593999997E+02  0.45594000000E+02  0.51100000000E-03 0.  1.
         11   -1    0    0    0    0 -0.00000000000E+00 -0.00000000000E+00 -0.45593999997E+02  0.45594000000E+02  0.51100000000E-03 0. -1.
         23    2    1    2    0    0  0.35527136788E-14 -0.35527136788E-14  0.17763568394E-14  0.91188000000E+02  0.91188000000E+02 0.  0.
    9900012    2    3    3    0    0 -0.18599604018E+02  0.27802184548E+02  0.15390741797E+02  0.54367059377E+02  0.39999943462E+02 0.  0.
        -12    1    3    3    0    0  0.18599604018E+02 -0.27802184548E+02 -0.15390741797E+02  0.36820940623E+02  0.00000000000E+00 0.  1.
         11    1    4    4    0    0 -0.54829804677E+01  0.11317970395E+01 -0.96541934521E+00  0.56812035803E+01  0.51100000000E-03 0. -1.
        -11    1    4    4    0    0  0.60932301266E+01 -0.37988789709E+01 -0.30152544775E+01  0.77878555865E+01  0.51100000000E-03 0.  1.
        -12    1    4    4    0    0 -0.19209853677E+02  0.30469266480E+02  0.19371415620E+02  0.40898000210E+02  0.00000000000E+00 0.  1.
</event>
<event>
 8    1  0.1238315E-006  0.9118800E+02  0.7816164E-02  0.1184000E+00
        -11   -1    0    0    0    0  0.00000000000E+00  0.00000000000E+00  0.45593999997E+02  0.45594000000E+02  0.51100000000E-03 0.  1.
         11   -1    0    0    0    0 -0.00000000000E+00 -0.00000000000E+00 -0.45593999997E+02  0.45594000000E+02  0.51100000000E-03 0. -1.
         23    2    1    2    0    0  0.00000000000E+00  0.00000000000E+00  0.17763568394E-14  0.91188000000E+02  0.91188000000E+02 0.  0.
    9900012    2    3    3    0    0  0.20887581170E+02 -0.28698031423E+02  0.97934811799E+01  0.54367077574E+02  0.39999984945E+02 0.  0.
        -12    1    3    3    0    0 -0.20887581170E+02  0.28698031423E+02 -0.97934811799E+01  0.36820922426E+02  0.00000000000E+00 0.  1.
         11    1    4    4    0    0  0.14582812333E+02 -0.30470402473E+02 -0.53870544644E+01  0.34207078192E+02  0.51100000000E-03 0. -1.
        -11    1    4    4    0    0  0.96287985455E+01  0.71053135842E+00  0.12289204217E+02  0.15628280673E+02  0.51100000000E-03 0.  1.
         12    1    4    4    0    0 -0.33240297081E+01  0.10618396912E+01  0.28913314271E+01  0.45317187083E+01  0.00000000000E+00 0. -1.
</event>
<event>
 8    1  0.1238315E-006  0.9118800E+02  0.7816164E-02  0.1184000E+00
        -11   -1    0    0    0    0  0.00000000000E+00  0.00000000000E+00  0.45593999997E+02  0.45594000000E+02  0.51100000000E-03 0. -1.
         11   -1    0    0    0    0 -0.00000000000E+00 -0.00000000000E+00 -0.45593999997E+02  0.45594000000E+02  0.51100000000E-03 0.  1.
         23    2    1    2    0    0 -0.88817841970E-15 -0.71054273576E-14  0.00000000000E+00  0.91188000000E+02  0.91188000000E+02 0.  0.
    9900012    2    3    3    0    0 -0.64651791531E+01 -0.26997468523E+02  0.24189240078E+02  0.54367065958E+02  0.39999958465E+02 0.  0.
        -12    1    3    3    0    0  0.64651791531E+01  0.26997468523E+02 -0.24189240078E+02  0.36820934042E+02  0.00000000000E+00 0.  1.
         11    1    4    4    0    0 -0.71965758936E+01 -0.65713516776E+01  0.23703411898E+02  0.25628599324E+02  0.51100000000E-03 0. -1.
        -11    1    4    4    0    0  0.72363225856E+01  0.48022778914E-01 -0.28360418610E+00  0.72420371682E+01  0.51100000000E-03 0.  1.
        -12    1    4    4    0    0 -0.65049258451E+01 -0.20474139624E+02  0.76943236673E+00  0.21496429466E+02  0.00000000000E+00 0.  1.
</event>
<event>
 8    1  0.1238315E-006  0.9118800E+02  0.7816164E-02  0.1184000E+00
        -11   -1    0    0    0    0  0.00000000000E+00  0.00000000000E+00  0.45593999997E+02  0.45594000000E+02  0.51100000000E-03 0. -1.
         11   -1    0    0    0    0 -0.00000000000E+00 -0.00000000000E+00 -0.45593999997E+02  0.45594000000E+02  0.51100000000E-03 0.  1.
         23    2    1    2    0    0  0.00000000000E+00  0.00000000000E+00 -0.55511151231E-15  0.91188000000E+02  0.91188000000E+02 0.  0.
    9900012    2    3    3    0    0  0.14350617274E+02  0.33902870827E+02  0.65707039889E+00  0.54367128094E+02  0.40000100115E+02 0.  0.
         12    1    3    3    0    0 -0.14350617274E+02 -0.33902870827E+02 -0.65707039889E+00  0.36820871906E+02  0.00000000000E+00 0. -1.
         11    1    4    4    0    0  0.86909251567E+01  0.25121685599E+02  0.35318459759E+01  0.26816137001E+02  0.51100000000E-03 0. -1.
        -11    1    4    4    0    0  0.12777941468E+02  0.66638063905E+01 -0.97750501367E+01  0.17413607013E+02  0.51100000000E-03 0.  1.
         12    1    4    4    0    0 -0.71182493512E+01  0.21173788372E+01  0.69002745597E+01  0.10137384079E+02  0.00000000000E+00 0. -1.
</event>
<event>
 8    1  0.1238315E-006  0.9118800E+02  0.7816164E-02  0.1184000E+00
        -11   -1    0    0    0    0  0.00000000000E+00  0.00000000000E+00  0.45593999997E+02  0.45594000000E+02  0.51100000000E-03 0.  1.
         11   -1    0    0    0    0 -0.00000000000E+00 -0.00000000000E+00 -0.45593999997E+02  0.45594000000E+02  0.51100000000E-03 0. -1.
         23    2    1    2    0    0  0.00000000000E+00 -0.71054273576E-14 -0.17763568394E-14  0.91188000000E+02  0.91188000000E+02 0.  0.
    9900012    2    3    3    0    0 -0.17814073202E+02 -0.29107210139E+02 -0.13827836676E+02  0.54367082667E+02  0.39999996556E+02 0.  0.
        -12    1    3    3    0    0  0.17814073202E+02  0.29107210139E+02  0.13827836676E+02  0.36820917333E+02  0.00000000000E+00 0.  1.
         11    1    4    4    0    0 -0.86538876539E+01 -0.14842609552E+02 -0.14593915288E+02  0.22542741482E+02  0.51100000000E-03 0. -1.
        -11    1    4    4    0    0  0.87471881666E+01 -0.41205873110E+01  0.48883931443E+01  0.10834617132E+02  0.51100000000E-03 0.  1.
         12    1    4    4    0    0 -0.17907373714E+02 -0.10144013276E+02 -0.41223145318E+01  0.20989724052E+02  0.00000000000E+00 0. -1.
</event>
<event>
 8    1  0.1238315E-006  0.9118800E+02  0.7816164E-02  0.1184000E+00
        -11   -1    0    0    0    0  0.00000000000E+00  0.00000000000E+00  0.45593999997E+02  0.45594000000E+02  0.51100000000E-03 0.  1.
         11   -1    0    0    0    0 -0.00000000000E+00 -0.00000000000E+00 -0.45593999997E+02  0.45594000000E+02  0.51100000000E-03 0. -1.
         23    2    1    2    0    0  0.00000000000E+00 -0.88817841970E-15  0.00000000000E+00  0.91188000000E+02  0.91188000000E+02 0.  0.
    9900012    2    3    3    0    0  0.87145803513E+01  0.45868121329E+01 -0.35479529638E+02  0.54367085025E+02  0.40000001933E+02 0.  0.
        -12    1    3    3    0    0 -0.87145803513E+01 -0.45868121329E+01  0.35479529638E+02  0.36820914975E+02  0.00000000000E+00 0.  1.
         11    1    4    4    0    0  0.10932851367E+02 -0.10534422466E+02 -0.32072990473E+02  0.35484898391E+02  0.51100000000E-03 0. -1.
        -11    1    4    4    0    0  0.87463031428E+00  0.13398889777E+00  0.23664193690E+01  0.25264346622E+01  0.51100000000E-03 0.  1.
        -12    1    4    4    0    0 -0.30929013299E+01  0.14987245701E+02 -0.57729585338E+01  0.16355751972E+02  0.00000000000E+00 0.  1.
</event>
<event>
 8    1  0.1238315E-006  0.9118800E+02  0.7816164E-02  0.1184000E+00
        -11   -1    0    0    0    0  0.00000000000E+00  0.00000000000E+00  0.45593999997E+02  0.45594000000E+02  0.51100000000E-03 0.  1.
         11   -1    0    0    0    0 -0.00000000000E+00 -0.00000000000E+00 -0.45593999997E+02  0.45594000000E+02  0.51100000000E-03 0. -1.
         23    2    1    2    0    0  0.00000000000E+00 -0.71054273576E-14  0.00000000000E+00  0.91188000000E+02  0.91188000000E+02 0.  0.
    9900012    2    3    3    0    0  0.95168434226E+01 -0.35048409751E+02  0.60678436723E+01  0.54367081195E+02  0.39999993200E+02 0.  0.
        -12    1    3    3    0    0 -0.95168434226E+01  0.35048409751E+02 -0.60678436723E+01  0.36820918805E+02  0.00000000000E+00 0.  1.
         11    1    4    4    0    0  0.60448435539E+00 -0.35077671856E+02 -0.41837398695E+01  0.35331461104E+02  0.51100000000E-03 0. -1.
        -11    1    4    4    0    0 -0.27461598112E+01  0.17066041076E+01 -0.26666665387E+00  0.32442260486E+01  0.51100000000E-03 0.  1.
        -12    1    4    4    0    0  0.11658518878E+02 -0.16773420029E+01  0.10518250196E+02  0.15791394043E+02  0.00000000000E+00 0.  1.
</event>
<event>
 8    1  0.1238315E-006  0.9118800E+02  0.7816164E-02  0.1184000E+00
        -11   -1    0    0    0    0  0.00000000000E+00  0.00000000000E+00  0.45593999997E+02  0.45594000000E+02  0.51100000000E-03 0.  1.
         11   -1    0    0    0    0 -0.00000000000E+00 -0.00000000000E+00 -0.45593999997E+02  0.45594000000E+02  0.51100000000E-03 0. -1.
         23    2    1    2    0    0 -0.35527136788E-14  0.35527136788E-14  0.00000000000E+00  0.91188000000E+02  0.91188000000E+02 0.  0.
    9900012    2    3    3    0    0 -0.18886579975E+02  0.22429788257E+02 -0.22270674280E+02  0.54367065231E+02  0.39999956807E+02 0.  0.
        -12    1    3    3    0    0  0.18886579975E+02 -0.22429788257E+02  0.22270674280E+02  0.36820934769E+02  0.00000000000E+00 0.  1.
         11    1    4    4    0    0 -0.15727720167E+02  0.72061956886E+01 -0.19877486527E+02  0.26351563689E+02  0.51100000000E-03 0. -1.
        -11    1    4    4    0    0  0.98983959685E+01  0.75158021274E+01 -0.31926075634E+01  0.12831923772E+02  0.51100000000E-03 0.  1.
        -12    1    4    4    0    0 -0.13057255776E+02  0.77077904408E+01  0.79941981039E+00  0.15183577771E+02  0.00000000000E+00 0.  1.
</event>
<event>
 8    1  0.1238315E-006  0.9118800E+02  0.7816164E-02  0.1184000E+00
        -11   -1    0    0    0    0  0.00000000000E+00  0.00000000000E+00  0.45593999997E+02  0.45594000000E+02  0.51100000000E-03 0.  1.
         11   -1    0    0    0    0 -0.00000000000E+00 -0.00000000000E+00 -0.45593999997E+02  0.45594000000E+02  0.51100000000E-03 0. -1.
         23    2    1    2    0    0 -0.11102230246E-14  0.00000000000E+00  0.00000000000E+00  0.91188000000E+02  0.91188000000E+02 0.  0.
    9900012    2    3    3    0    0  0.12170257607E+01  0.10029521894E+02  0.35407707903E+02  0.54367105930E+02  0.40000049589E+02 0.  0.
         12    1    3    3    0    0 -0.12170257607E+01 -0.10029521894E+02 -0.35407707903E+02  0.36820894070E+02  0.00000000000E+00 0. -1.
         11    1    4    4    0    0  0.55909879017E+01  0.16648226665E+02  0.12209103360E+02  0.21388894359E+02  0.51100000000E-03 0. -1.
        -11    1    4    4    0    0  0.66181333642E+01  0.40383325663E+00  0.17555726133E+02  0.18766094182E+02  0.51100000000E-03 0.  1.
        -12    1    4    4    0    0 -0.10992095505E+02 -0.70225380271E+01  0.56428784106E+01  0.14212117390E+02  0.00000000000E+00 0.  1.
</event>
<event>
 8    1  0.1238315E-006  0.9118800E+02  0.7816164E-02  0.1184000E+00
        -11   -1    0    0    0    0  0.00000000000E+00  0.00000000000E+00  0.45593999997E+02  0.45594000000E+02  0.51100000000E-03 0.  1.
         11   -1    0    0    0    0 -0.00000000000E+00 -0.00000000000E+00 -0.45593999997E+02  0.45594000000E+02  0.51100000000E-03 0. -1.
         23    2    1    2    0    0 -0.35527136788E-14 -0.71054273576E-14  0.44408920985E-14  0.91188000000E+02  0.91188000000E+02 0.  0.
    9900012    2    3    3    0    0 -0.31690399747E+02 -0.18084167005E+02  0.49458081463E+01  0.54367088134E+02  0.40000009019E+02 0.  0.
         12    1    3    3    0    0  0.31690399747E+02  0.18084167005E+02 -0.49458081463E+01  0.36820911866E+02  0.00000000000E+00 0. -1.
         11    1    4    4    0    0 -0.97209932171E-01  0.70677368647E+00 -0.11644569670E+02  0.11666403982E+02  0.51100000000E-03 0. -1.
        -11    1    4    4    0    0 -0.21926412039E+02 -0.19842672843E+02  0.11543012726E+02  0.31744926422E+02  0.51100000000E-03 0.  1.
         12    1    4    4    0    0 -0.96667777764E+01  0.10517321516E+01  0.50473650898E+01  0.10955757730E+02  0.00000000000E+00 0. -1.
</event>
<event>
 8    1  0.1238315E-006  0.9118800E+02  0.7816164E-02  0.1184000E+00
        -11   -1    0    0    0    0  0.00000000000E+00  0.00000000000E+00  0.45593999997E+02  0.45594000000E+02  0.51100000000E-03 0. -1.
         11   -1    0    0    0    0 -0.00000000000E+00 -0.00000000000E+00 -0.45593999997E+02  0.45594000000E+02  0.51100000000E-03 0.  1.
         23    2    1    2    0    0  0.00000000000E+00  0.00000000000E+00  0.00000000000E+00  0.91188000000E+02  0.91188000000E+02 0.  0.
    9900012    2    3    3    0    0 -0.14460373948E+02  0.53896657551E+01 -0.33430944534E+02  0.54367096099E+02  0.40000027176E+02 0.  0.
         12    1    3    3    0    0  0.14460373948E+02 -0.53896657551E+01  0.33430944534E+02  0.36820903901E+02  0.00000000000E+00 0. -1.
         11    1    4    4    0    0 -0.11728542192E+02  0.75030232633E+01 -0.12182632283E+01  0.13976345216E+02  0.51100000000E-03 0. -1.
        -11    1    4    4    0    0  0.88335942200E+00  0.56968488753E+01 -0.31196435863E+02  0.31724628001E+02  0.51100000000E-03 0.  1.
        -12    1    4    4    0    0 -0.36151911778E+01 -0.78102063835E+01 -0.10162454428E+01  0.86661228819E+01  0.00000000000E+00 0.  1.
</event>
<event>
 8    1  0.1238315E-006  0.9118800E+02  0.7816164E-02  0.1184000E+00
        -11   -1    0    0    0    0  0.00000000000E+00  0.00000000000E+00  0.45593999997E+02  0.45594000000E+02  0.51100000000E-03 0. -1.
         11   -1    0    0    0    0 -0.00000000000E+00 -0.00000000000E+00 -0.45593999997E+02  0.45594000000E+02  0.51100000000E-03 0.  1.
         23    2    1    2    0    0  0.00000000000E+00  0.00000000000E+00  0.35527136788E-14  0.91188000000E+02  0.91188000000E+02 0.  0.
    9900012    2    3    3    0    0 -0.14910732408E+02  0.29427125043E+02 -0.16355187114E+02  0.54367112249E+02  0.40000063993E+02 0.  0.
         12    1    3    3    0    0  0.14910732408E+02 -0.29427125043E+02  0.16355187114E+02  0.36820887751E+02  0.00000000000E+00 0. -1.
         11    1    4    4    0    0 -0.17401557294E+02 -0.48876622535E+00  0.26790037994E+01  0.17613351478E+02  0.51100000000E-03 0. -1.
        -11    1    4    4    0    0  0.59346821077E+01  0.17259983880E+02 -0.12304029430E+02  0.22011738590E+02  0.51100000000E-03 0.  1.
         12    1    4    4    0    0 -0.34438572221E+01  0.12655907388E+02 -0.67301614833E+01  0.14742022181E+02  0.00000000000E+00 0. -1.
</event>
<event>
 8    1  0.1238315E-006  0.9118800E+02  0.7816164E-02  0.1184000E+00
        -11   -1    0    0    0    0  0.00000000000E+00  0.00000000000E+00  0.45593999997E+02  0.45594000000E+02  0.51100000000E-03 0.  1.
         11   -1    0    0    0    0 -0.00000000000E+00 -0.00000000000E+00 -0.45593999997E+02  0.45594000000E+02  0.51100000000E-03 0. -1.
         23    2    1    2    0    0 -0.71054273576E-14  0.00000000000E+00 -0.17763568394E-14  0.91188000000E+02  0.91188000000E+02 0.  0.
    9900012    2    3    3    0    0 -0.35354929067E+02  0.95192359930E+01  0.38977623081E+01  0.54367089986E+02  0.40000013241E+02 0.  0.
         12    1    3    3    0    0  0.35354929067E+02 -0.95192359930E+01 -0.38977623081E+01  0.36820910014E+02  0.00000000000E+00 0. -1.
         11    1    4    4    0    0 -0.92223982146E+01  0.44285219148E+01 -0.79647643512E+01  0.12965411934E+02  0.51100000000E-03 0. -1.
        -11    1    4    4    0    0 -0.32047745441E+02  0.31062705831E+00  0.91945016161E+01  0.33342065582E+02  0.51100000000E-03 0.  1.
         12    1    4    4    0    0  0.59152145884E+01  0.47800870199E+01  0.26680250432E+01  0.80596124705E+01  0.00000000000E+00 0. -1.
</event>
<event>
 8    1  0.1238315E-006  0.9118800E+02  0.7816164E-02  0.1184000E+00
        -11   -1    0    0    0    0  0.00000000000E+00  0.00000000000E+00  0.45593999997E+02  0.45594000000E+02  0.51100000000E-03 0. -1.
         11   -1    0    0    0    0 -0.00000000000E+00 -0.00000000000E+00 -0.45593999997E+02  0.45594000000E+02  0.51100000000E-03 0.  1.
         23    2    1    2    0    0  0.11102230246E-15  0.00000000000E+00  0.00000000000E+00  0.91188000000E+02  0.91188000000E+02 0.  0.
    9900012    2    3    3    0    0 -0.86300290587E+00 -0.42060781656E+01  0.36569732402E+02  0.54367065798E+02  0.39999958100E+02 0.  0.
        -12    1    3    3    0    0  0.86300290587E+00  0.42060781656E+01 -0.36569732402E+02  0.36820934202E+02  0.00000000000E+00 0.  1.
         11    1    4    4    0    0  0.42642706267E+01 -0.96327998037E+01  0.13323574193E+02  0.16985065958E+02  0.51100000000E-03 0. -1.
        -11    1    4    4    0    0  0.57375458168E+01  0.13808143484E+02  0.15864283123E+02  0.21800452696E+02  0.51100000000E-03 0.  1.
        -12    1    4    4    0    0 -0.10864819349E+02 -0.83814218455E+01  0.73818750857E+01  0.15581547145E+02  0.00000000000E+00 0.  1.
</event>
<event>
 8    1  0.1238315E-006  0.9118800E+02  0.7816164E-02  0.1184000E+00
        -11   -1    0    0    0    0  0.00000000000E+00  0.00000000000E+00  0.45593999997E+02  0.45594000000E+02  0.51100000000E-03 0.  1.
         11   -1    0    0    0    0 -0.00000000000E+00 -0.00000000000E+00 -0.45593999997E+02  0.45594000000E+02  0.51100000000E-03 0. -1.
         23    2    1    2    0    0 -0.17763568394E-14  0.88817841970E-15  0.00000000000E+00  0.91188000000E+02  0.91188000000E+02 0.  0.
    9900012    2    3    3    0    0  0.11786205294E+02 -0.53026199467E+01 -0.34478261582E+02  0.54367042174E+02  0.39999904243E+02 0.  0.
        -12    1    3    3    0    0 -0.11786205294E+02  0.53026199467E+01  0.34478261582E+02  0.36820957826E+02  0.00000000000E+00 0.  1.
         11    1    4    4    0    0  0.18033457199E+02 -0.17861535884E+02 -0.20070901855E+02  0.32358633226E+02  0.51100000000E-03 0. -1.
        -11    1    4    4    0    0 -0.15508758618E+01  0.28238822886E+01  0.82984665030E+00  0.33268863586E+01  0.51100000000E-03 0.  1.
         12    1    4    4    0    0 -0.46963760434E+01  0.97350336488E+01 -0.15237206377E+02  0.18681522590E+02  0.00000000000E+00 0. -1.
</event>
<event>
 8    1  0.1238315E-006  0.9118800E+02  0.7816164E-02  0.1184000E+00
        -11   -1    0    0    0    0  0.00000000000E+00  0.00000000000E+00  0.45593999997E+02  0.45594000000E+02  0.51100000000E-03 0. -1.
         11   -1    0    0    0    0 -0.00000000000E+00 -0.00000000000E+00 -0.45593999997E+02  0.45594000000E+02  0.51100000000E-03 0.  1.
         23    2    1    2    0    0 -0.17763568394E-14  0.35527136788E-14  0.35527136788E-14  0.91188000000E+02  0.91188000000E+02 0.  0.
    9900012    2    3    3    0    0  0.12245341518E+02 -0.20368215403E+02 -0.28124165656E+02  0.54367064631E+02  0.39999955440E+02 0.  0.
         12    1    3    3    0    0 -0.12245341518E+02  0.20368215403E+02  0.28124165656E+02  0.36820935369E+02  0.00000000000E+00 0. -1.
         11    1    4    4    0    0  0.14605959938E+02 -0.77711305643E+01 -0.14061824255E+02  0.21713116718E+02  0.51100000000E-03 0. -1.
        -11    1    4    4    0    0 -0.11491255836E+02  0.61440472934E+00 -0.31190950594E+00  0.11511895659E+02  0.51100000000E-03 0.  1.
        -12    1    4    4    0    0  0.91306374162E+01 -0.13211489568E+02 -0.13750431895E+02  0.21142052254E+02  0.00000000000E+00 0.  1.
</event>
<event>
 8    1  0.1238315E-006  0.9118800E+02  0.7816164E-02  0.1184000E+00
        -11   -1    0    0    0    0  0.00000000000E+00  0.00000000000E+00  0.45593999997E+02  0.45594000000E+02  0.51100000000E-03 0.  1.
         11   -1    0    0    0    0 -0.00000000000E+00 -0.00000000000E+00 -0.45593999997E+02  0.45594000000E+02  0.51100000000E-03 0. -1.
         23    2    1    2    0    0  0.00000000000E+00  0.44408920985E-15  0.00000000000E+00  0.91188000000E+02  0.91188000000E+02 0.  0.
    9900012    2    3    3    0    0  0.35242418502E+02  0.28174633808E+01  0.10286571630E+02  0.54367085866E+02  0.40000003848E+02 0.  0.
         12    1    3    3    0    0 -0.35242418502E+02 -0.28174633808E+01 -0.10286571630E+02  0.36820914134E+02  0.00000000000E+00 0. -1.
         11    1    4    4    0    0  0.18805369137E+02  0.90679554677E+01 -0.62452420361E+01  0.21791575737E+02  0.51100000000E-03 0. -1.
        -11    1    4    4    0    0  0.13525225916E+02  0.40580135745E+01  0.16690373071E+02  0.21862473871E+02  0.51100000000E-03 0.  1.
        -12    1    4    4    0    0  0.29118234499E+01 -0.10308505661E+02 -0.15855940505E+00  0.10713036258E+02  0.00000000000E+00 0.  1.
</event>
<event>
 8    1  0.1238315E-006  0.9118800E+02  0.7816164E-02  0.1184000E+00
        -11   -1    0    0    0    0  0.00000000000E+00  0.00000000000E+00  0.45593999997E+02  0.45594000000E+02  0.51100000000E-03 0. -1.
         11   -1    0    0    0    0 -0.00000000000E+00 -0.00000000000E+00 -0.45593999997E+02  0.45594000000E+02  0.51100000000E-03 0.  1.
         23    2    1    2    0    0 -0.35527136788E-14  0.35527136788E-14  0.17763568394E-14  0.91188000000E+02  0.91188000000E+02 0.  0.
    9900012    2    3    3    0    0 -0.27189431978E+02  0.21892759777E+02  0.11714119943E+02  0.54367099033E+02  0.40000033866E+02 0.  0.
        -12    1    3    3    0    0  0.27189431978E+02 -0.21892759777E+02 -0.11714119943E+02  0.36820900967E+02  0.00000000000E+00 0.  1.
         11    1    4    4    0    0 -0.20750188009E+01 -0.67399675805E+01  0.48824235304E+01  0.85773495790E+01  0.51100000000E-03 0. -1.
        -11    1    4    4    0    0 -0.18531866008E+02  0.61717374417E+01 -0.40981559517E+01  0.19957837640E+02  0.51100000000E-03 0.  1.
         12    1    4    4    0    0 -0.65825471690E+01  0.22460989916E+02  0.10929852365E+02  0.25831911814E+02  0.00000000000E+00 0. -1.
</event>
<event>
 8    1  0.1238315E-006  0.9118800E+02  0.7816164E-02  0.1184000E+00
        -11   -1    0    0    0    0  0.00000000000E+00  0.00000000000E+00  0.45593999997E+02  0.45594000000E+02  0.51100000000E-03 0. -1.
         11   -1    0    0    0    0 -0.00000000000E+00 -0.00000000000E+00 -0.45593999997E+02  0.45594000000E+02  0.51100000000E-03 0.  1.
         23    2    1    2    0    0  0.35527136788E-14  0.00000000000E+00  0.00000000000E+00  0.91188000000E+02  0.91188000000E+02 0.  0.
    9900012    2    3    3    0    0 -0.21826662341E+02  0.18930941487E+02 -0.22825352891E+02  0.54367075661E+02  0.39999980585E+02 0.  0.
         12    1    3    3    0    0  0.21826662341E+02 -0.18930941487E+02  0.22825352891E+02  0.36820924339E+02  0.00000000000E+00 0. -1.
         11    1    4    4    0    0 -0.11140779905E+02  0.13219126155E+02 -0.54859565934E+00  0.17296335758E+02  0.51100000000E-03 0. -1.
        -11    1    4    4    0    0  0.64220712493E+01 -0.58739151210E+01 -0.44170468419E+01  0.97599273074E+01  0.51100000000E-03 0.  1.
        -12    1    4    4    0    0 -0.17107953686E+02  0.11585730453E+02 -0.17859710390E+02  0.27310812596E+02  0.00000000000E+00 0.  1.
</event>
<event>
 8    1  0.1238315E-006  0.9118800E+02  0.7816164E-02  0.1184000E+00
        -11   -1    0    0    0    0  0.00000000000E+00  0.00000000000E+00  0.45593999997E+02  0.45594000000E+02  0.51100000000E-03 0.  1.
         11   -1    0    0    0    0 -0.00000000000E+00 -0.00000000000E+00 -0.45593999997E+02  0.45594000000E+02  0.51100000000E-03 0. -1.
         23    2    1    2    0    0  0.00000000000E+00  0.00000000000E+00  0.00000000000E+00  0.91188000000E+02  0.91188000000E+02 0.  0.
    9900012    2    3    3    0    0  0.33871159834E+02 -0.82154886415E+01  0.11875554729E+02  0.54367102099E+02  0.40000040855E+02 0.  0.
         12    1    3    3    0    0 -0.33871159834E+02  0.82154886415E+01 -0.11875554729E+02  0.36820897901E+02  0.00000000000E+00 0. -1.
         11    1    4    4    0    0 -0.26341090219E+01 -0.42983712424E+01 -0.69029882074E+01  0.85478519015E+01  0.51100000000E-03 0. -1.
        -11    1    4    4    0    0  0.10505763291E+02  0.52003211317E+01 -0.12037937661E+01  0.11784036740E+02  0.51100000000E-03 0.  1.
        -12    1    4    4    0    0  0.25999505565E+02 -0.91174385309E+01  0.19982336703E+02  0.34035213457E+02  0.00000000000E+00 0.  1.
</event>
<event>
 8    1  0.1238315E-006  0.9118800E+02  0.7816164E-02  0.1184000E+00
        -11   -1    0    0    0    0  0.00000000000E+00  0.00000000000E+00  0.45593999997E+02  0.45594000000E+02  0.51100000000E-03 0.  1.
         11   -1    0    0    0    0 -0.00000000000E+00 -0.00000000000E+00 -0.45593999997E+02  0.45594000000E+02  0.51100000000E-03 0. -1.
         23    2    1    2    0    0  0.00000000000E+00  0.00000000000E+00  0.00000000000E+00  0.91188000000E+02  0.91188000000E+02 0.  0.
    9900012    2    3    3    0    0  0.35856614318E+02  0.68194424163E+01  0.48556743620E+01  0.54367093456E+02  0.40000021152E+02 0.  0.
         12    1    3    3    0    0 -0.35856614318E+02 -0.68194424163E+01 -0.48556743620E+01  0.36820906544E+02  0.00000000000E+00 0. -1.
         11    1    4    4    0    0  0.31142213057E+02 -0.59673292549E+01  0.20099954457E+01  0.31772417826E+02  0.51100000000E-03 0.  1.
        -11    1    4    4    0    0  0.11490743734E+02  0.67126178641E+01  0.14170694058E+01  0.13382993541E+02  0.51100000000E-03 0. -1.
         12    1    4    4    0    0 -0.67763424735E+01  0.60741538071E+01  0.14286095106E+01  0.92116820899E+01  0.00000000000E+00 0. -1.
</event>
<event>
 8    1  0.1238315E-006  0.9118800E+02  0.7816164E-02  0.1184000E+00
        -11   -1    0    0    0    0  0.00000000000E+00  0.00000000000E+00  0.45593999997E+02  0.45594000000E+02  0.51100000000E-03 0. -1.
         11   -1    0    0    0    0 -0.00000000000E+00 -0.00000000000E+00 -0.45593999997E+02  0.45594000000E+02  0.51100000000E-03 0.  1.
         23    2    1    2    0    0 -0.35527136788E-14  0.00000000000E+00  0.00000000000E+00  0.91188000000E+02  0.91188000000E+02 0.  0.
    9900012    2    3    3    0    0  0.18185548441E+02 -0.30815701153E+01 -0.31868000368E+02  0.54367086188E+02  0.40000004582E+02 0.  0.
         12    1    3    3    0    0 -0.18185548441E+02  0.30815701153E+01  0.31868000368E+02  0.36820913812E+02  0.00000000000E+00 0. -1.
         11    1    4    4    0    0 -0.33308119233E+01  0.16717756779E+01 -0.45962443312E+01  0.59173139345E+01  0.51100000000E-03 0. -1.
        -11    1    4    4    0    0 -0.36244511192E+01 -0.10685173849E+02 -0.56884515973E+00  0.11297485170E+02  0.51100000000E-03 0.  1.
        -12    1    4    4    0    0  0.25140811484E+02  0.59318280558E+01 -0.26702910877E+02  0.37152287083E+02  0.00000000000E+00 0.  1.
</event>
<event>
 8    1  0.1238315E-006  0.9118800E+02  0.7816164E-02  0.1184000E+00
        -11   -1    0    0    0    0  0.00000000000E+00  0.00000000000E+00  0.45593999997E+02  0.45594000000E+02  0.51100000000E-03 0. -1.
         11   -1    0    0    0    0 -0.00000000000E+00 -0.00000000000E+00 -0.45593999997E+02  0.45594000000E+02  0.51100000000E-03 0.  1.
         23    2    1    2    0    0  0.00000000000E+00  0.88817841970E-15  0.71054273576E-14  0.91188000000E+02  0.91188000000E+02 0.  0.
    9900012    2    3    3    0    0 -0.23834614493E+02  0.71275153884E+01  0.27145704388E+02  0.54367087595E+02  0.40000007790E+02 0.  0.
        -12    1    3    3    0    0  0.23834614493E+02 -0.71275153884E+01 -0.27145704388E+02  0.36820912405E+02  0.00000000000E+00 0.  1.
         11    1    4    4    0    0 -0.19031678076E+02  0.57617311387E+01  0.37504634545E+02  0.42449969714E+02  0.51100000000E-03 0. -1.
        -11    1    4    4    0    0 -0.34959812583E+01  0.68438163191E+00 -0.96401126323E+01  0.10277258146E+02  0.51100000000E-03 0.  1.
         12    1    4    4    0    0 -0.13069551586E+01  0.68140261787E+00 -0.71881752524E+00  0.16398597345E+01  0.00000000000E+00 0. -1.
</event>
<event>
 8    1  0.1238315E-006  0.9118800E+02  0.7816164E-02  0.1184000E+00
        -11   -1    0    0    0    0  0.00000000000E+00  0.00000000000E+00  0.45593999997E+02  0.45594000000E+02  0.51100000000E-03 0. -1.
         11   -1    0    0    0    0 -0.00000000000E+00 -0.00000000000E+00 -0.45593999997E+02  0.45594000000E+02  0.51100000000E-03 0.  1.
         23    2    1    2    0    0  0.22204460493E-15  0.71054273576E-14  0.35527136788E-14  0.91188000000E+02  0.91188000000E+02 0.  0.
    9900012    2    3    3    0    0  0.66562355891E+00  0.32089912421E+02  0.18043673237E+02  0.54367086407E+02  0.40000005083E+02 0.  0.
         12    1    3    3    0    0 -0.66562355891E+00 -0.32089912421E+02 -0.18043673237E+02  0.36820913593E+02  0.00000000000E+00 0. -1.
         11    1    4    4    0    0  0.21618501532E+01  0.28188528288E-01 -0.49427686748E+01  0.53949377301E+01  0.51100000000E-03 0. -1.
        -11    1    4    4    0    0  0.13113603294E+02  0.17127991541E+02  0.70445498801E+01  0.22692738241E+02  0.51100000000E-03 0.  1.
         12    1    4    4    0    0 -0.14609829889E+02  0.14933732352E+02  0.15941892031E+02  0.26279410436E+02  0.00000000000E+00 0. -1.
</event>
<event>
 8    1  0.1238315E-006  0.9118800E+02  0.7816164E-02  0.1184000E+00
        -11   -1    0    0    0    0  0.00000000000E+00  0.00000000000E+00  0.45593999997E+02  0.45594000000E+02  0.51100000000E-03 0.  1.
         11   -1    0    0    0    0 -0.00000000000E+00 -0.00000000000E+00 -0.45593999997E+02  0.45594000000E+02  0.51100000000E-03 0. -1.
         23    2    1    2    0    0  0.71054273576E-14  0.44408920985E-15 -0.26645352591E-14  0.91188000000E+02  0.91188000000E+02 0.  0.
    9900012    2    3    3    0    0  0.36611984336E+02  0.26030183553E+01  0.29268659086E+01  0.54367086844E+02  0.40000006079E+02 0.  0.
         12    1    3    3    0    0 -0.36611984336E+02 -0.26030183553E+01 -0.29268659086E+01  0.36820913156E+02  0.00000000000E+00 0. -1.
         11    1    4    4    0    0 -0.35083539626E+00 -0.63054689493E+00 -0.70392894138E+01  0.70761762679E+01  0.51100000000E-03 0. -1.
        -11    1    4    4    0    0  0.11530240955E+02 -0.80852038193E+01  0.13155374150E+02  0.19271244032E+02  0.51100000000E-03 0.  1.
        -12    1    4    4    0    0  0.25432578777E+02  0.11318769070E+02 -0.31892188274E+01  0.28019666544E+02  0.00000000000E+00 0.  1.
</event>
<event>
 8    1  0.1238315E-006  0.9118800E+02  0.7816164E-02  0.1184000E+00
        -11   -1    0    0    0    0  0.00000000000E+00  0.00000000000E+00  0.45593999997E+02  0.45594000000E+02  0.51100000000E-03 0.  1.
         11   -1    0    0    0    0 -0.00000000000E+00 -0.00000000000E+00 -0.45593999997E+02  0.45594000000E+02  0.51100000000E-03 0. -1.
         23    2    1    2    0    0  0.00000000000E+00  0.00000000000E+00  0.00000000000E+00  0.91188000000E+02  0.91188000000E+02 0.  0.
    9900012    2    3    3    0    0 -0.94552687151E+01 -0.17212671991E+02 -0.31146457267E+02  0.54367082252E+02  0.39999995609E+02 0.  0.
        -12    1    3    3    0    0  0.94552687151E+01  0.17212671991E+02  0.31146457267E+02  0.36820917748E+02  0.00000000000E+00 0.  1.
         11    1    4    4    0    0  0.53052962687E+01 -0.70199926531E+01 -0.26856580439E+02  0.28261323014E+02  0.51100000000E-03 0. -1.
        -11    1    4    4    0    0  0.25628215962E+01 -0.11647211551E+01  0.39946999304E+01  0.48869476873E+01  0.51100000000E-03 0.  1.
        -12    1    4    4    0    0 -0.17323386580E+02 -0.90279581826E+01 -0.82845767582E+01  0.21218811550E+02  0.00000000000E+00 0.  1.
</event>
<event>
 8    1  0.1238315E-006  0.9118800E+02  0.7816164E-02  0.1184000E+00
        -11   -1    0    0    0    0  0.00000000000E+00  0.00000000000E+00  0.45593999997E+02  0.45594000000E+02  0.51100000000E-03 0. -1.
         11   -1    0    0    0    0 -0.00000000000E+00 -0.00000000000E+00 -0.45593999997E+02  0.45594000000E+02  0.51100000000E-03 0.  1.
         23    2    1    2    0    0  0.00000000000E+00 -0.17763568394E-14  0.00000000000E+00  0.91188000000E+02  0.91188000000E+02 0.  0.
    9900012    2    3    3    0    0  0.30348130232E+02  0.12126404178E+02  0.16961870845E+02  0.54367302703E+02  0.40000498170E+02 0.  0.
        -12    1    3    3    0    0 -0.30348130232E+02 -0.12126404178E+02 -0.16961870845E+02  0.36820697297E+02  0.00000000000E+00 0.  1.
         11    1    4    4    0    0  0.28454398652E+02  0.15936971011E+02  0.19260388221E+02  0.37876145558E+02  0.51100000000E-03 0. -1.
        -11    1    4    4    0    0  0.23107064371E+01 -0.79695386704E+01  0.37767927704E+01  0.91168566266E+01  0.51100000000E-03 0.  1.
        -12    1    4    4    0    0 -0.41697485759E+00  0.41589718369E+01 -0.60753101457E+01  0.73743005186E+01  0.00000000000E+00 0.  1.
</event>
<event>
 8    1  0.1238315E-006  0.9118800E+02  0.7816164E-02  0.1184000E+00
        -11   -1    0    0    0    0  0.00000000000E+00  0.00000000000E+00  0.45593999997E+02  0.45594000000E+02  0.51100000000E-03 0. -1.
         11   -1    0    0    0    0 -0.00000000000E+00 -0.00000000000E+00 -0.45593999997E+02  0.45594000000E+02  0.51100000000E-03 0.  1.
         23    2    1    2    0    0  0.17763568394E-14 -0.35527136788E-14  0.71054273576E-14  0.91188000000E+02  0.91188000000E+02 0.  0.
    9900012    2    3    3    0    0 -0.92670807904E+01  0.18640356283E+02 -0.30371709393E+02  0.54367049439E+02  0.39999920807E+02 0.  0.
         12    1    3    3    0    0  0.92670807904E+01 -0.18640356283E+02  0.30371709393E+02  0.36820950561E+02  0.00000000000E+00 0. -1.
         11    1    4    4    0    0 -0.43136669534E+01 -0.18721740000E+01 -0.66115005956E+01  0.81132421668E+01  0.51100000000E-03 0. -1.
        -11    1    4    4    0    0 -0.47529849702E+01  0.18172618950E+01 -0.26828988138E+02  0.27307286788E+02  0.51100000000E-03 0.  1.
         12    1    4    4    0    0 -0.20042886676E+00  0.18695268388E+02  0.30687793410E+01  0.18946520485E+02  0.00000000000E+00 0. -1.
</event>
<event>
 8    1  0.1238315E-006  0.9118800E+02  0.7816164E-02  0.1184000E+00
        -11   -1    0    0    0    0  0.00000000000E+00  0.00000000000E+00  0.45593999997E+02  0.45594000000E+02  0.51100000000E-03 0.  1.
         11   -1    0    0    0    0 -0.00000000000E+00 -0.00000000000E+00 -0.45593999997E+02  0.45594000000E+02  0.51100000000E-03 0. -1.
         23    2    1    2    0    0 -0.44408920985E-15  0.00000000000E+00 -0.71054273576E-14  0.91188000000E+02  0.91188000000E+02 0.  0.
    9900012    2    3    3    0    0 -0.31487525236E+01  0.13441567936E+02  0.34134859856E+02  0.54367094954E+02  0.40000024566E+02 0.  0.
         12    1    3    3    0    0  0.31487525236E+01 -0.13441567936E+02 -0.34134859856E+02  0.36820905046E+02  0.00000000000E+00 0. -1.
         11    1    4    4    0    0  0.34228166819E+01 -0.16682608737E+01  0.22951039117E+02  0.23264758008E+02  0.51100000000E-03 0.  1.
        -11    1    4    4    0    0  0.29741742150E+01  0.90503407962E+01  0.16152217323E+02  0.18752293340E+02  0.51100000000E-03 0. -1.
         12    1    4    4    0    0 -0.95457434205E+01  0.60594880134E+01 -0.49683965845E+01  0.12350043605E+02  0.00000000000E+00 0. -1.
</event>
<event>
 8    1  0.1238315E-006  0.9118800E+02  0.7816164E-02  0.1184000E+00
        -11   -1    0    0    0    0  0.00000000000E+00  0.00000000000E+00  0.45593999997E+02  0.45594000000E+02  0.51100000000E-03 0.  1.
         11   -1    0    0    0    0 -0.00000000000E+00 -0.00000000000E+00 -0.45593999997E+02  0.45594000000E+02  0.51100000000E-03 0. -1.
         23    2    1    2    0    0  0.00000000000E+00  0.71054273576E-14 -0.35527136788E-14  0.91188000000E+02  0.91188000000E+02 0.  0.
    9900012    2    3    3    0    0  0.96051826385E+01 -0.18338179146E+02  0.30450493049E+02  0.54367070153E+02  0.39999968027E+02 0.  0.
         12    1    3    3    0    0 -0.96051826385E+01  0.18338179146E+02 -0.30450493049E+02  0.36820929847E+02  0.00000000000E+00 0. -1.
         11    1    4    4    0    0  0.13292533952E+02 -0.38398523212E+01  0.12938929556E+01  0.13896405433E+02  0.51100000000E-03 0. -1.
        -11    1    4    4    0    0 -0.30914291954E+01  0.50645546727E+01  0.75916570987E+00  0.59818877739E+01  0.51100000000E-03 0.  1.
        -12    1    4    4    0    0 -0.59592211809E+00 -0.19562881498E+02  0.28397434383E+02  0.34488776946E+02  0.00000000000E+00 0.  1.
</event>
<event>
 8    1  0.1238315E-006  0.9118800E+02  0.7816164E-02  0.1184000E+00
        -11   -1    0    0    0    0  0.00000000000E+00  0.00000000000E+00  0.45593999997E+02  0.45594000000E+02  0.51100000000E-03 0. -1.
         11   -1    0    0    0    0 -0.00000000000E+00 -0.00000000000E+00 -0.45593999997E+02  0.45594000000E+02  0.51100000000E-03 0.  1.
         23    2    1    2    0    0 -0.71054273576E-14  0.00000000000E+00 -0.35527136788E-14  0.91188000000E+02  0.91188000000E+02 0.  0.
    9900012    2    3    3    0    0 -0.28400231249E+02  0.17275674224E+02 -0.15835329361E+02  0.54367085959E+02  0.40000004060E+02 0.  0.
        -12    1    3    3    0    0  0.28400231249E+02 -0.17275674224E+02  0.15835329361E+02  0.36820914041E+02  0.00000000000E+00 0.  1.
         11    1    4    4    0    0 -0.67670438806E+01 -0.14586397869E-01  0.85623851896E+00  0.68210146098E+01  0.51100000000E-03 0. -1.
        -11    1    4    4    0    0  0.17415537013E+01 -0.86169918949E+01 -0.72568564080E+01  0.11399452785E+02  0.51100000000E-03 0.  1.
         12    1    4    4    0    0 -0.23374741069E+02  0.25907252517E+02 -0.94347114721E+01  0.36146618564E+02  0.00000000000E+00 0. -1.
</event>
<event>
 8    1  0.1238315E-006  0.9118800E+02  0.7816164E-02  0.1184000E+00
        -11   -1    0    0    0    0  0.00000000000E+00  0.00000000000E+00  0.45593999997E+02  0.45594000000E+02  0.51100000000E-03 0. -1.
         11   -1    0    0    0    0 -0.00000000000E+00 -0.00000000000E+00 -0.45593999997E+02  0.45594000000E+02  0.51100000000E-03 0.  1.
         23    2    1    2    0    0  0.00000000000E+00  0.00000000000E+00 -0.17763568394E-14  0.91188000000E+02  0.91188000000E+02 0.  0.
    9900012    2    3    3    0    0  0.27237590520E+02  0.20010342889E+02 -0.14610926632E+02  0.54367091036E+02  0.40000015636E+02 0.  0.
        -12    1    3    3    0    0 -0.27237590520E+02 -0.20010342889E+02  0.14610926632E+02  0.36820908964E+02  0.00000000000E+00 0.  1.
         11    1    4    4    0    0  0.68150689082E+01  0.14705525894E+02 -0.82198884986E+01  0.18173173174E+02  0.51100000000E-03 0. -1.
        -11    1    4    4    0    0  0.34655144269E+01  0.68632839472E+01 -0.15191097340E+02  0.17025977077E+02  0.51100000000E-03 0.  1.
         12    1    4    4    0    0  0.16957007185E+02 -0.15584669519E+01  0.88000592062E+01  0.19167940785E+02  0.00000000000E+00 0. -1.
</event>
<event>
 8    1  0.1238315E-006  0.9118800E+02  0.7816164E-02  0.1184000E+00
        -11   -1    0    0    0    0  0.00000000000E+00  0.00000000000E+00  0.45593999997E+02  0.45594000000E+02  0.51100000000E-03 0. -1.
         11   -1    0    0    0    0 -0.00000000000E+00 -0.00000000000E+00 -0.45593999997E+02  0.45594000000E+02  0.51100000000E-03 0.  1.
         23    2    1    2    0    0  0.00000000000E+00 -0.17763568394E-14  0.00000000000E+00  0.91188000000E+02  0.91188000000E+02 0.  0.
    9900012    2    3    3    0    0  0.47936983305E+01  0.91793459921E+01  0.35334680729E+02  0.54367087481E+02  0.40000007530E+02 0.  0.
        -12    1    3    3    0    0 -0.47936983305E+01 -0.91793459921E+01 -0.35334680729E+02  0.36820912519E+02  0.00000000000E+00 0.  1.
         11    1    4    4    0    0  0.11586681791E+02  0.79624703058E+01  0.96836292004E+00  0.14092191289E+02  0.51100000000E-03 0. -1.
        -11    1    4    4    0    0  0.35129045739E+01 -0.37435274979E+01  0.13133949043E+01  0.52990096347E+01  0.51100000000E-03 0.  1.
        -12    1    4    4    0    0 -0.10305888035E+02  0.49604031842E+01  0.33052922905E+02  0.34975886557E+02  0.00000000000E+00 0.  1.
</event>
<event>
 8    1  0.1238315E-006  0.9118800E+02  0.7816164E-02  0.1184000E+00
        -11   -1    0    0    0    0  0.00000000000E+00  0.00000000000E+00  0.45593999997E+02  0.45594000000E+02  0.51100000000E-03 0. -1.
         11   -1    0    0    0    0 -0.00000000000E+00 -0.00000000000E+00 -0.45593999997E+02  0.45594000000E+02  0.51100000000E-03 0.  1.
         23    2    1    2    0    0  0.35527136788E-14 -0.17763568394E-14  0.71054273576E-14  0.91188000000E+02  0.91188000000E+02 0.  0.
    9900012    2    3    3    0    0 -0.16390472683E+02 -0.69816858572E+01 -0.32224043856E+02  0.54367074772E+02  0.39999978558E+02 0.  0.
         12    1    3    3    0    0  0.16390472683E+02  0.69816858572E+01  0.32224043856E+02  0.36820925228E+02  0.00000000000E+00 0. -1.
         11    1    4    4    0    0 -0.65325035610E+00 -0.47168446554E+01 -0.19711539655E+01  0.51537178568E+01  0.51100000000E-03 0.  1.
        -11    1    4    4    0    0 -0.63763302896E+00 -0.17366876018E+02 -0.11988660545E+02  0.21112625143E+02  0.51100000000E-03 0. -1.
         12    1    4    4    0    0 -0.15099589298E+02  0.15102034816E+02 -0.18264229346E+02  0.28100731772E+02  0.00000000000E+00 0. -1.
</event>
<event>
 8    1  0.1238315E-006  0.9118800E+02  0.7816164E-02  0.1184000E+00
        -11   -1    0    0    0    0  0.00000000000E+00  0.00000000000E+00  0.45593999997E+02  0.45594000000E+02  0.51100000000E-03 0.  1.
         11   -1    0    0    0    0 -0.00000000000E+00 -0.00000000000E+00 -0.45593999997E+02  0.45594000000E+02  0.51100000000E-03 0. -1.
         23    2    1    2    0    0  0.00000000000E+00  0.00000000000E+00  0.35527136788E-14  0.91188000000E+02  0.91188000000E+02 0.  0.
    9900012    2    3    3    0    0 -0.19342203218E+02  0.23224567074E+02 -0.21030422650E+02  0.54367081788E+02  0.39999994553E+02 0.  0.
        -12    1    3    3    0    0  0.19342203218E+02 -0.23224567074E+02  0.21030422650E+02  0.36820918212E+02  0.00000000000E+00 0.  1.
         11    1    4    4    0    0 -0.93172384169E+00 -0.85757876581E+01 -0.63972836673E+01  0.10739528940E+02  0.51100000000E-03 0. -1.
        -11    1    4    4    0    0 -0.14528516820E+02  0.24010345241E+02 -0.18001393975E+01  0.28121432782E+02  0.51100000000E-03 0.  1.
        -12    1    4    4    0    0 -0.38819625564E+01  0.77900094912E+01 -0.12832999585E+02  0.15506120067E+02  0.00000000000E+00 0.  1.
</event>
<event>
 8    1  0.1238315E-006  0.9118800E+02  0.7816164E-02  0.1184000E+00
        -11   -1    0    0    0    0  0.00000000000E+00  0.00000000000E+00  0.45593999997E+02  0.45594000000E+02  0.51100000000E-03 0.  1.
         11   -1    0    0    0    0 -0.00000000000E+00 -0.00000000000E+00 -0.45593999997E+02  0.45594000000E+02  0.51100000000E-03 0. -1.
         23    2    1    2    0    0  0.00000000000E+00  0.00000000000E+00  0.00000000000E+00  0.91188000000E+02  0.91188000000E+02 0.  0.
    9900012    2    3    3    0    0 -0.11949525433E+02  0.33841887988E+02  0.82289253183E+01  0.54367085392E+02  0.40000002768E+02 0.  0.
         12    1    3    3    0    0  0.11949525433E+02 -0.33841887988E+02 -0.82289253183E+01  0.36820914608E+02  0.00000000000E+00 0. -1.
         11    1    4    4    0    0 -0.48364522676E+01  0.24550940921E+02  0.15388025669E+02  0.29375692416E+02  0.51100000000E-03 0.  1.
        -11    1    4    4    0    0 -0.55705297233E+01  0.14863032572E+02 -0.10803901063E+00  0.15873002593E+02  0.51100000000E-03 0. -1.
         12    1    4    4    0    0 -0.15425434421E+01 -0.55720855054E+01 -0.70510613402E+01  0.91183903828E+01  0.00000000000E+00 0. -1.
</event>
<event>
 8    1  0.1238315E-006  0.9118800E+02  0.7816164E-02  0.1184000E+00
        -11   -1    0    0    0    0  0.00000000000E+00  0.00000000000E+00  0.45593999997E+02  0.45594000000E+02  0.51100000000E-03 0.  1.
         11   -1    0    0    0    0 -0.00000000000E+00 -0.00000000000E+00 -0.45593999997E+02  0.45594000000E+02  0.51100000000E-03 0. -1.
         23    2    1    2    0    0 -0.71054273576E-14  0.00000000000E+00  0.44408920985E-15  0.91188000000E+02  0.91188000000E+02 0.  0.
    9900012    2    3    3    0    0 -0.36289724442E+02  0.54193795064E+01 -0.30769043483E+01  0.54367066895E+02  0.39999960601E+02 0.  0.
         12    1    3    3    0    0  0.36289724442E+02 -0.54193795064E+01  0.30769043483E+01  0.36820933105E+02  0.00000000000E+00 0. -1.
         11    1    4    4    0    0 -0.56741159065E+01 -0.42824875480E+01 -0.92403887827E+01  0.11658476574E+02  0.51100000000E-03 0. -1.
        -11    1    4    4    0    0 -0.22995647984E+02 -0.55918983612E+01  0.91304108901E+01  0.25365992130E+02  0.51100000000E-03 0.  1.
         12    1    4    4    0    0 -0.76199605523E+01  0.15293765416E+02 -0.29669264558E+01  0.17342598191E+02  0.00000000000E+00 0. -1.
</event>
<event>
 8    1  0.1238315E-006  0.9118800E+02  0.7816164E-02  0.1184000E+00
        -11   -1    0    0    0    0  0.00000000000E+00  0.00000000000E+00  0.45593999997E+02  0.45594000000E+02  0.51100000000E-03 0. -1.
         11   -1    0    0    0    0 -0.00000000000E+00 -0.00000000000E+00 -0.45593999997E+02  0.45594000000E+02  0.51100000000E-03 0.  1.
         23    2    1    2    0    0  0.00000000000E+00  0.00000000000E+00 -0.35527136788E-14  0.91188000000E+02  0.91188000000E+02 0.  0.
    9900012    2    3    3    0    0 -0.21861191174E+02 -0.25419101043E+02  0.15222870475E+02  0.54367106979E+02  0.40000051979E+02 0.  0.
        -12    1    3    3    0    0  0.21861191174E+02  0.25419101043E+02 -0.15222870475E+02  0.36820893021E+02  0.00000000000E+00 0.  1.
         11    1    4    4    0    0  0.18407144399E+01 -0.34618264231E+01  0.79070873814E+01  0.88257862511E+01  0.51100000000E-03 0. -1.
        -11    1    4    4    0    0 -0.84078771502E+01  0.37372111676E+01 -0.77760992282E+01  0.12046861207E+02  0.51100000000E-03 0.  1.
        -12    1    4    4    0    0 -0.15294028464E+02 -0.25694485788E+02  0.15091882321E+02  0.33494459520E+02  0.00000000000E+00 0.  1.
</event>
<event>
 8    1  0.1238315E-006  0.9118800E+02  0.7816164E-02  0.1184000E+00
        -11   -1    0    0    0    0  0.00000000000E+00  0.00000000000E+00  0.45593999997E+02  0.45594000000E+02  0.51100000000E-03 0. -1.
         11   -1    0    0    0    0 -0.00000000000E+00 -0.00000000000E+00 -0.45593999997E+02  0.45594000000E+02  0.51100000000E-03 0.  1.
         23    2    1    2    0    0  0.39968028887E-14  0.00000000000E+00  0.00000000000E+00  0.91188000000E+02  0.91188000000E+02 0.  0.
    9900012    2    3    3    0    0 -0.12395866862E+01 -0.10455699275E+02 -0.35283461323E+02  0.54367070280E+02  0.39999968318E+02 0.  0.
         12    1    3    3    0    0  0.12395866862E+01  0.10455699275E+02  0.35283461323E+02  0.36820929720E+02  0.00000000000E+00 0. -1.
         11    1    4    4    0    0  0.51394255989E+01  0.29538177921E+01 -0.51533125519E+01  0.78546397470E+01  0.51100000000E-03 0. -1.
        -11    1    4    4    0    0 -0.17579685734E+02 -0.12983015245E+02 -0.11310060936E+02  0.24607346748E+02  0.51100000000E-03 0.  1.
        -12    1    4    4    0    0  0.11200673448E+02 -0.42650182226E+00 -0.18820087835E+02  0.21905083785E+02  0.00000000000E+00 0.  1.
</event>
<event>
 8    1  0.1238315E-006  0.9118800E+02  0.7816164E-02  0.1184000E+00
        -11   -1    0    0    0    0  0.00000000000E+00  0.00000000000E+00  0.45593999997E+02  0.45594000000E+02  0.51100000000E-03 0. -1.
         11   -1    0    0    0    0 -0.00000000000E+00 -0.00000000000E+00 -0.45593999997E+02  0.45594000000E+02  0.51100000000E-03 0.  1.
         23    2    1    2    0    0 -0.26645352591E-14  0.00000000000E+00  0.00000000000E+00  0.91188000000E+02  0.91188000000E+02 0.  0.
    9900012    2    3    3    0    0  0.70929179683E+01  0.30756457046E+02  0.18960836772E+02  0.54367048540E+02  0.39999918756E+02 0.  0.
        -12    1    3    3    0    0 -0.70929179683E+01 -0.30756457046E+02 -0.18960836772E+02  0.36820951460E+02  0.00000000000E+00 0.  1.
         11    1    4    4    0    0  0.21200804834E+02  0.19377127442E+02  0.87620750636E+00  0.28735255930E+02  0.51100000000E-03 0. -1.
        -11    1    4    4    0    0 -0.26237889445E+01  0.21157021734E+01  0.27336961366E+01  0.43397648485E+01  0.51100000000E-03 0.  1.
         12    1    4    4    0    0 -0.11484097921E+02  0.92636274306E+01  0.15350933129E+02  0.21292027761E+02  0.00000000000E+00 0. -1.
</event>
<event>
 8    1  0.1238315E-006  0.9118800E+02  0.7816164E-02  0.1184000E+00
        -11   -1    0    0    0    0  0.00000000000E+00  0.00000000000E+00  0.45593999997E+02  0.45594000000E+02  0.51100000000E-03 0.  1.
         11   -1    0    0    0    0 -0.00000000000E+00 -0.00000000000E+00 -0.45593999997E+02  0.45594000000E+02  0.51100000000E-03 0. -1.
         23    2    1    2    0    0  0.00000000000E+00  0.00000000000E+00  0.00000000000E+00  0.91188000000E+02  0.91188000000E+02 0.  0.
    9900012    2    3    3    0    0  0.32164976974E+02 -0.14175783485E+02  0.10965458204E+02  0.54367084004E+02  0.39999999604E+02 0.  0.
         12    1    3    3    0    0 -0.32164976974E+02  0.14175783485E+02 -0.10965458204E+02  0.36820915996E+02  0.00000000000E+00 0. -1.
         11    1    4    4    0    0 -0.57466783852E+01 -0.51617503372E+01 -0.31238557659E+01  0.83322538436E+01  0.51100000000E-03 0. -1.
        -11    1    4    4    0    0  0.24637996631E+02  0.42870497506E+01  0.88337195316E+01  0.26522523910E+02  0.51100000000E-03 0.  1.
        -12    1    4    4    0    0  0.13273658728E+02 -0.13301082899E+02  0.52555944387E+01  0.19512306250E+02  0.00000000000E+00 0.  1.
</event>
<event>
 8    1  0.1238315E-006  0.9118800E+02  0.7816164E-02  0.1184000E+00
        -11   -1    0    0    0    0  0.00000000000E+00  0.00000000000E+00  0.45593999997E+02  0.45594000000E+02  0.51100000000E-03 0.  1.
         11   -1    0    0    0    0 -0.00000000000E+00 -0.00000000000E+00 -0.45593999997E+02  0.45594000000E+02  0.51100000000E-03 0. -1.
         23    2    1    2    0    0  0.00000000000E+00  0.00000000000E+00 -0.17763568394E-14  0.91188000000E+02  0.91188000000E+02 0.  0.
    9900012    2    3    3    0    0  0.72399377271E+01  0.35449418175E+02 -0.68338512469E+01  0.54367089228E+02  0.40000011513E+02 0.  0.
         12    1    3    3    0    0 -0.72399377271E+01 -0.35449418175E+02  0.68338512469E+01  0.36820910772E+02  0.00000000000E+00 0. -1.
         11    1    4    4    0    0 -0.94829967897E+01  0.90611067242E+01 -0.68472928803E+01  0.14795820465E+02  0.51100000000E-03 0. -1.
        -11    1    4    4    0    0  0.12608927767E+02  0.48007498790E+01  0.85750232451E+01  0.15986346761E+02  0.51100000000E-03 0.  1.
        -12    1    4    4    0    0  0.41140067494E+01  0.21587561572E+02 -0.85615816118E+01  0.23584922002E+02  0.00000000000E+00 0.  1.
</event>
<event>
 8    1  0.1238315E-006  0.9118800E+02  0.7816164E-02  0.1184000E+00
        -11   -1    0    0    0    0  0.00000000000E+00  0.00000000000E+00  0.45593999997E+02  0.45594000000E+02  0.51100000000E-03 0. -1.
         11   -1    0    0    0    0 -0.00000000000E+00 -0.00000000000E+00 -0.45593999997E+02  0.45594000000E+02  0.51100000000E-03 0.  1.
         23    2    1    2    0    0  0.00000000000E+00  0.35527136788E-14  0.00000000000E+00  0.91188000000E+02  0.91188000000E+02 0.  0.
    9900012    2    3    3    0    0  0.74985526112E+01  0.22037637041E+02 -0.28528837410E+02  0.54367077937E+02  0.39999985772E+02 0.  0.
         12    1    3    3    0    0 -0.74985526112E+01 -0.22037637041E+02  0.28528837410E+02  0.36820922063E+02  0.00000000000E+00 0. -1.
         11    1    4    4    0    0 -0.18805575527E+01  0.52899112981E+01  0.68279666757E+01  0.88397277920E+01  0.51100000000E-03 0. -1.
        -11    1    4    4    0    0 -0.50253710163E+01 -0.11448189576E+01 -0.34110159431E+01  0.61806143968E+01  0.51100000000E-03 0.  1.
        -12    1    4    4    0    0  0.14404481180E+02  0.17892544701E+02 -0.31945788143E+02  0.39346735748E+02  0.00000000000E+00 0.  1.
</event>
<event>
 8    1  0.1238315E-006  0.9118800E+02  0.7816164E-02  0.1184000E+00
        -11   -1    0    0    0    0  0.00000000000E+00  0.00000000000E+00  0.45593999997E+02  0.45594000000E+02  0.51100000000E-03 0.  1.
         11   -1    0    0    0    0 -0.00000000000E+00 -0.00000000000E+00 -0.45593999997E+02  0.45594000000E+02  0.51100000000E-03 0. -1.
         23    2    1    2    0    0  0.00000000000E+00  0.00000000000E+00  0.00000000000E+00  0.91188000000E+02  0.91188000000E+02 0.  0.
    9900012    2    3    3    0    0 -0.68066960591E+01 -0.34302137451E+02 -0.11524366017E+02  0.54367098911E+02  0.40000033587E+02 0.  0.
        -12    1    3    3    0    0  0.68066960591E+01  0.34302137451E+02  0.11524366017E+02  0.36820901089E+02  0.00000000000E+00 0.  1.
         11    1    4    4    0    0 -0.57578230063E+01 -0.25494632173E+02 -0.49691407222E+01  0.26604908479E+02  0.51100000000E-03 0. -1.
        -11    1    4    4    0    0 -0.47280365520E+01 -0.39137468838E+01 -0.15643224640E+02  0.16804232256E+02  0.51100000000E-03 0.  1.
         12    1    4    4    0    0  0.36791634992E+01 -0.48937583941E+01  0.90879993458E+01  0.10957958176E+02  0.00000000000E+00 0. -1.
</event>
<event>
 8    1  0.1238315E-006  0.9118800E+02  0.7816164E-02  0.1184000E+00
        -11   -1    0    0    0    0  0.00000000000E+00  0.00000000000E+00  0.45593999997E+02  0.45594000000E+02  0.51100000000E-03 0.  1.
         11   -1    0    0    0    0 -0.00000000000E+00 -0.00000000000E+00 -0.45593999997E+02  0.45594000000E+02  0.51100000000E-03 0. -1.
         23    2    1    2    0    0  0.35527136788E-14  0.00000000000E+00  0.00000000000E+00  0.91188000000E+02  0.91188000000E+02 0.  0.
    9900012    2    3    3    0    0  0.30004017643E+02  0.18065141033E+02  0.11366154924E+02  0.54367083757E+02  0.39999999040E+02 0.  0.
         12    1    3    3    0    0 -0.30004017643E+02 -0.18065141033E+02 -0.11366154924E+02  0.36820916243E+02  0.00000000000E+00 0. -1.
         11    1    4    4    0    0  0.96341899289E+01 -0.54955228827E+01 -0.69748216743E+01  0.13102157265E+02  0.51100000000E-03 0. -1.
        -11    1    4    4    0    0  0.10874157825E+01  0.12383889935E+02  0.13699680689E+02  0.18499309562E+02  0.51100000000E-03 0.  1.
        -12    1    4    4    0    0  0.19282411931E+02  0.11176773981E+02  0.46412959087E+01  0.22765616930E+02  0.00000000000E+00 0.  1.
</event>
<event>
 8    1  0.1238315E-006  0.9118800E+02  0.7816164E-02  0.1184000E+00
        -11   -1    0    0    0    0  0.00000000000E+00  0.00000000000E+00  0.45593999997E+02  0.45594000000E+02  0.51100000000E-03 0.  1.
         11   -1    0    0    0    0 -0.00000000000E+00 -0.00000000000E+00 -0.45593999997E+02  0.45594000000E+02  0.51100000000E-03 0. -1.
         23    2    1    2    0    0 -0.27755575616E-16 -0.35527136788E-14  0.00000000000E+00  0.91188000000E+02  0.91188000000E+02 0.  0.
    9900012    2    3    3    0    0  0.18360841272E+00  0.31154180672E+02  0.19625547135E+02  0.54367098521E+02  0.40000032698E+02 0.  0.
        -12    1    3    3    0    0 -0.18360841272E+00 -0.31154180672E+02 -0.19625547135E+02  0.36820901479E+02  0.00000000000E+00 0.  1.
         11    1    4    4    0    0 -0.31724753398E+01  0.72215895122E+01  0.14537602427E+02  0.16539584017E+02  0.51100000000E-03 0. -1.
        -11    1    4    4    0    0 -0.94612824670E+00  0.10369488447E+02  0.16552014751E+02  0.19554811221E+02  0.51100000000E-03 0.  1.
         12    1    4    4    0    0  0.43022119992E+01  0.13563102713E+02 -0.11464070044E+02  0.18272703282E+02  0.00000000000E+00 0. -1.
</event>
<event>
 8    1  0.1238315E-006  0.9118800E+02  0.7816164E-02  0.1184000E+00
        -11   -1    0    0    0    0  0.00000000000E+00  0.00000000000E+00  0.45593999997E+02  0.45594000000E+02  0.51100000000E-03 0.  1.
         11   -1    0    0    0    0 -0.00000000000E+00 -0.00000000000E+00 -0.45593999997E+02  0.45594000000E+02  0.51100000000E-03 0. -1.
         23    2    1    2    0    0  0.35527136788E-14  0.00000000000E+00  0.00000000000E+00  0.91188000000E+02  0.91188000000E+02 0.  0.
    9900012    2    3    3    0    0  0.22011779344E+02 -0.11359380356E+02 -0.27243822214E+02  0.54367084737E+02  0.40000001275E+02 0.  0.
        -12    1    3    3    0    0 -0.22011779344E+02  0.11359380356E+02  0.27243822214E+02  0.36820915263E+02  0.00000000000E+00 0.  1.
         11    1    4    4    0    0  0.16622277358E+02 -0.11496758641E+02 -0.26365199739E+02  0.33220465399E+02  0.51100000000E-03 0. -1.
        -11    1    4    4    0    0 -0.45243933256E+01 -0.65137691656E+01  0.31693059529E+01  0.85407156721E+01  0.51100000000E-03 0.  1.
         12    1    4    4    0    0  0.99138953123E+01  0.66511474503E+01 -0.40479284278E+01  0.12605903666E+02  0.00000000000E+00 0. -1.
</event>
<event>
 8    1  0.1238315E-006  0.9118800E+02  0.7816164E-02  0.1184000E+00
        -11   -1    0    0    0    0  0.00000000000E+00  0.00000000000E+00  0.45593999997E+02  0.45594000000E+02  0.51100000000E-03 0.  1.
         11   -1    0    0    0    0 -0.00000000000E+00 -0.00000000000E+00 -0.45593999997E+02  0.45594000000E+02  0.51100000000E-03 0. -1.
         23    2    1    2    0    0 -0.35527136788E-14  0.71054273576E-14 -0.35527136788E-14  0.91188000000E+02  0.91188000000E+02 0.  0.
    9900012    2    3    3    0    0  0.24963090799E+02 -0.25455017816E+02  0.92014017776E+01  0.54367087071E+02  0.40000006596E+02 0.  0.
        -12    1    3    3    0    0 -0.24963090799E+02  0.25455017816E+02 -0.92014017776E+01  0.36820912929E+02  0.00000000000E+00 0.  1.
         11    1    4    4    0    0  0.13621968632E+02 -0.20576889161E+02  0.49084257697E+01  0.25160664553E+02  0.51100000000E-03 0. -1.
        -11    1    4    4    0    0 -0.83079194469E+01 -0.34401863559E+01  0.29316797063E+01  0.94578620133E+01  0.51100000000E-03 0.  1.
         12    1    4    4    0    0  0.19649041614E+02 -0.14379422992E+01  0.13612963016E+01  0.19748560505E+02  0.00000000000E+00 0. -1.
</event>
<event>
 8    1  0.1238315E-006  0.9118800E+02  0.7816164E-02  0.1184000E+00
        -11   -1    0    0    0    0  0.00000000000E+00  0.00000000000E+00  0.45593999997E+02  0.45594000000E+02  0.51100000000E-03 0.  1.
         11   -1    0    0    0    0 -0.00000000000E+00 -0.00000000000E+00 -0.45593999997E+02  0.45594000000E+02  0.51100000000E-03 0. -1.
         23    2    1    2    0    0  0.00000000000E+00  0.00000000000E+00  0.00000000000E+00  0.91188000000E+02  0.91188000000E+02 0.  0.
    9900012    2    3    3    0    0  0.16197419641E+02 -0.27692584442E+02 -0.18070498242E+02  0.54367101819E+02  0.40000040217E+02 0.  0.
        -12    1    3    3    0    0 -0.16197419641E+02  0.27692584442E+02  0.18070498242E+02  0.36820898181E+02  0.00000000000E+00 0.  1.
         11    1    4    4    0    0  0.11875642993E+02 -0.19766846860E+02 -0.63520731773E+01  0.23918778505E+02  0.51100000000E-03 0. -1.
        -11    1    4    4    0    0  0.34351306723E+01  0.63874891003E+01 -0.14152438156E+02  0.15902567270E+02  0.51100000000E-03 0.  1.
         12    1    4    4    0    0  0.88664597576E+00 -0.14313226683E+02  0.24340130917E+01  0.14545756044E+02  0.00000000000E+00 0. -1.
</event>
<event>
 8    1  0.1238315E-006  0.9118800E+02  0.7816164E-02  0.1184000E+00
        -11   -1    0    0    0    0  0.00000000000E+00  0.00000000000E+00  0.45593999997E+02  0.45594000000E+02  0.51100000000E-03 0. -1.
         11   -1    0    0    0    0 -0.00000000000E+00 -0.00000000000E+00 -0.45593999997E+02  0.45594000000E+02  0.51100000000E-03 0.  1.
         23    2    1    2    0    0  0.00000000000E+00  0.00000000000E+00  0.71054273576E-14  0.91188000000E+02  0.91188000000E+02 0.  0.
    9900012    2    3    3    0    0  0.19254143486E+02  0.14086823462E+01  0.31353982996E+02  0.54367099997E+02  0.40000036063E+02 0.  0.
        -12    1    3    3    0    0 -0.19254143486E+02 -0.14086823462E+01 -0.31353982996E+02  0.36820900003E+02  0.00000000000E+00 0.  1.
         11    1    4    4    0    0  0.14989904482E+02 -0.15946442971E+01  0.33344030966E+02  0.36593230633E+02  0.51100000000E-03 0. -1.
        -11    1    4    4    0    0 -0.35984438698E+01 -0.11569907464E+01 -0.67117307003E+01  0.77029056288E+01  0.51100000000E-03 0.  1.
        -12    1    4    4    0    0  0.78626828739E+01  0.41603173897E+01  0.47216827294E+01  0.10070963735E+02  0.00000000000E+00 0.  1.
</event>
<event>
 8    1  0.1238315E-006  0.9118800E+02  0.7816164E-02  0.1184000E+00
        -11   -1    0    0    0    0  0.00000000000E+00  0.00000000000E+00  0.45593999997E+02  0.45594000000E+02  0.51100000000E-03 0. -1.
         11   -1    0    0    0    0 -0.00000000000E+00 -0.00000000000E+00 -0.45593999997E+02  0.45594000000E+02  0.51100000000E-03 0.  1.
         23    2    1    2    0    0  0.00000000000E+00  0.17763568394E-14  0.00000000000E+00  0.91188000000E+02  0.91188000000E+02 0.  0.
    9900012    2    3    3    0    0 -0.20535292555E+02 -0.14467198064E+02 -0.26921788847E+02  0.54367071511E+02  0.39999971123E+02 0.  0.
         12    1    3    3    0    0  0.20535292555E+02  0.14467198064E+02  0.26921788847E+02  0.36820928489E+02  0.00000000000E+00 0. -1.
         11    1    4    4    0    0 -0.13575898696E+02 -0.16345035383E+02  0.13042765407E+01  0.21287704071E+02  0.51100000000E-03 0. -1.
        -11    1    4    4    0    0  0.24935017970E+01  0.11209101330E+01 -0.20947035233E+02  0.21124684046E+02  0.51100000000E-03 0.  1.
         12    1    4    4    0    0 -0.94528956553E+01  0.75692718595E+00 -0.72790301541E+01  0.11954683393E+02  0.00000000000E+00 0. -1.
</event>
<event>
 8    1  0.1238315E-006  0.9118800E+02  0.7816164E-02  0.1184000E+00
        -11   -1    0    0    0    0  0.00000000000E+00  0.00000000000E+00  0.45593999997E+02  0.45594000000E+02  0.51100000000E-03 0. -1.
         11   -1    0    0    0    0 -0.00000000000E+00 -0.00000000000E+00 -0.45593999997E+02  0.45594000000E+02  0.51100000000E-03 0.  1.
         23    2    1    2    0    0  0.44408920985E-15  0.00000000000E+00  0.00000000000E+00  0.91188000000E+02  0.91188000000E+02 0.  0.
    9900012    2    3    3    0    0  0.30558810732E+01 -0.17770875698E+02 -0.32103550623E+02  0.54367076671E+02  0.39999982887E+02 0.  0.
         12    1    3    3    0    0 -0.30558810732E+01  0.17770875698E+02  0.32103550623E+02  0.36820923329E+02  0.00000000000E+00 0. -1.
         11    1    4    4    0    0  0.76123393809E+01 -0.16296398164E+02 -0.15325091720E+02  0.23630038943E+02  0.51100000000E-03 0. -1.
        -11    1    4    4    0    0  0.60833664523E+01 -0.52359300945E+01 -0.17679327801E+02  0.19415997093E+02  0.51100000000E-03 0.  1.
         12    1    4    4    0    0 -0.10639824760E+02  0.37614525610E+01  0.90086889795E+00  0.11321040635E+02  0.00000000000E+00 0. -1.
</event>
<event>
 8    1  0.1238315E-006  0.9118800E+02  0.7816164E-02  0.1184000E+00
        -11   -1    0    0    0    0  0.00000000000E+00  0.00000000000E+00  0.45593999997E+02  0.45594000000E+02  0.51100000000E-03 0.  1.
         11   -1    0    0    0    0 -0.00000000000E+00 -0.00000000000E+00 -0.45593999997E+02  0.45594000000E+02  0.51100000000E-03 0. -1.
         23    2    1    2    0    0  0.00000000000E+00  0.22204460493E-15  0.00000000000E+00  0.91188000000E+02  0.91188000000E+02 0.  0.
    9900012    2    3    3    0    0  0.21084374143E+02  0.60488268038E+00 -0.30180548126E+02  0.54367052141E+02  0.39999926966E+02 0.  0.
        -12    1    3    3    0    0 -0.21084374143E+02 -0.60488268038E+00  0.30180548126E+02  0.36820947859E+02  0.00000000000E+00 0.  1.
         11    1    4    4    0    0  0.53023419139E+01  0.28838551923E+01 -0.19162398848E+02  0.20090519665E+02  0.51100000000E-03 0. -1.
        -11    1    4    4    0    0 -0.77284052056E+00 -0.74657550254E-01  0.85301809712E+01  0.85654447568E+01  0.51100000000E-03 0.  1.
         12    1    4    4    0    0  0.16554872749E+02 -0.22043149616E+01 -0.19548330249E+02  0.25711087720E+02  0.00000000000E+00 0. -1.
</event>
<event>
 8    1  0.1238315E-006  0.9118800E+02  0.7816164E-02  0.1184000E+00
        -11   -1    0    0    0    0  0.00000000000E+00  0.00000000000E+00  0.45593999997E+02  0.45594000000E+02  0.51100000000E-03 0.  1.
         11   -1    0    0    0    0 -0.00000000000E+00 -0.00000000000E+00 -0.45593999997E+02  0.45594000000E+02  0.51100000000E-03 0. -1.
         23    2    1    2    0    0  0.17763568394E-14 -0.35527136788E-14  0.00000000000E+00  0.91188000000E+02  0.91188000000E+02 0.  0.
    9900012    2    3    3    0    0  0.13518298814E+02 -0.27083220190E+02  0.20965082321E+02  0.54367083452E+02  0.39999998345E+02 0.  0.
         12    1    3    3    0    0 -0.13518298814E+02  0.27083220190E+02 -0.20965082321E+02  0.36820916548E+02  0.00000000000E+00 0. -1.
         11    1    4    4    0    0  0.93981959828E+01 -0.36143384651E+01 -0.76854436229E+01  0.12667105992E+02  0.51100000000E-03 0. -1.
        -11    1    4    4    0    0 -0.36422103401E+01 -0.15345409136E+00  0.10599766934E+02  0.11209116987E+02  0.51100000000E-03 0.  1.
        -12    1    4    4    0    0  0.77623131712E+01 -0.23315427634E+02  0.18050759010E+02  0.30490860473E+02  0.00000000000E+00 0.  1.
</event>
<event>
 8    1  0.1238315E-006  0.9118800E+02  0.7816164E-02  0.1184000E+00
        -11   -1    0    0    0    0  0.00000000000E+00  0.00000000000E+00  0.45593999997E+02  0.45594000000E+02  0.51100000000E-03 0.  1.
         11   -1    0    0    0    0 -0.00000000000E+00 -0.00000000000E+00 -0.45593999997E+02  0.45594000000E+02  0.51100000000E-03 0. -1.
         23    2    1    2    0    0  0.00000000000E+00 -0.88817841970E-15  0.00000000000E+00  0.91188000000E+02  0.91188000000E+02 0.  0.
    9900012    2    3    3    0    0  0.19242111334E+02 -0.68884532982E+01 -0.30627920472E+02  0.54367093577E+02  0.40000021427E+02 0.  0.
        -12    1    3    3    0    0 -0.19242111334E+02  0.68884532982E+01  0.30627920472E+02  0.36820906423E+02  0.00000000000E+00 0.  1.
         11    1    4    4    0    0  0.20858415831E+02 -0.37942645052E+01 -0.29229322635E+02  0.36108492852E+02  0.51100000000E-03 0. -1.
        -11    1    4    4    0    0  0.71622248167E+01  0.22423044663E+01  0.13465205135E+01  0.76248614019E+01  0.51100000000E-03 0.  1.
         12    1    4    4    0    0 -0.87785293137E+01 -0.53364932593E+01 -0.27451183500E+01  0.10633739322E+02  0.00000000000E+00 0. -1.
</event>
<event>
 8    1  0.1238315E-006  0.9118800E+02  0.7816164E-02  0.1184000E+00
        -11   -1    0    0    0    0  0.00000000000E+00  0.00000000000E+00  0.45593999997E+02  0.45594000000E+02  0.51100000000E-03 0. -1.
         11   -1    0    0    0    0 -0.00000000000E+00 -0.00000000000E+00 -0.45593999997E+02  0.45594000000E+02  0.51100000000E-03 0.  1.
         23    2    1    2    0    0 -0.88817841970E-15  0.00000000000E+00  0.00000000000E+00  0.91188000000E+02  0.91188000000E+02 0.  0.
    9900012    2    3    3    0    0 -0.40258557651E+01 -0.33232397084E+02  0.15335590315E+02  0.54367081205E+02  0.39999993224E+02 0.  0.
        -12    1    3    3    0    0  0.40258557651E+01  0.33232397084E+02 -0.15335590315E+02  0.36820918795E+02  0.00000000000E+00 0.  1.
         11    1    4    4    0    0  0.10834423322E+02 -0.15494242878E+02  0.16240663553E+02  0.24924193949E+02  0.51100000000E-03 0. -1.
        -11    1    4    4    0    0 -0.21751230282E+01 -0.14085173305E+02 -0.57678858367E+01  0.15375037382E+02  0.51100000000E-03 0.  1.
         12    1    4    4    0    0 -0.12685156059E+02 -0.36529809007E+01  0.48628125986E+01  0.14067849874E+02  0.00000000000E+00 0. -1.
</event>
<event>
 8    1  0.1238315E-006  0.9118800E+02  0.7816164E-02  0.1184000E+00
        -11   -1    0    0    0    0  0.00000000000E+00  0.00000000000E+00  0.45593999997E+02  0.45594000000E+02  0.51100000000E-03 0. -1.
         11   -1    0    0    0    0 -0.00000000000E+00 -0.00000000000E+00 -0.45593999997E+02  0.45594000000E+02  0.51100000000E-03 0.  1.
         23    2    1    2    0    0 -0.88817841970E-15 -0.17763568394E-14  0.00000000000E+00  0.91188000000E+02  0.91188000000E+02 0.  0.
    9900012    2    3    3    0    0 -0.75513450881E+01 -0.13916130840E+02  0.33243028299E+02  0.54367076048E+02  0.39999981466E+02 0.  0.
        -12    1    3    3    0    0  0.75513450881E+01  0.13916130840E+02 -0.33243028299E+02  0.36820923952E+02  0.00000000000E+00 0.  1.
         11    1    4    4    0    0 -0.28681203868E+01 -0.10864114537E+02  0.12416760245E+01  0.11304727278E+02  0.51100000000E-03 0. -1.
        -11    1    4    4    0    0  0.52814173847E+01 -0.12501815629E+02  0.90372250771E+01  0.16305220053E+02  0.51100000000E-03 0.  1.
        -12    1    4    4    0    0 -0.99646420859E+01  0.94497993264E+01  0.22964127198E+02  0.26757128717E+02  0.00000000000E+00 0.  1.
</event>
<event>
 8    1  0.1238315E-006  0.9118800E+02  0.7816164E-02  0.1184000E+00
        -11   -1    0    0    0    0  0.00000000000E+00  0.00000000000E+00  0.45593999997E+02  0.45594000000E+02  0.51100000000E-03 0.  1.
         11   -1    0    0    0    0 -0.00000000000E+00 -0.00000000000E+00 -0.45593999997E+02  0.45594000000E+02  0.51100000000E-03 0. -1.
         23    2    1    2    0    0  0.00000000000E+00  0.00000000000E+00  0.00000000000E+00  0.91188000000E+02  0.91188000000E+02 0.  0.
    9900012    2    3    3    0    0  0.34812060246E+02 -0.27575163478E+01 -0.11674569004E+02  0.54367095660E+02  0.40000026177E+02 0.  0.
        -12    1    3    3    0    0 -0.34812060246E+02  0.27575163478E+01  0.11674569004E+02  0.36820904340E+02  0.00000000000E+00 0.  1.
         11    1    4    4    0    0 -0.10648671364E+01 -0.72372444602E+01 -0.51619222409E+01  0.89530492503E+01  0.51100000000E-03 0. -1.
        -11    1    4    4    0    0  0.34890051205E+02  0.98146492020E+01  0.86708541013E+00  0.36254583840E+02  0.51100000000E-03 0.  1.
        -12    1    4    4    0    0  0.98687617697E+00 -0.53349210896E+01 -0.73797321735E+01  0.91594625702E+01  0.00000000000E+00 0.  1.
</event>
<event>
 8    1  0.1238315E-006  0.9118800E+02  0.7816164E-02  0.1184000E+00
        -11   -1    0    0    0    0  0.00000000000E+00  0.00000000000E+00  0.45593999997E+02  0.45594000000E+02  0.51100000000E-03 0. -1.
         11   -1    0    0    0    0 -0.00000000000E+00 -0.00000000000E+00 -0.45593999997E+02  0.45594000000E+02  0.51100000000E-03 0.  1.
         23    2    1    2    0    0  0.00000000000E+00 -0.88817841970E-15  0.00000000000E+00  0.91188000000E+02  0.91188000000E+02 0.  0.
    9900012    2    3    3    0    0 -0.31250941572E+02  0.26864809304E+01 -0.19285758997E+02  0.54367095218E+02  0.40000025168E+02 0.  0.
        -12    1    3    3    0    0  0.31250941572E+02 -0.26864809304E+01  0.19285758997E+02  0.36820904782E+02  0.00000000000E+00 0.  1.
         11    1    4    4    0    0 -0.21463961294E+02  0.71854650532E+01  0.33150777537E+01  0.22876238398E+02  0.51100000000E-03 0. -1.
        -11    1    4    4    0    0 -0.12822754400E+02  0.27148499209E+01 -0.18449848154E+02  0.22631622515E+02  0.51100000000E-03 0.  1.
         12    1    4    4    0    0  0.30357741226E+01 -0.72138340436E+01 -0.41509885964E+01  0.88592343044E+01  0.00000000000E+00 0. -1.
</event>
<event>
 8    1  0.1238315E-006  0.9118800E+02  0.7816164E-02  0.1184000E+00
        -11   -1    0    0    0    0  0.00000000000E+00  0.00000000000E+00  0.45593999997E+02  0.45594000000E+02  0.51100000000E-03 0.  1.
         11   -1    0    0    0    0 -0.00000000000E+00 -0.00000000000E+00 -0.45593999997E+02  0.45594000000E+02  0.51100000000E-03 0. -1.
         23    2    1    2    0    0  0.88817841970E-15  0.00000000000E+00  0.00000000000E+00  0.91188000000E+02  0.91188000000E+02 0.  0.
    9900012    2    3    3    0    0 -0.42745828987E+01 -0.28641038726E+02 -0.22741997947E+02  0.54367087072E+02  0.40000006598E+02 0.  0.
        -12    1    3    3    0    0  0.42745828987E+01  0.28641038726E+02  0.22741997947E+02  0.36820912928E+02  0.00000000000E+00 0.  1.
         11    1    4    4    0    0  0.60083378353E+01 -0.31329627788E+02 -0.24702438344E+02  0.40346699509E+02  0.51100000000E-03 0.  1.
        -11    1    4    4    0    0 -0.22979933045E+01  0.44712349431E+01 -0.13329374985E+01  0.52009073997E+01  0.51100000000E-03 0. -1.
        -12    1    4    4    0    0 -0.79849274294E+01 -0.17826458806E+01  0.32933778953E+01  0.88194801633E+01  0.00000000000E+00 0.  1.
</event>
<event>
 8    1  0.1238315E-006  0.9118800E+02  0.7816164E-02  0.1184000E+00
        -11   -1    0    0    0    0  0.00000000000E+00  0.00000000000E+00  0.45593999997E+02  0.45594000000E+02  0.51100000000E-03 0. -1.
         11   -1    0    0    0    0 -0.00000000000E+00 -0.00000000000E+00 -0.45593999997E+02  0.45594000000E+02  0.51100000000E-03 0.  1.
         23    2    1    2    0    0 -0.71054273576E-14  0.35527136788E-14 -0.17763568394E-14  0.91188000000E+02  0.91188000000E+02 0.  0.
    9900012    2    3    3    0    0 -0.22147479244E+02  0.25333574448E+02 -0.14949212610E+02  0.54367084899E+02  0.40000001645E+02 0.  0.
         12    1    3    3    0    0  0.22147479244E+02 -0.25333574448E+02  0.14949212610E+02  0.36820915101E+02  0.00000000000E+00 0. -1.
         11    1    4    4    0    0  0.35438959966E+01  0.10790642115E+02 -0.11288341006E+02  0.16013238242E+02  0.51100000000E-03 0. -1.
        -11    1    4    4    0    0 -0.17707430073E+02  0.11588134895E+02 -0.13685758544E+02  0.25201943126E+02  0.51100000000E-03 0.  1.
         12    1    4    4    0    0 -0.79839451677E+01  0.29547974387E+01  0.10024886939E+02  0.13151903531E+02  0.00000000000E+00 0. -1.
</event>
<event>
 8    1  0.1238315E-006  0.9118800E+02  0.7816164E-02  0.1184000E+00
        -11   -1    0    0    0    0  0.00000000000E+00  0.00000000000E+00  0.45593999997E+02  0.45594000000E+02  0.51100000000E-03 0.  1.
         11   -1    0    0    0    0 -0.00000000000E+00 -0.00000000000E+00 -0.45593999997E+02  0.45594000000E+02  0.51100000000E-03 0. -1.
         23    2    1    2    0    0  0.88817841970E-15  0.00000000000E+00 -0.35527136788E-14  0.91188000000E+02  0.91188000000E+02 0.  0.
    9900012    2    3    3    0    0 -0.47300710747E+01 -0.31323885039E+02 -0.18767498439E+02  0.54367104520E+02  0.40000046373E+02 0.  0.
        -12    1    3    3    0    0  0.47300710747E+01  0.31323885039E+02  0.18767498439E+02  0.36820895480E+02  0.00000000000E+00 0.  1.
         11    1    4    4    0    0  0.72196072568E+01 -0.13455092231E+01 -0.77770394333E+01  0.10696516565E+02  0.51100000000E-03 0. -1.
        -11    1    4    4    0    0  0.49726726021E+01 -0.13383870300E+02  0.49456248063E+01  0.15110084778E+02  0.51100000000E-03 0.  1.
        -12    1    4    4    0    0 -0.16922350934E+02 -0.16594505516E+02 -0.15936083812E+02  0.28560503176E+02  0.00000000000E+00 0.  1.
</event>
<event>
 8    1  0.1238315E-006  0.9118800E+02  0.7816164E-02  0.1184000E+00
        -11   -1    0    0    0    0  0.00000000000E+00  0.00000000000E+00  0.45593999997E+02  0.45594000000E+02  0.51100000000E-03 0. -1.
         11   -1    0    0    0    0 -0.00000000000E+00 -0.00000000000E+00 -0.45593999997E+02  0.45594000000E+02  0.51100000000E-03 0.  1.
         23    2    1    2    0    0 -0.35527136788E-14 -0.17763568394E-14  0.00000000000E+00  0.91188000000E+02  0.91188000000E+02 0.  0.
    9900012    2    3    3    0    0  0.23348998249E+02 -0.15996127124E+02  0.23552643428E+02  0.54367098128E+02  0.40000031803E+02 0.  0.
        -12    1    3    3    0    0 -0.23348998249E+02  0.15996127124E+02 -0.23552643428E+02  0.36820901872E+02  0.00000000000E+00 0.  1.
         11    1    4    4    0    0  0.47519094647E+01 -0.93322542889E+01  0.19931155207E+02  0.22514940858E+02  0.51100000000E-03 0. -1.
        -11    1    4    4    0    0 -0.40843459787E+01  0.39482397477E+01 -0.22861635972E+01  0.61234813165E+01  0.51100000000E-03 0.  1.
        -12    1    4    4    0    0  0.22681434763E+02 -0.10612112583E+02  0.59076518184E+01  0.25728675954E+02  0.00000000000E+00 0.  1.
</event>
<event>
 8    1  0.1238315E-006  0.9118800E+02  0.7816164E-02  0.1184000E+00
        -11   -1    0    0    0    0  0.00000000000E+00  0.00000000000E+00  0.45593999997E+02  0.45594000000E+02  0.51100000000E-03 0. -1.
         11   -1    0    0    0    0 -0.00000000000E+00 -0.00000000000E+00 -0.45593999997E+02  0.45594000000E+02  0.51100000000E-03 0.  1.
         23    2    1    2    0    0  0.66613381478E-15  0.00000000000E+00 -0.31086244690E-14  0.91188000000E+02  0.91188000000E+02 0.  0.
    9900012    2    3    3    0    0 -0.12973678764E+01 -0.36749731199E+02  0.18851584255E+01  0.54367085713E+02  0.40000003501E+02 0.  0.
         12    1    3    3    0    0  0.12973678764E+01  0.36749731199E+02 -0.18851584255E+01  0.36820914287E+02  0.00000000000E+00 0. -1.
         11    1    4    4    0    0  0.90451182366E+00 -0.18731916043E+02  0.16319262358E+02  0.24860031063E+02  0.51100000000E-03 0. -1.
        -11    1    4    4    0    0  0.11850502159E+01 -0.17628034202E+02 -0.34440942392E+01  0.18000381086E+02  0.51100000000E-03 0.  1.
         12    1    4    4    0    0 -0.33869299160E+01 -0.38978095417E+00 -0.10990009694E+02  0.11506673564E+02  0.00000000000E+00 0. -1.
</event>
<event>
 8    1  0.1238315E-006  0.9118800E+02  0.7816164E-02  0.1184000E+00
        -11   -1    0    0    0    0  0.00000000000E+00  0.00000000000E+00  0.45593999997E+02  0.45594000000E+02  0.51100000000E-03 0. -1.
         11   -1    0    0    0    0 -0.00000000000E+00 -0.00000000000E+00 -0.45593999997E+02  0.45594000000E+02  0.51100000000E-03 0.  1.
         23    2    1    2    0    0  0.00000000000E+00  0.00000000000E+00  0.00000000000E+00  0.91188000000E+02  0.91188000000E+02 0.  0.
    9900012    2    3    3    0    0 -0.28530183148E+02 -0.58407739833E+01  0.22532087723E+02  0.54367068883E+02  0.39999965133E+02 0.  0.
        -12    1    3    3    0    0  0.28530183148E+02  0.58407739833E+01 -0.22532087723E+02  0.36820931117E+02  0.00000000000E+00 0.  1.
         11    1    4    4    0    0 -0.47130188331E+01 -0.26702897834E+01 -0.86614308383E+01  0.10215839587E+02  0.51100000000E-03 0. -1.
        -11    1    4    4    0    0 -0.10894808639E+02  0.68724942816E+01  0.21688075076E+02  0.25225000172E+02  0.51100000000E-03 0.  1.
        -12    1    4    4    0    0 -0.12922355676E+02 -0.10042978482E+02  0.95054434852E+01  0.18926229124E+02  0.00000000000E+00 0.  1.
</event>
<event>
 8    1  0.1238315E-006  0.9118800E+02  0.7816164E-02  0.1184000E+00
        -11   -1    0    0    0    0  0.00000000000E+00  0.00000000000E+00  0.45593999997E+02  0.45594000000E+02  0.51100000000E-03 0. -1.
         11   -1    0    0    0    0 -0.00000000000E+00 -0.00000000000E+00 -0.45593999997E+02  0.45594000000E+02  0.51100000000E-03 0.  1.
         23    2    1    2    0    0 -0.35527136788E-14  0.35527136788E-14  0.35527136788E-14  0.91188000000E+02  0.91188000000E+02 0.  0.
    9900012    2    3    3    0    0  0.22770423311E+02 -0.24452111007E+02 -0.15471988474E+02  0.54367077445E+02  0.39999984651E+02 0.  0.
         12    1    3    3    0    0 -0.22770423311E+02  0.24452111007E+02  0.15471988474E+02  0.36820922555E+02  0.00000000000E+00 0. -1.
         11    1    4    4    0    0  0.21434190762E+02 -0.29669283261E+02 -0.24237892082E+01  0.36681952745E+02  0.51100000000E-03 0. -1.
        -11    1    4    4    0    0 -0.16449113256E+01  0.20082575713E+01  0.11407571693E+01  0.28355173994E+01  0.51100000000E-03 0.  1.
         12    1    4    4    0    0  0.29811438749E+01  0.32089146822E+01 -0.14188956435E+02  0.14849607300E+02  0.00000000000E+00 0. -1.
</event>
<event>
 8    1  0.1238315E-006  0.9118800E+02  0.7816164E-02  0.1184000E+00
        -11   -1    0    0    0    0  0.00000000000E+00  0.00000000000E+00  0.45593999997E+02  0.45594000000E+02  0.51100000000E-03 0. -1.
         11   -1    0    0    0    0 -0.00000000000E+00 -0.00000000000E+00 -0.45593999997E+02  0.45594000000E+02  0.51100000000E-03 0.  1.
         23    2    1    2    0    0  0.71054273576E-14  0.55511151231E-15  0.17763568394E-14  0.91188000000E+02  0.91188000000E+02 0.  0.
    9900012    2    3    3    0    0 -0.33997170289E+02  0.63531583477E+00 -0.14126885094E+02  0.54367080724E+02  0.39999992126E+02 0.  0.
         12    1    3    3    0    0  0.33997170289E+02 -0.63531583477E+00  0.14126885094E+02  0.36820919276E+02  0.00000000000E+00 0. -1.
         11    1    4    4    0    0  0.13117009980E+01  0.10115885443E+02 -0.70588233552E+01  0.12404784771E+02  0.51100000000E-03 0.  1.
        -11    1    4    4    0    0 -0.58974393611E+01 -0.94780182135E+01  0.16539108674E+01  0.11284858958E+02  0.51100000000E-03 0. -1.
         12    1    4    4    0    0 -0.29411431926E+02 -0.25513944676E-02 -0.87219726058E+01  0.30677436995E+02  0.00000000000E+00 0. -1.
</event>
<event>
 8    1  0.1238315E-006  0.9118800E+02  0.7816164E-02  0.1184000E+00
        -11   -1    0    0    0    0  0.00000000000E+00  0.00000000000E+00  0.45593999997E+02  0.45594000000E+02  0.51100000000E-03 0. -1.
         11   -1    0    0    0    0 -0.00000000000E+00 -0.00000000000E+00 -0.45593999997E+02  0.45594000000E+02  0.51100000000E-03 0.  1.
         23    2    1    2    0    0 -0.35527136788E-14  0.71054273576E-14  0.00000000000E+00  0.91188000000E+02  0.91188000000E+02 0.  0.
    9900012    2    3    3    0    0 -0.10577370556E+02  0.31798681682E+02  0.15255890306E+02  0.54367094069E+02  0.40000022549E+02 0.  0.
        -12    1    3    3    0    0  0.10577370556E+02 -0.31798681682E+02 -0.15255890306E+02  0.36820905931E+02  0.00000000000E+00 0.  1.
         11    1    4    4    0    0  0.64061332065E+00  0.26129240382E+02  0.10014599026E+02  0.27989994325E+02  0.51100000000E-03 0. -1.
        -11    1    4    4    0    0  0.63310598482E+01  0.30533870653E+01 -0.18519922462E+01  0.72687940481E+01  0.51100000000E-03 0.  1.
        -12    1    4    4    0    0 -0.17549043725E+02  0.26160542340E+01  0.70932835258E+01  0.19108305696E+02  0.00000000000E+00 0.  1.
</event>
<event>
 8    1  0.1238315E-006  0.9118800E+02  0.7816164E-02  0.1184000E+00
        -11   -1    0    0    0    0  0.00000000000E+00  0.00000000000E+00  0.45593999997E+02  0.45594000000E+02  0.51100000000E-03 0. -1.
         11   -1    0    0    0    0 -0.00000000000E+00 -0.00000000000E+00 -0.45593999997E+02  0.45594000000E+02  0.51100000000E-03 0.  1.
         23    2    1    2    0    0  0.00000000000E+00  0.00000000000E+00  0.00000000000E+00  0.91188000000E+02  0.91188000000E+02 0.  0.
    9900012    2    3    3    0    0  0.22161753982E+02  0.24994471163E+02 -0.15489135366E+02  0.54367078737E+02  0.39999987598E+02 0.  0.
        -12    1    3    3    0    0 -0.22161753982E+02 -0.24994471163E+02  0.15489135366E+02  0.36820921263E+02  0.00000000000E+00 0.  1.
         11    1    4    4    0    0 -0.71188864333E+01 -0.16421521385E+01 -0.94337128064E+01  0.11931896131E+02  0.51100000000E-03 0. -1.
        -11    1    4    4    0    0  0.15258320841E+02  0.53712330962E+01  0.31160836014E+00  0.16179109985E+02  0.51100000000E-03 0.  1.
         12    1    4    4    0    0  0.14022319574E+02  0.21265390205E+02 -0.63670309197E+01  0.26256072622E+02  0.00000000000E+00 0. -1.
</event>
<event>
 8    1  0.1238315E-006  0.9118800E+02  0.7816164E-02  0.1184000E+00
        -11   -1    0    0    0    0  0.00000000000E+00  0.00000000000E+00  0.45593999997E+02  0.45594000000E+02  0.51100000000E-03 0.  1.
         11   -1    0    0    0    0 -0.00000000000E+00 -0.00000000000E+00 -0.45593999997E+02  0.45594000000E+02  0.51100000000E-03 0. -1.
         23    2    1    2    0    0 -0.35527136788E-14  0.35527136788E-14  0.44408920985E-15  0.91188000000E+02  0.91188000000E+02 0.  0.
    9900012    2    3    3    0    0  0.26200643659E+02  0.25643154741E+02 -0.34256143945E+01  0.54367082749E+02  0.39999996744E+02 0.  0.
        -12    1    3    3    0    0 -0.26200643659E+02 -0.25643154741E+02  0.34256143945E+01  0.36820917251E+02  0.00000000000E+00 0.  1.
         11    1    4    4    0    0  0.15099358318E+02  0.27629138976E+02  0.10304980815E+02  0.33129330993E+02  0.51100000000E-03 0. -1.
        -11    1    4    4    0    0  0.29931553927E+01 -0.58466072811E+01 -0.88370300988E+01  0.11010671966E+02  0.51100000000E-03 0.  1.
         12    1    4    4    0    0  0.81081299481E+01  0.38606230457E+01 -0.48935651108E+01  0.10227079791E+02  0.00000000000E+00 0. -1.
</event>
<event>
 8    1  0.1238315E-006  0.9118800E+02  0.7816164E-02  0.1184000E+00
        -11   -1    0    0    0    0  0.00000000000E+00  0.00000000000E+00  0.45593999997E+02  0.45594000000E+02  0.51100000000E-03 0.  1.
         11   -1    0    0    0    0 -0.00000000000E+00 -0.00000000000E+00 -0.45593999997E+02  0.45594000000E+02  0.51100000000E-03 0. -1.
         23    2    1    2    0    0 -0.17763568394E-14  0.00000000000E+00  0.00000000000E+00  0.91188000000E+02  0.91188000000E+02 0.  0.
    9900012    2    3    3    0    0 -0.13705767927E+02 -0.33110793581E+02 -0.84621021945E+01  0.54367083396E+02  0.39999998218E+02 0.  0.
        -12    1    3    3    0    0  0.13705767927E+02  0.33110793581E+02  0.84621021945E+01  0.36820916604E+02  0.00000000000E+00 0.  1.
         11    1    4    4    0    0 -0.87275948711E+00  0.55078717403E+01 -0.42285918731E+00  0.55925996087E+01  0.51100000000E-03 0. -1.
        -11    1    4    4    0    0  0.75587838060E+01 -0.73735665639E+01 -0.38057899194E+01  0.11224470307E+02  0.51100000000E-03 0.  1.
         12    1    4    4    0    0 -0.20391792246E+02 -0.31245098757E+02 -0.42334530879E+01  0.37550013480E+02  0.00000000000E+00 0. -1.
</event>
<event>
 8    1  0.1238315E-006  0.9118800E+02  0.7816164E-02  0.1184000E+00
        -11   -1    0    0    0    0  0.00000000000E+00  0.00000000000E+00  0.45593999997E+02  0.45594000000E+02  0.51100000000E-03 0. -1.
         11   -1    0    0    0    0 -0.00000000000E+00 -0.00000000000E+00 -0.45593999997E+02  0.45594000000E+02  0.51100000000E-03 0.  1.
         23    2    1    2    0    0  0.00000000000E+00 -0.44408920985E-15 -0.71054273576E-14  0.91188000000E+02  0.91188000000E+02 0.  0.
    9900012    2    3    3    0    0 -0.17421304191E+02  0.20771307407E+01  0.32372258634E+02  0.54367089624E+02  0.40000012415E+02 0.  0.
        -12    1    3    3    0    0  0.17421304191E+02 -0.20771307407E+01 -0.32372258634E+02  0.36820910376E+02  0.00000000000E+00 0.  1.
         11    1    4    4    0    0 -0.37590086680E+01 -0.10886085083E+02  0.61698268390E+01  0.13065364828E+02  0.51100000000E-03 0. -1.
        -11    1    4    4    0    0 -0.70542774605E+01  0.88757085511E+01 -0.24628641651E+01  0.11602014176E+02  0.51100000000E-03 0.  1.
         12    1    4    4    0    0 -0.66080180627E+01  0.40875072727E+01  0.28665295961E+02  0.29699710620E+02  0.00000000000E+00 0. -1.
</event>
<event>
 8    1  0.1238315E-006  0.9118800E+02  0.7816164E-02  0.1184000E+00
        -11   -1    0    0    0    0  0.00000000000E+00  0.00000000000E+00  0.45593999997E+02  0.45594000000E+02  0.51100000000E-03 0. -1.
         11   -1    0    0    0    0 -0.00000000000E+00 -0.00000000000E+00 -0.45593999997E+02  0.45594000000E+02  0.51100000000E-03 0.  1.
         23    2    1    2    0    0  0.00000000000E+00  0.00000000000E+00  0.00000000000E+00  0.91188000000E+02  0.91188000000E+02 0.  0.
    9900012    2    3    3    0    0  0.74320513958E+01 -0.21519189387E+02  0.28939059715E+02  0.54367080987E+02  0.39999992725E+02 0.  0.
        -12    1    3    3    0    0 -0.74320513958E+01  0.21519189387E+02 -0.28939059715E+02  0.36820919013E+02  0.00000000000E+00 0.  1.
         11    1    4    4    0    0  0.50290253108E+01 -0.14132030409E+02  0.77920745117E+01  0.16903307502E+02  0.51100000000E-03 0. -1.
        -11    1    4    4    0    0 -0.10805059063E+02 -0.12400395917E+02  0.85562939524E+01  0.18539937614E+02  0.51100000000E-03 0.  1.
         12    1    4    4    0    0  0.13208085148E+02  0.50132369398E+01  0.12590691251E+02  0.18923835871E+02  0.00000000000E+00 0. -1.
</event>
<event>
 8    1  0.1238315E-006  0.9118800E+02  0.7816164E-02  0.1184000E+00
        -11   -1    0    0    0    0  0.00000000000E+00  0.00000000000E+00  0.45593999997E+02  0.45594000000E+02  0.51100000000E-03 0.  1.
         11   -1    0    0    0    0 -0.00000000000E+00 -0.00000000000E+00 -0.45593999997E+02  0.45594000000E+02  0.51100000000E-03 0. -1.
         23    2    1    2    0    0  0.00000000000E+00  0.00000000000E+00  0.00000000000E+00  0.91188000000E+02  0.91188000000E+02 0.  0.
    9900012    2    3    3    0    0 -0.24687310403E+02  0.15090733307E+02 -0.22772456669E+02  0.54367104989E+02  0.40000047443E+02 0.  0.
        -12    1    3    3    0    0  0.24687310403E+02 -0.15090733307E+02  0.22772456669E+02  0.36820895011E+02  0.00000000000E+00 0.  1.
         11    1    4    4    0    0 -0.80803862527E+01  0.25316942629E+02 -0.18063443927E+02  0.32132977342E+02  0.51100000000E-03 0. -1.
        -11    1    4    4    0    0 -0.45338627550E+01 -0.82493965602E+01 -0.10892327657E+01  0.94760162182E+01  0.51100000000E-03 0.  1.
         12    1    4    4    0    0 -0.12073061396E+02 -0.19768127621E+01 -0.36197799759E+01  0.12758111429E+02  0.00000000000E+00 0. -1.
</event>
<event>
 8    1  0.1238315E-006  0.9118800E+02  0.7816164E-02  0.1184000E+00
        -11   -1    0    0    0    0  0.00000000000E+00  0.00000000000E+00  0.45593999997E+02  0.45594000000E+02  0.51100000000E-03 0.  1.
         11   -1    0    0    0    0 -0.00000000000E+00 -0.00000000000E+00 -0.45593999997E+02  0.45594000000E+02  0.51100000000E-03 0. -1.
         23    2    1    2    0    0 -0.71054273576E-14  0.17763568394E-14 -0.17763568394E-14  0.91188000000E+02  0.91188000000E+02 0.  0.
    9900012    2    3    3    0    0 -0.32914621082E+02  0.13050571481E+02 -0.10103966868E+02  0.54367084158E+02  0.39999999955E+02 0.  0.
        -12    1    3    3    0    0  0.32914621082E+02 -0.13050571481E+02  0.10103966868E+02  0.36820915842E+02  0.00000000000E+00 0.  1.
         11    1    4    4    0    0 -0.20849220184E+02  0.12439777375E+02 -0.19785734675E+01  0.24358834058E+02  0.51100000000E-03 0. -1.
        -11    1    4    4    0    0  0.65123925353E+00  0.10700177592E+02  0.19596297296E+01  0.10897617263E+02  0.51100000000E-03 0.  1.
         12    1    4    4    0    0 -0.12716640152E+02 -0.10089383487E+02 -0.10085023131E+02  0.19110632837E+02  0.00000000000E+00 0. -1.
</event>
<event>
 8    1  0.1238315E-006  0.9118800E+02  0.7816164E-02  0.1184000E+00
        -11   -1    0    0    0    0  0.00000000000E+00  0.00000000000E+00  0.45593999997E+02  0.45594000000E+02  0.51100000000E-03 0.  1.
         11   -1    0    0    0    0 -0.00000000000E+00 -0.00000000000E+00 -0.45593999997E+02  0.45594000000E+02  0.51100000000E-03 0. -1.
         23    2    1    2    0    0 -0.17763568394E-14  0.00000000000E+00  0.00000000000E+00  0.91188000000E+02  0.91188000000E+02 0.  0.
    9900012    2    3    3    0    0 -0.12675219701E+02  0.12437652631E+02 -0.32255596490E+02  0.54367083358E+02  0.39999998131E+02 0.  0.
        -12    1    3    3    0    0  0.12675219701E+02 -0.12437652631E+02  0.32255596490E+02  0.36820916642E+02  0.00000000000E+00 0.  1.
         11    1    4    4    0    0 -0.17749188051E+01 -0.76943401279E+01 -0.12294753037E+02  0.14612123708E+02  0.51100000000E-03 0. -1.
        -11    1    4    4    0    0 -0.14554391919E+02  0.87098127982E+00 -0.64359481251E+01  0.15937702502E+02  0.51100000000E-03 0.  1.
         12    1    4    4    0    0  0.36540910225E+01  0.19261011479E+02 -0.13524895328E+02  0.23817257147E+02  0.00000000000E+00 0. -1.
</event>
<event>
 8    1  0.1238315E-006  0.9118800E+02  0.7816164E-02  0.1184000E+00
        -11   -1    0    0    0    0  0.00000000000E+00  0.00000000000E+00  0.45593999997E+02  0.45594000000E+02  0.51100000000E-03 0.  1.
         11   -1    0    0    0    0 -0.00000000000E+00 -0.00000000000E+00 -0.45593999997E+02  0.45594000000E+02  0.51100000000E-03 0. -1.
         23    2    1    2    0    0 -0.35527136788E-14  0.00000000000E+00  0.00000000000E+00  0.91188000000E+02  0.91188000000E+02 0.  0.
    9900012    2    3    3    0    0 -0.13073048023E+02 -0.19770325728E+02  0.28178159790E+02  0.54367094890E+02  0.40000024420E+02 0.  0.
         12    1    3    3    0    0  0.13073048023E+02  0.19770325728E+02 -0.28178159790E+02  0.36820905110E+02  0.00000000000E+00 0. -1.
         11    1    4    4    0    0 -0.37716842932E+01  0.25454722268E+01 -0.62892119363E+01  0.77626811287E+01  0.51100000000E-03 0. -1.
        -11    1    4    4    0    0  0.16704344086E+01 -0.10260703374E+02  0.24562330169E+01  0.10682015996E+02  0.51100000000E-03 0.  1.
        -12    1    4    4    0    0 -0.10971798138E+02 -0.12055094581E+02  0.32011138709E+02  0.35922397765E+02  0.00000000000E+00 0.  1.
</event>
<event>
 8    1  0.1238315E-006  0.9118800E+02  0.7816164E-02  0.1184000E+00
        -11   -1    0    0    0    0  0.00000000000E+00  0.00000000000E+00  0.45593999997E+02  0.45594000000E+02  0.51100000000E-03 0.  1.
         11   -1    0    0    0    0 -0.00000000000E+00 -0.00000000000E+00 -0.45593999997E+02  0.45594000000E+02  0.51100000000E-03 0. -1.
         23    2    1    2    0    0  0.00000000000E+00 -0.17763568394E-14  0.00000000000E+00  0.91188000000E+02  0.91188000000E+02 0.  0.
    9900012    2    3    3    0    0  0.35624080325E+02 -0.25987919137E+01 -0.89414900965E+01  0.54367094748E+02  0.40000024097E+02 0.  0.
        -12    1    3    3    0    0 -0.35624080325E+02  0.25987919137E+01  0.89414900965E+01  0.36820905252E+02  0.00000000000E+00 0.  1.
         11    1    4    4    0    0  0.24040924434E+02  0.25161495378E+01 -0.58398823500E+01  0.24867675450E+02  0.51100000000E-03 0. -1.
        -11    1    4    4    0    0  0.22993903210E+01  0.83425025028E+01 -0.86490913849E+01  0.12234840657E+02  0.51100000000E-03 0.  1.
        -12    1    4    4    0    0  0.92837655702E+01 -0.13457443954E+02  0.55474836384E+01  0.17264578641E+02  0.00000000000E+00 0.  1.
</event>
<event>
 8    1  0.1238315E-006  0.9118800E+02  0.7816164E-02  0.1184000E+00
        -11   -1    0    0    0    0  0.00000000000E+00  0.00000000000E+00  0.45593999997E+02  0.45594000000E+02  0.51100000000E-03 0.  1.
         11   -1    0    0    0    0 -0.00000000000E+00 -0.00000000000E+00 -0.45593999997E+02  0.45594000000E+02  0.51100000000E-03 0. -1.
         23    2    1    2    0    0 -0.94368957093E-15  0.00000000000E+00 -0.71054273576E-14  0.91188000000E+02  0.91188000000E+02 0.  0.
    9900012    2    3    3    0    0 -0.21499228993E+00  0.62695616367E+01 -0.36282590696E+02  0.54367081864E+02  0.39999994725E+02 0.  0.
        -12    1    3    3    0    0  0.21499228993E+00 -0.62695616367E+01  0.36282590696E+02  0.36820918136E+02  0.00000000000E+00 0.  1.
         11    1    4    4    0    0  0.11059719788E+02  0.11086781984E+02 -0.90077125469E+01  0.18065797025E+02  0.51100000000E-03 0.  1.
        -11    1    4    4    0    0  0.12885639739E+01 -0.85196262369E+01 -0.18855862761E+02  0.20731328685E+02  0.51100000000E-03 0. -1.
         12    1    4    4    0    0 -0.12563276052E+02  0.37024058892E+01 -0.84190153877E+01  0.15569956153E+02  0.00000000000E+00 0. -1.
</event>
<event>
 8    1  0.1238315E-006  0.9118800E+02  0.7816164E-02  0.1184000E+00
        -11   -1    0    0    0    0  0.00000000000E+00  0.00000000000E+00  0.45593999997E+02  0.45594000000E+02  0.51100000000E-03 0. -1.
         11   -1    0    0    0    0 -0.00000000000E+00 -0.00000000000E+00 -0.45593999997E+02  0.45594000000E+02  0.51100000000E-03 0.  1.
         23    2    1    2    0    0  0.00000000000E+00 -0.35527136788E-14  0.00000000000E+00  0.91188000000E+02  0.91188000000E+02 0.  0.
    9900012    2    3    3    0    0  0.22236609805E+02 -0.27928778550E+02 -0.90164711944E+01  0.54367078777E+02  0.39999987688E+02 0.  0.
         12    1    3    3    0    0 -0.22236609805E+02  0.27928778550E+02  0.90164711944E+01  0.36820921223E+02  0.00000000000E+00 0. -1.
         11    1    4    4    0    0  0.97135588578E+01  0.43506316800E+01  0.19060022811E+01  0.10812680826E+02  0.51100000000E-03 0.  1.
        -11    1    4    4    0    0  0.94277853655E+01 -0.28713804616E+02  0.15057984794E+01  0.30259430625E+02  0.51100000000E-03 0. -1.
         12    1    4    4    0    0  0.30952655814E+01 -0.35656056143E+01 -0.12428271955E+02  0.13294967326E+02  0.00000000000E+00 0. -1.
</event>
<event>
 8    1  0.1238315E-006  0.9118800E+02  0.7816164E-02  0.1184000E+00
        -11   -1    0    0    0    0  0.00000000000E+00  0.00000000000E+00  0.45593999997E+02  0.45594000000E+02  0.51100000000E-03 0.  1.
         11   -1    0    0    0    0 -0.00000000000E+00 -0.00000000000E+00 -0.45593999997E+02  0.45594000000E+02  0.51100000000E-03 0. -1.
         23    2    1    2    0    0 -0.71054273576E-14  0.27755575616E-15 -0.88817841970E-15  0.91188000000E+02  0.91188000000E+02 0.  0.
    9900012    2    3    3    0    0  0.36388629440E+02 -0.33682134236E+00  0.56155224817E+01  0.54367083473E+02  0.39999998393E+02 0.  0.
        -12    1    3    3    0    0 -0.36388629440E+02  0.33682134236E+00 -0.56155224817E+01  0.36820916527E+02  0.00000000000E+00 0.  1.
         11    1    4    4    0    0  0.31303039713E+02  0.72680838473E+01  0.32040577824E+00  0.32137330291E+02  0.51100000000E-03 0. -1.
        -11    1    4    4    0    0  0.65168209288E+01 -0.13525006597E+02  0.58527219682E+01  0.16113631285E+02  0.51100000000E-03 0.  1.
         12    1    4    4    0    0 -0.14312312017E+01  0.59201014077E+01 -0.55760526473E+00  0.61161218972E+01  0.00000000000E+00 0. -1.
</event>
<event>
 8    1  0.1238315E-006  0.9118800E+02  0.7816164E-02  0.1184000E+00
        -11   -1    0    0    0    0  0.00000000000E+00  0.00000000000E+00  0.45593999997E+02  0.45594000000E+02  0.51100000000E-03 0.  1.
         11   -1    0    0    0    0 -0.00000000000E+00 -0.00000000000E+00 -0.45593999997E+02  0.45594000000E+02  0.51100000000E-03 0. -1.
         23    2    1    2    0    0 -0.88817841970E-15  0.00000000000E+00  0.00000000000E+00  0.91188000000E+02  0.91188000000E+02 0.  0.
    9900012    2    3    3    0    0 -0.50508605970E+01 -0.28538742678E+02 -0.22711412937E+02  0.54367091483E+02  0.40000016654E+02 0.  0.
        -12    1    3    3    0    0  0.50508605970E+01  0.28538742678E+02  0.22711412937E+02  0.36820908517E+02  0.00000000000E+00 0.  1.
         11    1    4    4    0    0  0.70265854750E+01 -0.76246421885E+01 -0.16907376744E+02  0.19833493403E+02  0.51100000000E-03 0. -1.
        -11    1    4    4    0    0 -0.13974533708E+02 -0.24977113346E+02 -0.77409768192E+01  0.29649055732E+02  0.51100000000E-03 0.  1.
        -12    1    4    4    0    0  0.18970876356E+01  0.40630128559E+01  0.19369406265E+01  0.48845423485E+01  0.00000000000E+00 0.  1.
</event>
<event>
 8    1  0.1238315E-006  0.9118800E+02  0.7816164E-02  0.1184000E+00
        -11   -1    0    0    0    0  0.00000000000E+00  0.00000000000E+00  0.45593999997E+02  0.45594000000E+02  0.51100000000E-03 0. -1.
         11   -1    0    0    0    0 -0.00000000000E+00 -0.00000000000E+00 -0.45593999997E+02  0.45594000000E+02  0.51100000000E-03 0.  1.
         23    2    1    2    0    0  0.00000000000E+00  0.00000000000E+00  0.00000000000E+00  0.91188000000E+02  0.91188000000E+02 0.  0.
    9900012    2    3    3    0    0 -0.35418989477E+02 -0.99561643046E+01 -0.14661622766E+01  0.54367086716E+02  0.40000005787E+02 0.  0.
        -12    1    3    3    0    0  0.35418989477E+02  0.99561643046E+01  0.14661622766E+01  0.36820913284E+02  0.00000000000E+00 0.  1.
         11    1    4    4    0    0 -0.30184541437E+02 -0.12348799644E+02  0.32781055415E+01  0.32777208096E+02  0.51100000000E-03 0. -1.
        -11    1    4    4    0    0 -0.81041264541E+01  0.98857602211E+01 -0.12692232205E+01  0.12845857254E+02  0.51100000000E-03 0.  1.
        -12    1    4    4    0    0  0.28696784141E+01 -0.74931248820E+01 -0.34750445976E+01  0.87440213662E+01  0.00000000000E+00 0.  1.
</event>
<event>
 8    1  0.1238315E-006  0.9118800E+02  0.7816164E-02  0.1184000E+00
        -11   -1    0    0    0    0  0.00000000000E+00  0.00000000000E+00  0.45593999997E+02  0.45594000000E+02  0.51100000000E-03 0. -1.
         11   -1    0    0    0    0 -0.00000000000E+00 -0.00000000000E+00 -0.45593999997E+02  0.45594000000E+02  0.51100000000E-03 0.  1.
         23    2    1    2    0    0  0.00000000000E+00  0.00000000000E+00 -0.35527136788E-14  0.91188000000E+02  0.91188000000E+02 0.  0.
    9900012    2    3    3    0    0  0.89769590769E+01  0.29668452275E+02  0.19873869171E+02  0.54367169884E+02  0.40000195383E+02 0.  0.
        -12    1    3    3    0    0 -0.89769590769E+01 -0.29668452275E+02 -0.19873869171E+02  0.36820830116E+02  0.00000000000E+00 0.  1.
         11    1    4    4    0    0 -0.75711051987E+01  0.60391876665E+01  0.82764712791E+01  0.12739442637E+02  0.51100000000E-03 0. -1.
        -11    1    4    4    0    0  0.92743861999E+01  0.12111766946E+02 -0.84129272148E+01  0.17420863427E+02  0.51100000000E-03 0.  1.
        -12    1    4    4    0    0  0.72736780757E+01  0.11517497662E+02  0.20010325106E+02  0.24206863820E+02  0.00000000000E+00 0.  1.
</event>
<event>
 8    1  0.1238315E-006  0.9118800E+02  0.7816164E-02  0.1184000E+00
        -11   -1    0    0    0    0  0.00000000000E+00  0.00000000000E+00  0.45593999997E+02  0.45594000000E+02  0.51100000000E-03 0.  1.
         11   -1    0    0    0    0 -0.00000000000E+00 -0.00000000000E+00 -0.45593999997E+02  0.45594000000E+02  0.51100000000E-03 0. -1.
         23    2    1    2    0    0  0.88817841970E-15  0.88817841970E-15  0.00000000000E+00  0.91188000000E+02  0.91188000000E+02 0.  0.
    9900012    2    3    3    0    0 -0.58722860053E+01  0.44816736542E+01 -0.36072269442E+02  0.54367112390E+02  0.40000064315E+02 0.  0.
        -12    1    3    3    0    0  0.58722860053E+01 -0.44816736542E+01  0.36072269442E+02  0.36820887610E+02  0.00000000000E+00 0.  1.
         11    1    4    4    0    0  0.17960397207E+01  0.11256063833E+02 -0.16763492508E+02  0.20271640610E+02  0.51100000000E-03 0. -1.
        -11    1    4    4    0    0 -0.16477476738E+02  0.38736622035E+00 -0.90989412203E+01  0.18826790057E+02  0.51100000000E-03 0.  1.
        -12    1    4    4    0    0  0.88091510120E+01 -0.71617563989E+01 -0.10209835714E+02  0.15268681723E+02  0.00000000000E+00 0.  1.
</event>
<event>
 8    1  0.1238315E-006  0.9118800E+02  0.7816164E-02  0.1184000E+00
        -11   -1    0    0    0    0  0.00000000000E+00  0.00000000000E+00  0.45593999997E+02  0.45594000000E+02  0.51100000000E-03 0. -1.
         11   -1    0    0    0    0 -0.00000000000E+00 -0.00000000000E+00 -0.45593999997E+02  0.45594000000E+02  0.51100000000E-03 0.  1.
         23    2    1    2    0    0 -0.66613381478E-15  0.00000000000E+00 -0.71054273576E-14  0.91188000000E+02  0.91188000000E+02 0.  0.
    9900012    2    3    3    0    0  0.17510567081E+01 -0.19401005238E+02 -0.31246051936E+02  0.54367068922E+02  0.39999965222E+02 0.  0.
         12    1    3    3    0    0 -0.17510567081E+01  0.19401005238E+02  0.31246051936E+02  0.36820931078E+02  0.00000000000E+00 0. -1.
         11    1    4    4    0    0  0.65762116177E+01 -0.60220860137E+01 -0.15332865134E+02  0.17737216035E+02  0.51100000000E-03 0. -1.
        -11    1    4    4    0    0 -0.70172818639E+01 -0.10881953923E+02 -0.24340999278E+02  0.27570698432E+02  0.51100000000E-03 0.  1.
         12    1    4    4    0    0  0.21921269543E+01 -0.24969653019E+01  0.84278124762E+01  0.90591544548E+01  0.00000000000E+00 0. -1.
</event>
<event>
 8    1  0.1238315E-006  0.9118800E+02  0.7816164E-02  0.1184000E+00
        -11   -1    0    0    0    0  0.00000000000E+00  0.00000000000E+00  0.45593999997E+02  0.45594000000E+02  0.51100000000E-03 0.  1.
         11   -1    0    0    0    0 -0.00000000000E+00 -0.00000000000E+00 -0.45593999997E+02  0.45594000000E+02  0.51100000000E-03 0. -1.
         23    2    1    2    0    0  0.00000000000E+00  0.17763568394E-14  0.00000000000E+00  0.91188000000E+02  0.91188000000E+02 0.  0.
    9900012    2    3    3    0    0 -0.26785725416E+02 -0.12626833853E+02  0.21883025854E+02  0.54367097788E+02  0.40000031026E+02 0.  0.
         12    1    3    3    0    0  0.26785725416E+02  0.12626833853E+02 -0.21883025854E+02  0.36820902212E+02  0.00000000000E+00 0. -1.
         11    1    4    4    0    0 -0.85364241797E+01 -0.94526125617E+01  0.63149946987E+01  0.14216243538E+02  0.51100000000E-03 0. -1.
        -11    1    4    4    0    0  0.54844523763E+01 -0.91974577492E+01  0.10792021974E+02  0.15203295217E+02  0.51100000000E-03 0.  1.
         12    1    4    4    0    0 -0.23733753613E+02  0.60232364580E+01  0.47760091811E+01  0.24947559032E+02  0.00000000000E+00 0. -1.
</event>
<event>
 8    1  0.1238315E-006  0.9118800E+02  0.7816164E-02  0.1184000E+00
        -11   -1    0    0    0    0  0.00000000000E+00  0.00000000000E+00  0.45593999997E+02  0.45594000000E+02  0.51100000000E-03 0. -1.
         11   -1    0    0    0    0 -0.00000000000E+00 -0.00000000000E+00 -0.45593999997E+02  0.45594000000E+02  0.51100000000E-03 0.  1.
         23    2    1    2    0    0  0.00000000000E+00  0.00000000000E+00  0.00000000000E+00  0.91188000000E+02  0.91188000000E+02 0.  0.
    9900012    2    3    3    0    0 -0.36614121413E+01 -0.32577034350E+02  0.16766363301E+02  0.54367081431E+02  0.39999993739E+02 0.  0.
         12    1    3    3    0    0  0.36614121413E+01  0.32577034350E+02 -0.16766363301E+02  0.36820918569E+02  0.00000000000E+00 0. -1.
         11    1    4    4    0    0  0.60093919607E+01 -0.22724671450E+02  0.11722873990E+02  0.26266885218E+02  0.51100000000E-03 0. -1.
        -11    1    4    4    0    0  0.12572128456E+00 -0.10762172718E+02 -0.67785908660E+01  0.12719648652E+02  0.51100000000E-03 0.  1.
        -12    1    4    4    0    0 -0.97965253866E+01  0.90980981694E+00  0.11822080177E+02  0.15380547561E+02  0.00000000000E+00 0.  1.
</event>
<event>
 8    1  0.1238315E-006  0.9118800E+02  0.7816164E-02  0.1184000E+00
        -11   -1    0    0    0    0  0.00000000000E+00  0.00000000000E+00  0.45593999997E+02  0.45594000000E+02  0.51100000000E-03 0. -1.
         11   -1    0    0    0    0 -0.00000000000E+00 -0.00000000000E+00 -0.45593999997E+02  0.45594000000E+02  0.51100000000E-03 0.  1.
         23    2    1    2    0    0  0.35527136788E-14  0.35527136788E-14 -0.17763568394E-14  0.91188000000E+02  0.91188000000E+02 0.  0.
    9900012    2    3    3    0    0 -0.20254517387E+02 -0.28135153384E+02  0.12407497308E+02  0.54367104846E+02  0.40000047117E+02 0.  0.
         12    1    3    3    0    0  0.20254517387E+02  0.28135153384E+02 -0.12407497308E+02  0.36820895154E+02  0.00000000000E+00 0. -1.
         11    1    4    4    0    0 -0.14190641421E+02 -0.26691159747E+02 -0.24036117409E+01  0.30324407039E+02  0.51100000000E-03 0. -1.
        -11    1    4    4    0    0 -0.35045492163E+01 -0.72930957096E+01  0.15635556659E+02  0.17605162383E+02  0.51100000000E-03 0.  1.
         12    1    4    4    0    0 -0.25593267490E+01  0.58491020730E+01 -0.82444761055E+00  0.64375354237E+01  0.00000000000E+00 0. -1.
</event>
<event>
 8    1  0.1238315E-006  0.9118800E+02  0.7816164E-02  0.1184000E+00
        -11   -1    0    0    0    0  0.00000000000E+00  0.00000000000E+00  0.45593999997E+02  0.45594000000E+02  0.51100000000E-03 0. -1.
         11   -1    0    0    0    0 -0.00000000000E+00 -0.00000000000E+00 -0.45593999997E+02  0.45594000000E+02  0.51100000000E-03 0.  1.
         23    2    1    2    0    0  0.17763568394E-14  0.35527136788E-14  0.00000000000E+00  0.91188000000E+02  0.91188000000E+02 0.  0.
    9900012    2    3    3    0    0  0.10734473987E+02  0.27796407589E+02  0.21631199469E+02  0.54367109230E+02  0.40000057112E+02 0.  0.
        -12    1    3    3    0    0 -0.10734473987E+02 -0.27796407589E+02 -0.21631199469E+02  0.36820890770E+02  0.00000000000E+00 0.  1.
         11    1    4    4    0    0  0.11593921391E+02  0.20965504812E+02  0.24661079206E+02  0.34382266259E+02  0.51100000000E-03 0. -1.
        -11    1    4    4    0    0 -0.51033090605E+01 -0.50100251952E+01 -0.15712014100E+01  0.73220755224E+01  0.51100000000E-03 0.  1.
        -12    1    4    4    0    0  0.42438616567E+01  0.11840927972E+02 -0.14586783268E+01  0.12662767449E+02  0.00000000000E+00 0.  1.
</event>
<event>
 8    1  0.1238315E-006  0.9118800E+02  0.7816164E-02  0.1184000E+00
        -11   -1    0    0    0    0  0.00000000000E+00  0.00000000000E+00  0.45593999997E+02  0.45594000000E+02  0.51100000000E-03 0. -1.
         11   -1    0    0    0    0 -0.00000000000E+00 -0.00000000000E+00 -0.45593999997E+02  0.45594000000E+02  0.51100000000E-03 0.  1.
         23    2    1    2    0    0  0.71054273576E-14  0.88817841970E-15 -0.26645352591E-14  0.91188000000E+02  0.91188000000E+02 0.  0.
    9900012    2    3    3    0    0 -0.36079017319E+02  0.29315887328E+01  0.67445867053E+01  0.54367093533E+02  0.40000021327E+02 0.  0.
         12    1    3    3    0    0  0.36079017319E+02 -0.29315887328E+01 -0.67445867053E+01  0.36820906467E+02  0.00000000000E+00 0. -1.
         11    1    4    4    0    0  0.35039055018E+00  0.10880223811E+02 -0.27502751388E+01  0.11227914202E+02  0.51100000000E-03 0. -1.
        -11    1    4    4    0    0 -0.12538005713E+02  0.63412640960E+01  0.51439589764E+01  0.14962403945E+02  0.51100000000E-03 0.  1.
         12    1    4    4    0    0 -0.23891402156E+02 -0.14289899175E+02  0.43509028677E+01  0.28176775387E+02  0.00000000000E+00 0. -1.
</event>
<event>
 8    1  0.1238315E-006  0.9118800E+02  0.7816164E-02  0.1184000E+00
        -11   -1    0    0    0    0  0.00000000000E+00  0.00000000000E+00  0.45593999997E+02  0.45594000000E+02  0.51100000000E-03 0. -1.
         11   -1    0    0    0    0 -0.00000000000E+00 -0.00000000000E+00 -0.45593999997E+02  0.45594000000E+02  0.51100000000E-03 0.  1.
         23    2    1    2    0    0  0.17763568394E-14 -0.17763568394E-14  0.00000000000E+00  0.91188000000E+02  0.91188000000E+02 0.  0.
    9900012    2    3    3    0    0  0.10569645247E+02 -0.92179956135E+01 -0.34045431152E+02  0.54367078962E+02  0.39999988110E+02 0.  0.
         12    1    3    3    0    0 -0.10569645247E+02  0.92179956135E+01  0.34045431152E+02  0.36820921038E+02  0.00000000000E+00 0. -1.
         11    1    4    4    0    0  0.38453589715E+01  0.12048847111E+02 -0.23106335479E+02  0.26341302964E+02  0.51100000000E-03 0. -1.
        -11    1    4    4    0    0  0.42779561823E+01 -0.56075700392E+01  0.22535603909E+01  0.74043423434E+01  0.51100000000E-03 0.  1.
        -12    1    4    4    0    0  0.24463300928E+01 -0.15659272685E+02 -0.13192656064E+02  0.20621433655E+02  0.00000000000E+00 0.  1.
</event>
<event>
 8    1  0.1238315E-006  0.9118800E+02  0.7816164E-02  0.1184000E+00
        -11   -1    0    0    0    0  0.00000000000E+00  0.00000000000E+00  0.45593999997E+02  0.45594000000E+02  0.51100000000E-03 0.  1.
         11   -1    0    0    0    0 -0.00000000000E+00 -0.00000000000E+00 -0.45593999997E+02  0.45594000000E+02  0.51100000000E-03 0. -1.
         23    2    1    2    0    0  0.00000000000E+00  0.00000000000E+00  0.00000000000E+00  0.91188000000E+02  0.91188000000E+02 0.  0.
    9900012    2    3    3    0    0 -0.75278488576E+01 -0.30075508705E+02 -0.19863915537E+02  0.54367083761E+02  0.39999999049E+02 0.  0.
         12    1    3    3    0    0  0.75278488576E+01  0.30075508705E+02  0.19863915537E+02  0.36820916239E+02  0.00000000000E+00 0. -1.
         11    1    4    4    0    0  0.10772526167E+02 -0.17221308437E+02 -0.15078848229E+02  0.25298072031E+02  0.51100000000E-03 0.  1.
        -11    1    4    4    0    0  0.29501850060E+01 -0.53790030973E+01 -0.13489633395E+01  0.62814781893E+01  0.51100000000E-03 0. -1.
         12    1    4    4    0    0 -0.21250560031E+02 -0.74751971700E+01 -0.34361039683E+01  0.22787533540E+02  0.00000000000E+00 0. -1.
</event>
<event>
 8    1  0.1238315E-006  0.9118800E+02  0.7816164E-02  0.1184000E+00
        -11   -1    0    0    0    0  0.00000000000E+00  0.00000000000E+00  0.45593999997E+02  0.45594000000E+02  0.51100000000E-03 0.  1.
         11   -1    0    0    0    0 -0.00000000000E+00 -0.00000000000E+00 -0.45593999997E+02  0.45594000000E+02  0.51100000000E-03 0. -1.
         23    2    1    2    0    0  0.35527136788E-14 -0.17763568394E-14 -0.35527136788E-14  0.91188000000E+02  0.91188000000E+02 0.  0.
    9900012    2    3    3    0    0  0.16258321714E+02  0.11278067773E+02 -0.31052440892E+02  0.54367055919E+02  0.39999935579E+02 0.  0.
        -12    1    3    3    0    0 -0.16258321714E+02 -0.11278067773E+02  0.31052440892E+02  0.36820944081E+02  0.00000000000E+00 0.  1.
         11    1    4    4    0    0 -0.70540828054E+01 -0.23558899443E-01 -0.13628150853E+02  0.15345590089E+02  0.51100000000E-03 0.  1.
        -11    1    4    4    0    0  0.12244028520E+02  0.17915815889E+02 -0.83347738157E+01  0.23245669450E+02  0.51100000000E-03 0. -1.
         12    1    4    4    0    0  0.11068376000E+02 -0.66141892162E+01 -0.90895162225E+01  0.15775796380E+02  0.00000000000E+00 0. -1.
</event>
<event>
 8    1  0.1238315E-006  0.9118800E+02  0.7816164E-02  0.1184000E+00
        -11   -1    0    0    0    0  0.00000000000E+00  0.00000000000E+00  0.45593999997E+02  0.45594000000E+02  0.51100000000E-03 0. -1.
         11   -1    0    0    0    0 -0.00000000000E+00 -0.00000000000E+00 -0.45593999997E+02  0.45594000000E+02  0.51100000000E-03 0.  1.
         23    2    1    2    0    0  0.00000000000E+00  0.35527136788E-14  0.00000000000E+00  0.91188000000E+02  0.91188000000E+02 0.  0.
    9900012    2    3    3    0    0  0.71557111958E+00 -0.17950593317E+02 -0.32141018999E+02  0.54367069203E+02  0.39999965863E+02 0.  0.
         12    1    3    3    0    0 -0.71557111958E+00  0.17950593317E+02  0.32141018999E+02  0.36820930797E+02  0.00000000000E+00 0. -1.
         11    1    4    4    0    0 -0.51533911789E+01  0.25342279599E+01 -0.15874470642E+02  0.16881308315E+02  0.51100000000E-03 0. -1.
        -11    1    4    4    0    0  0.15532324693E+01 -0.14020298394E+02 -0.23146106909E+02  0.27105784687E+02  0.51100000000E-03 0.  1.
         12    1    4    4    0    0  0.43157298291E+01 -0.64645228825E+01  0.68795585531E+01  0.10379976201E+02  0.00000000000E+00 0. -1.
</event>
<event>
 8    1  0.1238315E-006  0.9118800E+02  0.7816164E-02  0.1184000E+00
        -11   -1    0    0    0    0  0.00000000000E+00  0.00000000000E+00  0.45593999997E+02  0.45594000000E+02  0.51100000000E-03 0.  1.
         11   -1    0    0    0    0 -0.00000000000E+00 -0.00000000000E+00 -0.45593999997E+02  0.45594000000E+02  0.51100000000E-03 0. -1.
         23    2    1    2    0    0  0.00000000000E+00  0.00000000000E+00  0.17763568394E-14  0.91188000000E+02  0.91188000000E+02 0.  0.
    9900012    2    3    3    0    0 -0.35323331823E+02 -0.45984306174E+01 -0.93218606330E+01  0.54367076317E+02  0.39999982080E+02 0.  0.
        -12    1    3    3    0    0  0.35323331823E+02  0.45984306174E+01  0.93218606330E+01  0.36820923683E+02  0.00000000000E+00 0.  1.
         11    1    4    4    0    0  0.14690713966E+01 -0.27594682024E+01  0.10334669185E+02  0.10797139573E+02  0.51100000000E-03 0. -1.
        -11    1    4    4    0    0 -0.28148770745E+02  0.18420465714E+01 -0.95754345202E+01  0.29789853584E+02  0.51100000000E-03 0.  1.
         12    1    4    4    0    0 -0.86436324743E+01 -0.36810089865E+01 -0.10081095298E+02  0.13780083161E+02  0.00000000000E+00 0. -1.
</event>
<event>
 8    1  0.1238315E-006  0.9118800E+02  0.7816164E-02  0.1184000E+00
        -11   -1    0    0    0    0  0.00000000000E+00  0.00000000000E+00  0.45593999997E+02  0.45594000000E+02  0.51100000000E-03 0.  1.
         11   -1    0    0    0    0 -0.00000000000E+00 -0.00000000000E+00 -0.45593999997E+02  0.45594000000E+02  0.51100000000E-03 0. -1.
         23    2    1    2    0    0  0.10547118734E-14  0.00000000000E+00 -0.17763568394E-14  0.91188000000E+02  0.91188000000E+02 0.  0.
    9900012    2    3    3    0    0  0.24624580692E+00 -0.36758692407E+02 -0.21260967795E+01  0.54367049551E+02  0.39999921061E+02 0.  0.
        -12    1    3    3    0    0 -0.24624580692E+00  0.36758692407E+02  0.21260967795E+01  0.36820950449E+02  0.00000000000E+00 0.  1.
         11    1    4    4    0    0  0.77166463930E+01 -0.49779819406E+01 -0.12431988344E+02  0.15455784360E+02  0.51100000000E-03 0. -1.
        -11    1    4    4    0    0 -0.56092764329E+01 -0.31889292329E+02  0.43492072841E+01  0.32669657966E+02  0.51100000000E-03 0.  1.
         12    1    4    4    0    0 -0.18611241532E+01  0.10858186293E+00  0.59566842800E+01  0.62416072246E+01  0.00000000000E+00 0. -1.
</event>
<event>
 8    1  0.1238315E-006  0.9118800E+02  0.7816164E-02  0.1184000E+00
        -11   -1    0    0    0    0  0.00000000000E+00  0.00000000000E+00  0.45593999997E+02  0.45594000000E+02  0.51100000000E-03 0.  1.
         11   -1    0    0    0    0 -0.00000000000E+00 -0.00000000000E+00 -0.45593999997E+02  0.45594000000E+02  0.51100000000E-03 0. -1.
         23    2    1    2    0    0  0.00000000000E+00  0.17763568394E-14  0.00000000000E+00  0.91188000000E+02  0.91188000000E+02 0.  0.
    9900012    2    3    3    0    0 -0.95318043917E+01 -0.15641157212E+02  0.31941790247E+02  0.54367094823E+02  0.40000024267E+02 0.  0.
         12    1    3    3    0    0  0.95318043917E+01  0.15641157212E+02 -0.31941790247E+02  0.36820905177E+02  0.00000000000E+00 0. -1.
         11    1    4    4    0    0 -0.64284964649E+01  0.52164517380E+01  0.18883423974E+02  0.20618453792E+02  0.51100000000E-03 0. -1.
        -11    1    4    4    0    0 -0.34936881015E+01 -0.23639643407E+02  0.39547880590E+01  0.24221456311E+02  0.51100000000E-03 0.  1.
        -12    1    4    4    0    0  0.39038017464E+00  0.27820344564E+01  0.91035782140E+01  0.95271847203E+01  0.00000000000E+00 0.  1.
</event>
<event>
 8    1  0.1238315E-006  0.9118800E+02  0.7816164E-02  0.1184000E+00
        -11   -1    0    0    0    0  0.00000000000E+00  0.00000000000E+00  0.45593999997E+02  0.45594000000E+02  0.51100000000E-03 0.  1.
         11   -1    0    0    0    0 -0.00000000000E+00 -0.00000000000E+00 -0.45593999997E+02  0.45594000000E+02  0.51100000000E-03 0. -1.
         23    2    1    2    0    0 -0.26645352591E-14  0.00000000000E+00  0.00000000000E+00  0.91188000000E+02  0.91188000000E+02 0.  0.
    9900012    2    3    3    0    0  0.43077225487E+01 -0.12853089524E+02 -0.34234549565E+02  0.54367316033E+02  0.40000528557E+02 0.  0.
        -12    1    3    3    0    0 -0.43077225487E+01  0.12853089524E+02  0.34234549565E+02  0.36820683967E+02  0.00000000000E+00 0.  1.
         11    1    4    4    0    0 -0.90627422507E+01 -0.54723509638E+01 -0.25251895313E+02  0.27381346558E+02  0.51100000000E-03 0. -1.
        -11    1    4    4    0    0 -0.12771668181E+01 -0.31258366796E+01  0.51722256770E+01  0.61768866546E+01  0.51100000000E-03 0.  1.
         12    1    4    4    0    0  0.14647631618E+02 -0.42549018809E+01 -0.14154879929E+02  0.20809082821E+02  0.00000000000E+00 0. -1.
</event>
<event>
 8    1  0.1238315E-006  0.9118800E+02  0.7816164E-02  0.1184000E+00
        -11   -1    0    0    0    0  0.00000000000E+00  0.00000000000E+00  0.45593999997E+02  0.45594000000E+02  0.51100000000E-03 0. -1.
         11   -1    0    0    0    0 -0.00000000000E+00 -0.00000000000E+00 -0.45593999997E+02  0.45594000000E+02  0.51100000000E-03 0.  1.
         23    2    1    2    0    0  0.17763568394E-14 -0.88817841970E-15  0.00000000000E+00  0.91188000000E+02  0.91188000000E+02 0.  0.
    9900012    2    3    3    0    0  0.11753005254E+02 -0.60285720061E+01 -0.34370113599E+02  0.54367061368E+02  0.39999948001E+02 0.  0.
         12    1    3    3    0    0 -0.11753005254E+02  0.60285720061E+01  0.34370113599E+02  0.36820938632E+02  0.00000000000E+00 0. -1.
         11    1    4    4    0    0  0.11108213248E+01 -0.29331330027E+00  0.47091326880E+01  0.48472556815E+01  0.51100000000E-03 0. -1.
        -11    1    4    4    0    0  0.16008666319E+02 -0.10907906218E+02 -0.37028009924E+02  0.41789153312E+02  0.51100000000E-03 0.  1.
         12    1    4    4    0    0 -0.53664823895E+01  0.51726475121E+01 -0.20512363627E+01  0.77306523745E+01  0.00000000000E+00 0. -1.
</event>
<event>
 8    1  0.1238315E-006  0.9118800E+02  0.7816164E-02  0.1184000E+00
        -11   -1    0    0    0    0  0.00000000000E+00  0.00000000000E+00  0.45593999997E+02  0.45594000000E+02  0.51100000000E-03 0.  1.
         11   -1    0    0    0    0 -0.00000000000E+00 -0.00000000000E+00 -0.45593999997E+02  0.45594000000E+02  0.51100000000E-03 0. -1.
         23    2    1    2    0    0  0.00000000000E+00 -0.17763568394E-14  0.00000000000E+00  0.91188000000E+02  0.91188000000E+02 0.  0.
    9900012    2    3    3    0    0 -0.19789488251E+02 -0.14568702002E+02  0.27420951416E+02  0.54367088824E+02  0.40000010592E+02 0.  0.
         12    1    3    3    0    0  0.19789488251E+02  0.14568702002E+02 -0.27420951416E+02  0.36820911176E+02  0.00000000000E+00 0. -1.
         11    1    4    4    0    0 -0.25118787370E+02 -0.55031085769E+01  0.98629581740E+01  0.27541162415E+02  0.51100000000E-03 0. -1.
        -11    1    4    4    0    0 -0.14817904508E+01  0.32456424009E+01  0.10490962373E+02  0.11081073473E+02  0.51100000000E-03 0.  1.
        -12    1    4    4    0    0  0.68110895695E+01 -0.12311235826E+02  0.70670308686E+01  0.15744852936E+02  0.00000000000E+00 0.  1.
</event>
<event>
 8    1  0.1238315E-006  0.9118800E+02  0.7816164E-02  0.1184000E+00
        -11   -1    0    0    0    0  0.00000000000E+00  0.00000000000E+00  0.45593999997E+02  0.45594000000E+02  0.51100000000E-03 0.  1.
         11   -1    0    0    0    0 -0.00000000000E+00 -0.00000000000E+00 -0.45593999997E+02  0.45594000000E+02  0.51100000000E-03 0. -1.
         23    2    1    2    0    0  0.00000000000E+00 -0.35527136788E-14  0.00000000000E+00  0.91188000000E+02  0.91188000000E+02 0.  0.
    9900012    2    3    3    0    0  0.13691461992E+02 -0.29775089698E+02 -0.16785946847E+02  0.54367080545E+02  0.39999991717E+02 0.  0.
        -12    1    3    3    0    0 -0.13691461992E+02  0.29775089698E+02  0.16785946847E+02  0.36820919455E+02  0.00000000000E+00 0.  1.
         11    1    4    4    0    0  0.90779093191E+01 -0.52626642488E+01  0.18728430342E+01  0.10658874889E+02  0.51100000000E-03 0.  1.
        -11    1    4    4    0    0  0.58027725093E+01 -0.13733782199E+02 -0.26445032449E+02  0.30358337962E+02  0.51100000000E-03 0. -1.
        -12    1    4    4    0    0 -0.11892198360E+01 -0.10778643250E+02  0.77862425679E+01  0.13349867694E+02  0.00000000000E+00 0.  1.
</event>
<event>
 8    1  0.1238315E-006  0.9118800E+02  0.7816164E-02  0.1184000E+00
        -11   -1    0    0    0    0  0.00000000000E+00  0.00000000000E+00  0.45593999997E+02  0.45594000000E+02  0.51100000000E-03 0.  1.
         11   -1    0    0    0    0 -0.00000000000E+00 -0.00000000000E+00 -0.45593999997E+02  0.45594000000E+02  0.51100000000E-03 0. -1.
         23    2    1    2    0    0  0.35527136788E-14  0.71054273576E-14  0.17763568394E-14  0.91188000000E+02  0.91188000000E+02 0.  0.
    9900012    2    3    3    0    0  0.21377767649E+02 -0.26481213777E+02 -0.14054038335E+02  0.54367087107E+02  0.40000006678E+02 0.  0.
        -12    1    3    3    0    0 -0.21377767649E+02  0.26481213777E+02  0.14054038335E+02  0.36820912893E+02  0.00000000000E+00 0.  1.
         11    1    4    4    0    0 -0.67411957906E+00 -0.17357853716E+02 -0.23694836828E+01  0.17531798996E+02  0.51100000000E-03 0. -1.
        -11    1    4    4    0    0  0.16797004865E+01  0.76630937137E+01  0.28707763808E+00  0.78502746971E+01  0.51100000000E-03 0.  1.
         12    1    4    4    0    0  0.20372186741E+02 -0.16786453774E+02 -0.11971632290E+02  0.28985013414E+02  0.00000000000E+00 0. -1.
</event>
<event>
 8    1  0.1238315E-006  0.9118800E+02  0.7816164E-02  0.1184000E+00
        -11   -1    0    0    0    0  0.00000000000E+00  0.00000000000E+00  0.45593999997E+02  0.45594000000E+02  0.51100000000E-03 0.  1.
         11   -1    0    0    0    0 -0.00000000000E+00 -0.00000000000E+00 -0.45593999997E+02  0.45594000000E+02  0.51100000000E-03 0. -1.
         23    2    1    2    0    0  0.00000000000E+00  0.35527136788E-14  0.00000000000E+00  0.91188000000E+02  0.91188000000E+02 0.  0.
    9900012    2    3    3    0    0  0.59827352130E+01  0.24734780597E+02 -0.26611609598E+02  0.54367078540E+02  0.39999987147E+02 0.  0.
        -12    1    3    3    0    0 -0.59827352130E+01 -0.24734780597E+02  0.26611609598E+02  0.36820921460E+02  0.00000000000E+00 0.  1.
         11    1    4    4    0    0  0.33295674100E+01  0.23575890918E+01  0.62471560679E+00  0.41272890999E+01  0.51100000000E-03 0. -1.
        -11    1    4    4    0    0 -0.55523572421E+01 -0.21408832235E+01  0.57860490999E+01  0.83000250824E+01  0.51100000000E-03 0.  1.
         12    1    4    4    0    0  0.82055250451E+01  0.24518074729E+02 -0.33022374304E+02  0.41939764357E+02  0.00000000000E+00 0. -1.
</event>
<event>
 8    1  0.1238315E-006  0.9118800E+02  0.7816164E-02  0.1184000E+00
        -11   -1    0    0    0    0  0.00000000000E+00  0.00000000000E+00  0.45593999997E+02  0.45594000000E+02  0.51100000000E-03 0.  1.
         11   -1    0    0    0    0 -0.00000000000E+00 -0.00000000000E+00 -0.45593999997E+02  0.45594000000E+02  0.51100000000E-03 0. -1.
         23    2    1    2    0    0  0.71054273576E-14  0.53290705182E-14 -0.17763568394E-14  0.91188000000E+02  0.91188000000E+02 0.  0.
    9900012    2    3    3    0    0  0.33756206396E+02  0.13446688527E+02 -0.59569526299E+01  0.54367079489E+02  0.39999989311E+02 0.  0.
        -12    1    3    3    0    0 -0.33756206396E+02 -0.13446688527E+02  0.59569526299E+01  0.36820920511E+02  0.00000000000E+00 0.  1.
         11    1    4    4    0    0 -0.52212332828E+00 -0.19727740798E-01  0.33658094443E+00  0.62152147748E+00  0.51100000000E-03 0. -1.
        -11    1    4    4    0    0 -0.40966457053E+01 -0.40280888071E+01  0.74319562311E+01  0.93937201978E+01  0.51100000000E-03 0.  1.
         12    1    4    4    0    0  0.38374975430E+02  0.17494505075E+02 -0.13725489805E+02  0.44351837814E+02  0.00000000000E+00 0. -1.
</event>
<event>
 8    1  0.1238315E-006  0.9118800E+02  0.7816164E-02  0.1184000E+00
        -11   -1    0    0    0    0  0.00000000000E+00  0.00000000000E+00  0.45593999997E+02  0.45594000000E+02  0.51100000000E-03 0. -1.
         11   -1    0    0    0    0 -0.00000000000E+00 -0.00000000000E+00 -0.45593999997E+02  0.45594000000E+02  0.51100000000E-03 0.  1.
         23    2    1    2    0    0  0.71054273576E-14 -0.17763568394E-14 -0.17763568394E-14  0.91188000000E+02  0.91188000000E+02 0.  0.
    9900012    2    3    3    0    0  0.33385147296E+02 -0.12138815301E+02 -0.96881699532E+01  0.54367088361E+02  0.40000009538E+02 0.  0.
        -12    1    3    3    0    0 -0.33385147296E+02  0.12138815301E+02  0.96881699532E+01  0.36820911639E+02  0.00000000000E+00 0.  1.
         11    1    4    4    0    0  0.26424906293E+02 -0.14985690212E+02 -0.94621302916E+01  0.31817895808E+02  0.51100000000E-03 0. -1.
        -11    1    4    4    0    0  0.13123742261E+02 -0.95678825336E+00  0.44933183236E+01  0.13904602278E+02  0.51100000000E-03 0.  1.
        -12    1    4    4    0    0 -0.61635012589E+01  0.38036631643E+01 -0.47193579851E+01  0.86445902753E+01  0.00000000000E+00 0.  1.
</event>
<event>
 8    1  0.1238315E-006  0.9118800E+02  0.7816164E-02  0.1184000E+00
        -11   -1    0    0    0    0  0.00000000000E+00  0.00000000000E+00  0.45593999997E+02  0.45594000000E+02  0.51100000000E-03 0. -1.
         11   -1    0    0    0    0 -0.00000000000E+00 -0.00000000000E+00 -0.45593999997E+02  0.45594000000E+02  0.51100000000E-03 0.  1.
         23    2    1    2    0    0 -0.35527136788E-14  0.00000000000E+00  0.00000000000E+00  0.91188000000E+02  0.91188000000E+02 0.  0.
    9900012    2    3    3    0    0  0.29951554576E+02  0.19849689090E+02  0.80420777219E+01  0.54367071270E+02  0.39999970573E+02 0.  0.
        -12    1    3    3    0    0 -0.29951554576E+02 -0.19849689090E+02 -0.80420777219E+01  0.36820928730E+02  0.00000000000E+00 0.  1.
         11    1    4    4    0    0  0.25452901157E+01 -0.97789471996E+00  0.30518620225E+01  0.40925104670E+01  0.51100000000E-03 0. -1.
        -11    1    4    4    0    0  0.12095147479E+02  0.94820275970E+01 -0.15820749929E+02  0.22056689880E+02  0.51100000000E-03 0.  1.
        -12    1    4    4    0    0  0.15311116981E+02  0.11345556213E+02  0.20810965629E+02  0.28217870922E+02  0.00000000000E+00 0.  1.
</event>
<event>
 8    1  0.1238315E-006  0.9118800E+02  0.7816164E-02  0.1184000E+00
        -11   -1    0    0    0    0  0.00000000000E+00  0.00000000000E+00  0.45593999997E+02  0.45594000000E+02  0.51100000000E-03 0.  1.
         11   -1    0    0    0    0 -0.00000000000E+00 -0.00000000000E+00 -0.45593999997E+02  0.45594000000E+02  0.51100000000E-03 0. -1.
         23    2    1    2    0    0  0.00000000000E+00  0.22204460493E-15  0.17763568394E-14  0.91188000000E+02  0.91188000000E+02 0.  0.
    9900012    2    3    3    0    0  0.35548657017E+02 -0.10294818674E+01 -0.95400505773E+01  0.54367089994E+02  0.40000013260E+02 0.  0.
         12    1    3    3    0    0 -0.35548657017E+02  0.10294818674E+01  0.95400505773E+01  0.36820910006E+02  0.00000000000E+00 0. -1.
         11    1    4    4    0    0  0.18200265728E+02 -0.14665720307E+02  0.70636477508E+01  0.24417783366E+02  0.51100000000E-03 0. -1.
        -11    1    4    4    0    0  0.24575708533E+01  0.27966162676E+01  0.16008625712E+01  0.40525890836E+01  0.51100000000E-03 0.  1.
        -12    1    4    4    0    0  0.14890820436E+02  0.10839622172E+02 -0.18204560899E+02  0.25896717545E+02  0.00000000000E+00 0.  1.
</event>
<event>
 8    1  0.1238315E-006  0.9118800E+02  0.7816164E-02  0.1184000E+00
        -11   -1    0    0    0    0  0.00000000000E+00  0.00000000000E+00  0.45593999997E+02  0.45594000000E+02  0.51100000000E-03 0.  1.
         11   -1    0    0    0    0 -0.00000000000E+00 -0.00000000000E+00 -0.45593999997E+02  0.45594000000E+02  0.51100000000E-03 0. -1.
         23    2    1    2    0    0  0.17763568394E-14  0.00000000000E+00  0.00000000000E+00  0.91188000000E+02  0.91188000000E+02 0.  0.
    9900012    2    3    3    0    0 -0.10604873650E+02  0.30204058247E+02  0.18194279332E+02  0.54367078228E+02  0.39999986437E+02 0.  0.
         12    1    3    3    0    0  0.10604873650E+02 -0.30204058247E+02 -0.18194279332E+02  0.36820921772E+02  0.00000000000E+00 0. -1.
         11    1    4    4    0    0  0.49206791350E+00 -0.25033310207E+01 -0.40406825948E+01  0.47786936629E+01  0.51100000000E-03 0. -1.
        -11    1    4    4    0    0  0.59666664891E+01  0.21020382032E+02  0.44243329603E+01  0.22294221049E+02  0.51100000000E-03 0.  1.
        -12    1    4    4    0    0 -0.17063608053E+02  0.11687007235E+02  0.17810628966E+02  0.27294163516E+02  0.00000000000E+00 0.  1.
</event>
<event>
 8    1  0.1238315E-006  0.9118800E+02  0.7816164E-02  0.1184000E+00
        -11   -1    0    0    0    0  0.00000000000E+00  0.00000000000E+00  0.45593999997E+02  0.45594000000E+02  0.51100000000E-03 0.  1.
         11   -1    0    0    0    0 -0.00000000000E+00 -0.00000000000E+00 -0.45593999997E+02  0.45594000000E+02  0.51100000000E-03 0. -1.
         23    2    1    2    0    0  0.00000000000E+00 -0.35527136788E-14  0.00000000000E+00  0.91188000000E+02  0.91188000000E+02 0.  0.
    9900012    2    3    3    0    0 -0.16534338638E+02  0.22218110284E+02 -0.24264182310E+02  0.54367091240E+02  0.40000016099E+02 0.  0.
        -12    1    3    3    0    0  0.16534338638E+02 -0.22218110284E+02  0.24264182310E+02  0.36820908760E+02  0.00000000000E+00 0.  1.
         11    1    4    4    0    0 -0.55485036365E+01  0.24098515936E+02 -0.22440330625E+02  0.33393005282E+02  0.51100000000E-03 0. -1.
        -11    1    4    4    0    0 -0.63035244296E+01 -0.79583985607E+01 -0.64375205404E+01  0.12021322675E+02  0.51100000000E-03 0.  1.
         12    1    4    4    0    0 -0.46823105716E+01  0.60779929091E+01  0.46136688559E+01  0.89527632832E+01  0.00000000000E+00 0. -1.
</event>
<event>
 8    1  0.1238315E-006  0.9118800E+02  0.7816164E-02  0.1184000E+00
        -11   -1    0    0    0    0  0.00000000000E+00  0.00000000000E+00  0.45593999997E+02  0.45594000000E+02  0.51100000000E-03 0.  1.
         11   -1    0    0    0    0 -0.00000000000E+00 -0.00000000000E+00 -0.45593999997E+02  0.45594000000E+02  0.51100000000E-03 0. -1.
         23    2    1    2    0    0  0.00000000000E+00 -0.35527136788E-14  0.00000000000E+00  0.91188000000E+02  0.91188000000E+02 0.  0.
    9900012    2    3    3    0    0  0.18083468923E+02 -0.22407736275E+02 -0.22949100446E+02  0.54367086044E+02  0.40000004256E+02 0.  0.
        -12    1    3    3    0    0 -0.18083468923E+02  0.22407736275E+02  0.22949100446E+02  0.36820913956E+02  0.00000000000E+00 0.  1.
         11    1    4    4    0    0 -0.10212907154E+01  0.33912397834E+01 -0.56395377165E+01  0.66594239924E+01  0.51100000000E-03 0. -1.
        -11    1    4    4    0    0  0.95107824572E+01 -0.19841321589E+02  0.51240868319E+01  0.22591796995E+02  0.51100000000E-03 0.  1.
        -12    1    4    4    0    0  0.95939771813E+01 -0.59576544693E+01 -0.22433649561E+02  0.25115865057E+02  0.00000000000E+00 0.  1.
</event>
<event>
 8    1  0.1238315E-006  0.9118800E+02  0.7816164E-02  0.1184000E+00
        -11   -1    0    0    0    0  0.00000000000E+00  0.00000000000E+00  0.45593999997E+02  0.45594000000E+02  0.51100000000E-03 0.  1.
         11   -1    0    0    0    0 -0.00000000000E+00 -0.00000000000E+00 -0.45593999997E+02  0.45594000000E+02  0.51100000000E-03 0. -1.
         23    2    1    2    0    0  0.00000000000E+00 -0.26645352591E-14  0.00000000000E+00  0.91188000000E+02  0.91188000000E+02 0.  0.
    9900012    2    3    3    0    0 -0.36405407535E+02 -0.46961779044E+01  0.28933486254E+01  0.54367092203E+02  0.40000018296E+02 0.  0.
         12    1    3    3    0    0  0.36405407535E+02  0.46961779044E+01 -0.28933486254E+01  0.36820907797E+02  0.00000000000E+00 0. -1.
         11    1    4    4    0    0  0.11037285293E+01 -0.10954763068E+02 -0.48253550599E+01  0.12021193878E+02  0.51100000000E-03 0.  1.
        -11    1    4    4    0    0 -0.12897352951E+02  0.93669223640E+01  0.73076966196E+01  0.17535203958E+02  0.51100000000E-03 0. -1.
        -12    1    4    4    0    0 -0.24611783113E+02 -0.31083372007E+01  0.41100706578E+00  0.24810694367E+02  0.00000000000E+00 0.  1.
</event>
<event>
 8    1  0.1238315E-006  0.9118800E+02  0.7816164E-02  0.1184000E+00
        -11   -1    0    0    0    0  0.00000000000E+00  0.00000000000E+00  0.45593999997E+02  0.45594000000E+02  0.51100000000E-03 0.  1.
         11   -1    0    0    0    0 -0.00000000000E+00 -0.00000000000E+00 -0.45593999997E+02  0.45594000000E+02  0.51100000000E-03 0. -1.
         23    2    1    2    0    0 -0.35527136788E-14 -0.35527136788E-14  0.00000000000E+00  0.91188000000E+02  0.91188000000E+02 0.  0.
    9900012    2    3    3    0    0  0.20411589535E+02  0.10089099253E+02  0.28937118465E+02  0.54367085615E+02  0.40000003276E+02 0.  0.
         12    1    3    3    0    0 -0.20411589535E+02 -0.10089099253E+02 -0.28937118465E+02  0.36820914385E+02  0.00000000000E+00 0. -1.
         11    1    4    4    0    0 -0.44089514102E+01  0.49495484712E+00 -0.13721779690E+01  0.46439967138E+01  0.51100000000E-03 0. -1.
        -11    1    4    4    0    0  0.50590638783E+01 -0.69838926742E+01 -0.15173802079E+01  0.87562164869E+01  0.51100000000E-03 0.  1.
        -12    1    4    4    0    0  0.19761477067E+02  0.16578037081E+02  0.31826676642E+02  0.40966872414E+02  0.00000000000E+00 0.  1.
</event>
<event>
 8    1  0.1238315E-006  0.9118800E+02  0.7816164E-02  0.1184000E+00
        -11   -1    0    0    0    0  0.00000000000E+00  0.00000000000E+00  0.45593999997E+02  0.45594000000E+02  0.51100000000E-03 0. -1.
         11   -1    0    0    0    0 -0.00000000000E+00 -0.00000000000E+00 -0.45593999997E+02  0.45594000000E+02  0.51100000000E-03 0.  1.
         23    2    1    2    0    0  0.71054273576E-14 -0.21371793224E-14  0.13322676296E-14  0.91188000000E+02  0.91188000000E+02 0.  0.
    9900012    2    3    3    0    0  0.36645329304E+02 -0.13313823410E+00  0.35892691408E+01  0.54367072003E+02  0.39999972245E+02 0.  0.
        -12    1    3    3    0    0 -0.36645329304E+02  0.13313823410E+00 -0.35892691408E+01  0.36820927997E+02  0.00000000000E+00 0.  1.
         11    1    4    4    0    0  0.65057075613E+01 -0.14508575334E+02  0.68593711769E+01  0.17316869299E+02  0.51100000000E-03 0. -1.
        -11    1    4    4    0    0  0.84040226987E+01  0.62950686913E+01 -0.82245414499E+01  0.13337862260E+02  0.51100000000E-03 0.  1.
        -12    1    4    4    0    0  0.21735599044E+02  0.80803684088E+01  0.49544394138E+01  0.23712340444E+02  0.00000000000E+00 0.  1.
</event>
<event>
 8    1  0.1238315E-006  0.9118800E+02  0.7816164E-02  0.1184000E+00
        -11   -1    0    0    0    0  0.00000000000E+00  0.00000000000E+00  0.45593999997E+02  0.45594000000E+02  0.51100000000E-03 0.  1.
         11   -1    0    0    0    0 -0.00000000000E+00 -0.00000000000E+00 -0.45593999997E+02  0.45594000000E+02  0.51100000000E-03 0. -1.
         23    2    1    2    0    0  0.00000000000E+00 -0.71054273576E-14  0.17763568394E-14  0.91188000000E+02  0.91188000000E+02 0.  0.
    9900012    2    3    3    0    0  0.16755242719E+02 -0.31802752395E+02  0.79766370600E+01  0.54367082612E+02  0.39999996431E+02 0.  0.
         12    1    3    3    0    0 -0.16755242719E+02  0.31802752395E+02 -0.79766370600E+01  0.36820917388E+02  0.00000000000E+00 0. -1.
         11    1    4    4    0    0  0.33310723175E+00 -0.25217240488E+02 -0.64656267637E+01  0.26035063049E+02  0.51100000000E-03 0. -1.
        -11    1    4    4    0    0  0.12533491685E+02 -0.11201878222E+02  0.57831876703E+01  0.17776831816E+02  0.51100000000E-03 0.  1.
        -12    1    4    4    0    0  0.38886438018E+01  0.46163663138E+01  0.86590761534E+01  0.10555187748E+02  0.00000000000E+00 0.  1.
</event>
<event>
 8    1  0.1238315E-006  0.9118800E+02  0.7816164E-02  0.1184000E+00
        -11   -1    0    0    0    0  0.00000000000E+00  0.00000000000E+00  0.45593999997E+02  0.45594000000E+02  0.51100000000E-03 0.  1.
         11   -1    0    0    0    0 -0.00000000000E+00 -0.00000000000E+00 -0.45593999997E+02  0.45594000000E+02  0.51100000000E-03 0. -1.
         23    2    1    2    0    0  0.00000000000E+00  0.00000000000E+00  0.00000000000E+00  0.91188000000E+02  0.91188000000E+02 0.  0.
    9900012    2    3    3    0    0  0.20701500940E+02  0.62064141935E+01  0.29811213042E+02  0.54367080113E+02  0.39999990733E+02 0.  0.
         12    1    3    3    0    0 -0.20701500940E+02 -0.62064141935E+01 -0.29811213042E+02  0.36820919887E+02  0.00000000000E+00 0. -1.
         11    1    4    4    0    0 -0.56351576743E+01  0.19170770735E+01  0.69346395680E+01  0.91388955962E+01  0.51100000000E-03 0. -1.
        -11    1    4    4    0    0  0.25436527700E+02  0.10583524104E+02  0.26229858502E+02  0.38039892235E+02  0.51100000000E-03 0.  1.
        -12    1    4    4    0    0  0.90013091418E+00 -0.62941869839E+01 -0.33532850286E+01  0.71882922822E+01  0.00000000000E+00 0.  1.
</event>
<event>
 8    1  0.1238315E-006  0.9118800E+02  0.7816164E-02  0.1184000E+00
        -11   -1    0    0    0    0  0.00000000000E+00  0.00000000000E+00  0.45593999997E+02  0.45594000000E+02  0.51100000000E-03 0.  1.
         11   -1    0    0    0    0 -0.00000000000E+00 -0.00000000000E+00 -0.45593999997E+02  0.45594000000E+02  0.51100000000E-03 0. -1.
         23    2    1    2    0    0 -0.88817841970E-15 -0.35527136788E-14  0.00000000000E+00  0.91188000000E+02  0.91188000000E+02 0.  0.
    9900012    2    3    3    0    0  0.49777890895E+01 -0.31752292791E+02  0.17966392786E+02  0.54367112566E+02  0.40000064717E+02 0.  0.
        -12    1    3    3    0    0 -0.49777890895E+01  0.31752292791E+02 -0.17966392786E+02  0.36820887434E+02  0.00000000000E+00 0.  1.
         11    1    4    4    0    0  0.96107521303E+01 -0.16260529863E+02 -0.43952044894E+00  0.18893505932E+02  0.51100000000E-03 0. -1.
        -11    1    4    4    0    0 -0.42841001233E+01 -0.27855995051E+01  0.21740129683E+02  0.22332628984E+02  0.51100000000E-03 0.  1.
        -12    1    4    4    0    0 -0.34886291752E+00 -0.12706163423E+02 -0.33342164479E+01  0.13140977649E+02  0.00000000000E+00 0.  1.
</event>
<event>
 8    1  0.1238315E-006  0.9118800E+02  0.7816164E-02  0.1184000E+00
        -11   -1    0    0    0    0  0.00000000000E+00  0.00000000000E+00  0.45593999997E+02  0.45594000000E+02  0.51100000000E-03 0. -1.
         11   -1    0    0    0    0 -0.00000000000E+00 -0.00000000000E+00 -0.45593999997E+02  0.45594000000E+02  0.51100000000E-03 0.  1.
         23    2    1    2    0    0  0.00000000000E+00  0.00000000000E+00  0.00000000000E+00  0.91188000000E+02  0.91188000000E+02 0.  0.
    9900012    2    3    3    0    0 -0.11431396503E+02  0.23689413589E+02 -0.25766559116E+02  0.54367072379E+02  0.39999973103E+02 0.  0.
         12    1    3    3    0    0  0.11431396503E+02 -0.23689413589E+02  0.25766559116E+02  0.36820927621E+02  0.00000000000E+00 0. -1.
         11    1    4    4    0    0 -0.12718540526E+01  0.19120596278E+01  0.36199867527E+01  0.42869440283E+01  0.51100000000E-03 0. -1.
        -11    1    4    4    0    0 -0.12173201008E+02  0.28650864142E+02 -0.29541968552E+02  0.42916042980E+02  0.51100000000E-03 0.  1.
        -12    1    4    4    0    0  0.20136585575E+01 -0.68735101809E+01  0.15542268327E+00  0.71640853711E+01  0.00000000000E+00 0.  1.
</event>
<event>
 8    1  0.1238315E-006  0.9118800E+02  0.7816164E-02  0.1184000E+00
        -11   -1    0    0    0    0  0.00000000000E+00  0.00000000000E+00  0.45593999997E+02  0.45594000000E+02  0.51100000000E-03 0.  1.
         11   -1    0    0    0    0 -0.00000000000E+00 -0.00000000000E+00 -0.45593999997E+02  0.45594000000E+02  0.51100000000E-03 0. -1.
         23    2    1    2    0    0 -0.22204460493E-15 -0.17763568394E-14  0.00000000000E+00  0.91188000000E+02  0.91188000000E+02 0.  0.
    9900012    2    3    3    0    0 -0.18626591452E+01  0.15148808024E+02 -0.33508592981E+02  0.54367059121E+02  0.39999942878E+02 0.  0.
        -12    1    3    3    0    0  0.18626591452E+01 -0.15148808024E+02  0.33508592981E+02  0.36820940879E+02  0.00000000000E+00 0.  1.
         11    1    4    4    0    0 -0.61004416656E+01  0.58982926962E+01 -0.14527280708E+02  0.16824004585E+02  0.51100000000E-03 0. -1.
        -11    1    4    4    0    0  0.13462890114E+02 -0.58612454824E+01 -0.83622450669E+01  0.16897655212E+02  0.51100000000E-03 0.  1.
         12    1    4    4    0    0 -0.92251075940E+01  0.15111760811E+02 -0.10619067206E+02  0.20645399324E+02  0.00000000000E+00 0. -1.
</event>
<event>
 8    1  0.1238315E-006  0.9118800E+02  0.7816164E-02  0.1184000E+00
        -11   -1    0    0    0    0  0.00000000000E+00  0.00000000000E+00  0.45593999997E+02  0.45594000000E+02  0.51100000000E-03 0. -1.
         11   -1    0    0    0    0 -0.00000000000E+00 -0.00000000000E+00 -0.45593999997E+02  0.45594000000E+02  0.51100000000E-03 0.  1.
         23    2    1    2    0    0  0.00000000000E+00 -0.17763568394E-14 -0.35527136788E-14  0.91188000000E+02  0.91188000000E+02 0.  0.
    9900012    2    3    3    0    0 -0.26477162608E+02  0.89445840551E+01 -0.23973598441E+02  0.54367093630E+02  0.40000021549E+02 0.  0.
         12    1    3    3    0    0  0.26477162608E+02 -0.89445840551E+01  0.23973598441E+02  0.36820906370E+02  0.00000000000E+00 0. -1.
         11    1    4    4    0    0 -0.13888762833E+02 -0.72195758144E+01  0.50871310065E+00  0.15661379162E+02  0.51100000000E-03 0. -1.
        -11    1    4    4    0    0 -0.31805896905E+01 -0.54286404076E+01 -0.67194628750E+01  0.92052957065E+01  0.51100000000E-03 0.  1.
         12    1    4    4    0    0 -0.94078100844E+01  0.21592800277E+02 -0.17762848666E+02  0.29500418762E+02  0.00000000000E+00 0. -1.
</event>
<event>
 8    1  0.1238315E-006  0.9118800E+02  0.7816164E-02  0.1184000E+00
        -11   -1    0    0    0    0  0.00000000000E+00  0.00000000000E+00  0.45593999997E+02  0.45594000000E+02  0.51100000000E-03 0.  1.
         11   -1    0    0    0    0 -0.00000000000E+00 -0.00000000000E+00 -0.45593999997E+02  0.45594000000E+02  0.51100000000E-03 0. -1.
         23    2    1    2    0    0 -0.16653345369E-15 -0.35527136788E-14 -0.35527136788E-14  0.91188000000E+02  0.91188000000E+02 0.  0.
    9900012    2    3    3    0    0 -0.37886375360E+00  0.19248796505E+02 -0.31386619170E+02  0.54367087905E+02  0.40000008497E+02 0.  0.
        -12    1    3    3    0    0  0.37886375360E+00 -0.19248796505E+02  0.31386619170E+02  0.36820912095E+02  0.00000000000E+00 0.  1.
         11    1    4    4    0    0  0.85715765614E+00  0.16380171955E+02 -0.70985017735E+01  0.17872702096E+02  0.51100000000E-03 0. -1.
        -11    1    4    4    0    0  0.10144099194E+02  0.54688351511E+01 -0.21650636769E+02  0.24526740084E+02  0.51100000000E-03 0.  1.
        -12    1    4    4    0    0 -0.11380120604E+02 -0.26002106019E+01 -0.26374806271E+01  0.11967645725E+02  0.00000000000E+00 0.  1.
</event>
<event>
 8    1  0.1238315E-006  0.9118800E+02  0.7816164E-02  0.1184000E+00
        -11   -1    0    0    0    0  0.00000000000E+00  0.00000000000E+00  0.45593999997E+02  0.45594000000E+02  0.51100000000E-03 0. -1.
         11   -1    0    0    0    0 -0.00000000000E+00 -0.00000000000E+00 -0.45593999997E+02  0.45594000000E+02  0.51100000000E-03 0.  1.
         23    2    1    2    0    0  0.00000000000E+00  0.00000000000E+00 -0.35527136788E-14  0.91188000000E+02  0.91188000000E+02 0.  0.
    9900012    2    3    3    0    0  0.21462132969E+02  0.22312599772E+02 -0.19932545162E+02  0.54367060077E+02  0.39999945058E+02 0.  0.
         12    1    3    3    0    0 -0.21462132969E+02 -0.22312599772E+02  0.19932545162E+02  0.36820939923E+02  0.00000000000E+00 0. -1.
         11    1    4    4    0    0  0.21143262776E+02  0.20139677990E+02 -0.50367140442E+00  0.29204415343E+02  0.51100000000E-03 0. -1.
        -11    1    4    4    0    0  0.14955051228E+00  0.89483927336E+01 -0.13262479611E+02  0.15999670733E+02  0.51100000000E-03 0.  1.
         12    1    4    4    0    0  0.16931968042E+00 -0.67754709517E+01 -0.61663941465E+01  0.91629740009E+01  0.00000000000E+00 0. -1.
</event>
<event>
 8    1  0.1238315E-006  0.9118800E+02  0.7816164E-02  0.1184000E+00
        -11   -1    0    0    0    0  0.00000000000E+00  0.00000000000E+00  0.45593999997E+02  0.45594000000E+02  0.51100000000E-03 0.  1.
         11   -1    0    0    0    0 -0.00000000000E+00 -0.00000000000E+00 -0.45593999997E+02  0.45594000000E+02  0.51100000000E-03 0. -1.
         23    2    1    2    0    0  0.00000000000E+00  0.35527136788E-14 -0.44408920985E-15  0.91188000000E+02  0.91188000000E+02 0.  0.
    9900012    2    3    3    0    0  0.25338563559E+02 -0.26596645948E+02 -0.25207569121E+01  0.54367101120E+02  0.40000038624E+02 0.  0.
         12    1    3    3    0    0 -0.25338563559E+02  0.26596645948E+02  0.25207569121E+01  0.36820898880E+02  0.00000000000E+00 0. -1.
         11    1    4    4    0    0  0.18749664111E+02 -0.96327375252E+01  0.66695354229E+00  0.21089911422E+02  0.51100000000E-03 0. -1.
        -11    1    4    4    0    0  0.95206791125E+01 -0.12113691286E+01  0.89910897724E+01  0.13151062371E+02  0.51100000000E-03 0.  1.
         12    1    4    4    0    0 -0.29317796650E+01 -0.15752539294E+02 -0.12178800227E+02  0.20126127327E+02  0.00000000000E+00 0. -1.
</event>
<event>
 8    1  0.1238315E-006  0.9118800E+02  0.7816164E-02  0.1184000E+00
        -11   -1    0    0    0    0  0.00000000000E+00  0.00000000000E+00  0.45593999997E+02  0.45594000000E+02  0.51100000000E-03 0. -1.
         11   -1    0    0    0    0 -0.00000000000E+00 -0.00000000000E+00 -0.45593999997E+02  0.45594000000E+02  0.51100000000E-03 0.  1.
         23    2    1    2    0    0  0.35527136788E-14 -0.35527136788E-14  0.35527136788E-14  0.91188000000E+02  0.91188000000E+02 0.  0.
    9900012    2    3    3    0    0 -0.21922679959E+02  0.16460701322E+02 -0.24580891921E+02  0.54367097890E+02  0.40000031259E+02 0.  0.
         12    1    3    3    0    0  0.21922679959E+02 -0.16460701322E+02  0.24580891921E+02  0.36820902110E+02  0.00000000000E+00 0. -1.
         11    1    4    4    0    0 -0.27180221373E+01  0.42374577409E+01 -0.58472300175E+01  0.77158143824E+01  0.51100000000E-03 0. -1.
        -11    1    4    4    0    0 -0.13778352997E+02  0.16702670374E+02 -0.27760472059E+02  0.35206050874E+02  0.51100000000E-03 0.  1.
         12    1    4    4    0    0 -0.54263048244E+01 -0.44794267935E+01  0.90268101556E+01  0.11445232633E+02  0.00000000000E+00 0. -1.
</event>
<event>
 8    1  0.1238315E-006  0.9118800E+02  0.7816164E-02  0.1184000E+00
        -11   -1    0    0    0    0  0.00000000000E+00  0.00000000000E+00  0.45593999997E+02  0.45594000000E+02  0.51100000000E-03 0. -1.
         11   -1    0    0    0    0 -0.00000000000E+00 -0.00000000000E+00 -0.45593999997E+02  0.45594000000E+02  0.51100000000E-03 0.  1.
         23    2    1    2    0    0  0.00000000000E+00  0.00000000000E+00 -0.88817841970E-15  0.91188000000E+02  0.91188000000E+02 0.  0.
    9900012    2    3    3    0    0 -0.23428321762E+02 -0.28334155170E+02  0.20172893354E+01  0.54367081135E+02  0.39999993063E+02 0.  0.
        -12    1    3    3    0    0  0.23428321762E+02  0.28334155170E+02 -0.20172893354E+01  0.36820918865E+02  0.00000000000E+00 0.  1.
         11    1    4    4    0    0 -0.16976014405E+02 -0.20186223311E+02  0.14696594452E+02  0.30193684197E+02  0.51100000000E-03 0. -1.
        -11    1    4    4    0    0  0.22374747910E+01 -0.78285821080E+01  0.74796940097E+00  0.81763347380E+01  0.51100000000E-03 0.  1.
        -12    1    4    4    0    0 -0.86897821483E+01 -0.31934975139E+00 -0.13427274518E+02  0.15997062200E+02  0.00000000000E+00 0.  1.
</event>
<event>
 8    1  0.1238315E-006  0.9118800E+02  0.7816164E-02  0.1184000E+00
        -11   -1    0    0    0    0  0.00000000000E+00  0.00000000000E+00  0.45593999997E+02  0.45594000000E+02  0.51100000000E-03 0.  1.
         11   -1    0    0    0    0 -0.00000000000E+00 -0.00000000000E+00 -0.45593999997E+02  0.45594000000E+02  0.51100000000E-03 0. -1.
         23    2    1    2    0    0  0.00000000000E+00 -0.10547118734E-14 -0.88817841970E-15  0.91188000000E+02  0.91188000000E+02 0.  0.
    9900012    2    3    3    0    0  0.36467560729E+02  0.35235286112E+00  0.50767675794E+01  0.54367072430E+02  0.39999973220E+02 0.  0.
        -12    1    3    3    0    0 -0.36467560729E+02 -0.35235286112E+00 -0.50767675794E+01  0.36820927570E+02  0.00000000000E+00 0.  1.
         11    1    4    4    0    0  0.69833223453E+01  0.13267163249E+02  0.10792954450E+00  0.14993200482E+02  0.51100000000E-03 0. -1.
        -11    1    4    4    0    0  0.12967305432E+02 -0.13239347175E+02  0.11273549182E+02  0.21691570603E+02  0.51100000000E-03 0.  1.
         12    1    4    4    0    0  0.16516932951E+02  0.32453678746E+00 -0.63047111467E+01  0.17682301345E+02  0.00000000000E+00 0. -1.
</event>
<event>
 8    1  0.1238315E-006  0.9118800E+02  0.7816164E-02  0.1184000E+00
        -11   -1    0    0    0    0  0.00000000000E+00  0.00000000000E+00  0.45593999997E+02  0.45594000000E+02  0.51100000000E-03 0.  1.
         11   -1    0    0    0    0 -0.00000000000E+00 -0.00000000000E+00 -0.45593999997E+02  0.45594000000E+02  0.51100000000E-03 0. -1.
         23    2    1    2    0    0 -0.17763568394E-14 -0.35527136788E-14  0.35527136788E-14  0.91188000000E+02  0.91188000000E+02 0.  0.
    9900012    2    3    3    0    0  0.13392985255E+02  0.15644386759E+02 -0.30523114822E+02  0.54367089778E+02  0.40000012767E+02 0.  0.
        -12    1    3    3    0    0 -0.13392985255E+02 -0.15644386759E+02  0.30523114822E+02  0.36820910222E+02  0.00000000000E+00 0.  1.
         11    1    4    4    0    0 -0.98773157788E+00  0.19171058057E+01 -0.61042618866E+01  0.64740189821E+01  0.51100000000E-03 0. -1.
        -11    1    4    4    0    0 -0.11379799260E+02  0.11790294310E+01 -0.22393280032E+01  0.11657809904E+02  0.51100000000E-03 0.  1.
         12    1    4    4    0    0  0.25760516093E+02  0.12548251522E+02 -0.22179524933E+02  0.36235260892E+02  0.00000000000E+00 0. -1.
</event>
<event>
 8    1  0.1238315E-006  0.9118800E+02  0.7816164E-02  0.1184000E+00
        -11   -1    0    0    0    0  0.00000000000E+00  0.00000000000E+00  0.45593999997E+02  0.45594000000E+02  0.51100000000E-03 0. -1.
         11   -1    0    0    0    0 -0.00000000000E+00 -0.00000000000E+00 -0.45593999997E+02  0.45594000000E+02  0.51100000000E-03 0.  1.
         23    2    1    2    0    0  0.00000000000E+00  0.00000000000E+00  0.00000000000E+00  0.91188000000E+02  0.91188000000E+02 0.  0.
    9900012    2    3    3    0    0  0.29686334856E+02 -0.19635649382E+01  0.21694342656E+02  0.54367101481E+02  0.40000039447E+02 0.  0.
        -12    1    3    3    0    0 -0.29686334856E+02  0.19635649382E+01 -0.21694342656E+02  0.36820898519E+02  0.00000000000E+00 0.  1.
         11    1    4    4    0    0  0.10026611084E+02  0.16188143741E+00  0.61714465410E+01  0.11774798856E+02  0.51100000000E-03 0. -1.
        -11    1    4    4    0    0  0.25718111919E+00  0.78715964921E+01  0.18928515562E+02  0.20501631035E+02  0.51100000000E-03 0.  1.
         12    1    4    4    0    0  0.19402542653E+02 -0.99970428677E+01 -0.34056194470E+01  0.22090671591E+02  0.00000000000E+00 0. -1.
</event>
<event>
 8    1  0.1238315E-006  0.9118800E+02  0.7816164E-02  0.1184000E+00
        -11   -1    0    0    0    0  0.00000000000E+00  0.00000000000E+00  0.45593999997E+02  0.45594000000E+02  0.51100000000E-03 0. -1.
         11   -1    0    0    0    0 -0.00000000000E+00 -0.00000000000E+00 -0.45593999997E+02  0.45594000000E+02  0.51100000000E-03 0.  1.
         23    2    1    2    0    0 -0.17763568394E-14  0.71054273576E-14 -0.88817841970E-15  0.91188000000E+02  0.91188000000E+02 0.  0.
    9900012    2    3    3    0    0 -0.12045408809E+02  0.34551292404E+02 -0.41104695145E+01  0.54367086923E+02  0.40000006259E+02 0.  0.
         12    1    3    3    0    0  0.12045408809E+02 -0.34551292404E+02  0.41104695145E+01  0.36820913077E+02  0.00000000000E+00 0. -1.
         11    1    4    4    0    0 -0.90656363408E+01  0.55722952462E+01  0.11146405434E+02  0.15410340390E+02  0.51100000000E-03 0. -1.
        -11    1    4    4    0    0 -0.95618372513E+01  0.11083261036E+02 -0.13319428697E+02  0.19790770270E+02  0.51100000000E-03 0.  1.
        -12    1    4    4    0    0  0.65820647829E+01  0.17895736122E+02 -0.19374462515E+01  0.19165976264E+02  0.00000000000E+00 0.  1.
</event>
<event>
 8    1  0.1238315E-006  0.9118800E+02  0.7816164E-02  0.1184000E+00
        -11   -1    0    0    0    0  0.00000000000E+00  0.00000000000E+00  0.45593999997E+02  0.45594000000E+02  0.51100000000E-03 0.  1.
         11   -1    0    0    0    0 -0.00000000000E+00 -0.00000000000E+00 -0.45593999997E+02  0.45594000000E+02  0.51100000000E-03 0. -1.
         23    2    1    2    0    0 -0.35527136788E-14 -0.11102230246E-14  0.00000000000E+00  0.91188000000E+02  0.91188000000E+02 0.  0.
    9900012    2    3    3    0    0  0.14404942787E+02  0.62542075092E+00 -0.33880467997E+02  0.54367086927E+02  0.40000006267E+02 0.  0.
        -12    1    3    3    0    0 -0.14404942787E+02 -0.62542075092E+00  0.33880467997E+02  0.36820913073E+02  0.00000000000E+00 0.  1.
         11    1    4    4    0    0  0.32556781925E+01  0.14495795436E+02 -0.26541541861E+02  0.30416787642E+02  0.51100000000E-03 0.  1.
        -11    1    4    4    0    0  0.55931649287E+01  0.10799216273E+01 -0.54601337386E+01  0.78906771158E+01  0.51100000000E-03 0. -1.
        -12    1    4    4    0    0  0.55560996661E+01 -0.14950296313E+02 -0.18787923973E+01  0.16059622169E+02  0.00000000000E+00 0.  1.
</event>
<event>
 8    1  0.1238315E-006  0.9118800E+02  0.7816164E-02  0.1184000E+00
        -11   -1    0    0    0    0  0.00000000000E+00  0.00000000000E+00  0.45593999997E+02  0.45594000000E+02  0.51100000000E-03 0.  1.
         11   -1    0    0    0    0 -0.00000000000E+00 -0.00000000000E+00 -0.45593999997E+02  0.45594000000E+02  0.51100000000E-03 0. -1.
         23    2    1    2    0    0  0.00000000000E+00  0.00000000000E+00  0.00000000000E+00  0.91188000000E+02  0.91188000000E+02 0.  0.
    9900012    2    3    3    0    0  0.23915786366E+02  0.22107639721E+02  0.17177513043E+02  0.54367088471E+02  0.40000009787E+02 0.  0.
         12    1    3    3    0    0 -0.23915786366E+02 -0.22107639721E+02 -0.17177513043E+02  0.36820911529E+02  0.00000000000E+00 0. -1.
         11    1    4    4    0    0  0.13331370598E+02  0.11569376844E+02  0.89587699692E+01  0.19794834735E+02  0.51100000000E-03 0. -1.
        -11    1    4    4    0    0 -0.33659038803E+01  0.48633385770E+01  0.16399455342E+02  0.17433402044E+02  0.51100000000E-03 0.  1.
         12    1    4    4    0    0  0.13950319648E+02  0.56749242993E+01 -0.81807122682E+01  0.17138851692E+02  0.00000000000E+00 0. -1.
</event>
<event>
 8    1  0.1238315E-006  0.9118800E+02  0.7816164E-02  0.1184000E+00
        -11   -1    0    0    0    0  0.00000000000E+00  0.00000000000E+00  0.45593999997E+02  0.45594000000E+02  0.51100000000E-03 0.  1.
         11   -1    0    0    0    0 -0.00000000000E+00 -0.00000000000E+00 -0.45593999997E+02  0.45594000000E+02  0.51100000000E-03 0. -1.
         23    2    1    2    0    0 -0.88817841970E-15  0.00000000000E+00  0.00000000000E+00  0.91188000000E+02  0.91188000000E+02 0.  0.
    9900012    2    3    3    0    0  0.64899427383E+01  0.34543286292E+02 -0.10973772376E+02  0.54367059426E+02  0.39999943574E+02 0.  0.
        -12    1    3    3    0    0 -0.64899427383E+01 -0.34543286292E+02  0.10973772376E+02  0.36820940574E+02  0.00000000000E+00 0.  1.
         11    1    4    4    0    0  0.18553623611E+01  0.40685246920E+02 -0.15063536811E+02  0.43423977569E+02  0.51100000000E-03 0. -1.
        -11    1    4    4    0    0  0.45025917617E+01 -0.22680136144E+01  0.48470013432E+01  0.69936142737E+01  0.51100000000E-03 0.  1.
         12    1    4    4    0    0  0.13198861550E+00 -0.38739470136E+01 -0.75723690768E+00  0.39494675835E+01  0.00000000000E+00 0. -1.
</event>
<event>
 8    1  0.1238315E-006  0.9118800E+02  0.7816164E-02  0.1184000E+00
        -11   -1    0    0    0    0  0.00000000000E+00  0.00000000000E+00  0.45593999997E+02  0.45594000000E+02  0.51100000000E-03 0.  1.
         11   -1    0    0    0    0 -0.00000000000E+00 -0.00000000000E+00 -0.45593999997E+02  0.45594000000E+02  0.51100000000E-03 0. -1.
         23    2    1    2    0    0  0.00000000000E+00 -0.88817841970E-15  0.00000000000E+00  0.91188000000E+02  0.91188000000E+02 0.  0.
    9900012    2    3    3    0    0 -0.13416944785E+02  0.67397747278E+01 -0.33620546194E+02  0.54367080713E+02  0.39999992101E+02 0.  0.
        -12    1    3    3    0    0  0.13416944785E+02 -0.67397747278E+01  0.33620546194E+02  0.36820919287E+02  0.00000000000E+00 0.  1.
         11    1    4    4    0    0  0.48691068857E+00  0.15416506681E+02 -0.16070820653E+02  0.22275031695E+02  0.51100000000E-03 0. -1.
        -11    1    4    4    0    0 -0.66983138222E+01  0.69168015195E+01 -0.73598058649E+01  0.12119253028E+02  0.51100000000E-03 0.  1.
        -12    1    4    4    0    0 -0.72055416513E+01 -0.15593533473E+02 -0.10189919677E+02  0.19972795991E+02  0.00000000000E+00 0.  1.
</event>
<event>
 8    1  0.1238315E-006  0.9118800E+02  0.7816164E-02  0.1184000E+00
        -11   -1    0    0    0    0  0.00000000000E+00  0.00000000000E+00  0.45593999997E+02  0.45594000000E+02  0.51100000000E-03 0. -1.
         11   -1    0    0    0    0 -0.00000000000E+00 -0.00000000000E+00 -0.45593999997E+02  0.45594000000E+02  0.51100000000E-03 0.  1.
         23    2    1    2    0    0  0.00000000000E+00  0.17763568394E-14  0.00000000000E+00  0.91188000000E+02  0.91188000000E+02 0.  0.
    9900012    2    3    3    0    0 -0.11799683000E+02  0.44488525898E+01 -0.34594151027E+02  0.54367080762E+02  0.39999992213E+02 0.  0.
         12    1    3    3    0    0  0.11799683000E+02 -0.44488525898E+01  0.34594151027E+02  0.36820919238E+02  0.00000000000E+00 0. -1.
         11    1    4    4    0    0 -0.47150735019E+01  0.11896778879E+02 -0.70266481465E+00  0.12816356889E+02  0.51100000000E-03 0. -1.
        -11    1    4    4    0    0 -0.82610995205E+01  0.28922158366E+01 -0.28533049565E+02  0.29845361373E+02  0.51100000000E-03 0.  1.
        -12    1    4    4    0    0  0.11764900228E+01 -0.10340142125E+02 -0.53584366474E+01  0.11705362500E+02  0.00000000000E+00 0.  1.
</event>
<event>
 8    1  0.1238315E-006  0.9118800E+02  0.7816164E-02  0.1184000E+00
        -11   -1    0    0    0    0  0.00000000000E+00  0.00000000000E+00  0.45593999997E+02  0.45594000000E+02  0.51100000000E-03 0.  1.
         11   -1    0    0    0    0 -0.00000000000E+00 -0.00000000000E+00 -0.45593999997E+02  0.45594000000E+02  0.51100000000E-03 0. -1.
         23    2    1    2    0    0 -0.11102230246E-15  0.00000000000E+00  0.00000000000E+00  0.91188000000E+02  0.91188000000E+02 0.  0.
    9900012    2    3    3    0    0  0.97646053400E+00  0.32965812348E+02  0.16373261389E+02  0.54367055587E+02  0.39999934822E+02 0.  0.
         12    1    3    3    0    0 -0.97646053400E+00 -0.32965812348E+02 -0.16373261389E+02  0.36820944413E+02  0.00000000000E+00 0. -1.
         11    1    4    4    0    0 -0.93019933714E+01 -0.39003932797E+01  0.14342181304E+01  0.10188087668E+02  0.51100000000E-03 0. -1.
        -11    1    4    4    0    0  0.21900555539E+01  0.24186567646E+02  0.16031179511E+02  0.29099572413E+02  0.51100000000E-03 0.  1.
         12    1    4    4    0    0  0.80883983515E+01  0.12679637982E+02 -0.10921362528E+01  0.15079395506E+02  0.00000000000E+00 0. -1.
</event>
<event>
 8    1  0.1238315E-006  0.9118800E+02  0.7816164E-02  0.1184000E+00
        -11   -1    0    0    0    0  0.00000000000E+00  0.00000000000E+00  0.45593999997E+02  0.45594000000E+02  0.51100000000E-03 0. -1.
         11   -1    0    0    0    0 -0.00000000000E+00 -0.00000000000E+00 -0.45593999997E+02  0.45594000000E+02  0.51100000000E-03 0.  1.
         23    2    1    2    0    0  0.00000000000E+00  0.00000000000E+00  0.35527136788E-14  0.91188000000E+02  0.91188000000E+02 0.  0.
    9900012    2    3    3    0    0  0.21791360203E+02 -0.12160239483E+02 -0.27074794044E+02  0.54367091860E+02  0.40000017512E+02 0.  0.
         12    1    3    3    0    0 -0.21791360203E+02  0.12160239483E+02  0.27074794044E+02  0.36820908140E+02  0.00000000000E+00 0. -1.
         11    1    4    4    0    0 -0.74297084048E+01 -0.41330053522E+01 -0.14892415715E+02  0.17148362788E+02  0.51100000000E-03 0. -1.
        -11    1    4    4    0    0  0.52402863492E+01  0.33189839041E+01  0.27391713772E+01  0.67808049133E+01  0.51100000000E-03 0.  1.
         12    1    4    4    0    0  0.23980782258E+02 -0.11346218035E+02 -0.14921549706E+02  0.30437924158E+02  0.00000000000E+00 0. -1.
</event>
<event>
 8    1  0.1238315E-006  0.9118800E+02  0.7816164E-02  0.1184000E+00
        -11   -1    0    0    0    0  0.00000000000E+00  0.00000000000E+00  0.45593999997E+02  0.45594000000E+02  0.51100000000E-03 0.  1.
         11   -1    0    0    0    0 -0.00000000000E+00 -0.00000000000E+00 -0.45593999997E+02  0.45594000000E+02  0.51100000000E-03 0. -1.
         23    2    1    2    0    0  0.00000000000E+00 -0.71054273576E-14  0.00000000000E+00  0.91188000000E+02  0.91188000000E+02 0.  0.
    9900012    2    3    3    0    0  0.92451106018E+01 -0.32035439763E+02 -0.15621740017E+02  0.54367078882E+02  0.39999987928E+02 0.  0.
        -12    1    3    3    0    0 -0.92451106018E+01  0.32035439763E+02  0.15621740017E+02  0.36820921118E+02  0.00000000000E+00 0.  1.
         11    1    4    4    0    0  0.47031355635E+01 -0.54208012235E+01  0.17812149413E+01  0.73944098454E+01  0.51100000000E-03 0. -1.
        -11    1    4    4    0    0 -0.11359819820E+02  0.13541678199E+01 -0.51339132444E+01  0.12539391623E+02  0.51100000000E-03 0.  1.
         12    1    4    4    0    0  0.15901794858E+02 -0.27968806359E+02 -0.12269041713E+02  0.34433277413E+02  0.00000000000E+00 0. -1.
</event>
<event>
 8    1  0.1238315E-006  0.9118800E+02  0.7816164E-02  0.1184000E+00
        -11   -1    0    0    0    0  0.00000000000E+00  0.00000000000E+00  0.45593999997E+02  0.45594000000E+02  0.51100000000E-03 0. -1.
         11   -1    0    0    0    0 -0.00000000000E+00 -0.00000000000E+00 -0.45593999997E+02  0.45594000000E+02  0.51100000000E-03 0.  1.
         23    2    1    2    0    0  0.00000000000E+00  0.17763568394E-14  0.00000000000E+00  0.91188000000E+02  0.91188000000E+02 0.  0.
    9900012    2    3    3    0    0 -0.20138334901E+02 -0.12971649834E+02  0.27963613416E+02  0.54367083291E+02  0.39999997979E+02 0.  0.
        -12    1    3    3    0    0  0.20138334901E+02  0.12971649834E+02 -0.27963613416E+02  0.36820916709E+02  0.00000000000E+00 0.  1.
         11    1    4    4    0    0 -0.11974044219E+01 -0.38271298998E+01  0.16656102897E+02  0.17132030370E+02  0.51100000000E-03 0.  1.
        -11    1    4    4    0    0 -0.31764133766E+01  0.86825524010E+01  0.96740831139E+01  0.13381487305E+02  0.51100000000E-03 0. -1.
        -12    1    4    4    0    0 -0.15764517103E+02 -0.17827072335E+02  0.16334274052E+01  0.23853565616E+02  0.00000000000E+00 0.  1.
</event>
<event>
 8    1  0.1238315E-006  0.9118800E+02  0.7816164E-02  0.1184000E+00
        -11   -1    0    0    0    0  0.00000000000E+00  0.00000000000E+00  0.45593999997E+02  0.45594000000E+02  0.51100000000E-03 0. -1.
         11   -1    0    0    0    0 -0.00000000000E+00 -0.00000000000E+00 -0.45593999997E+02  0.45594000000E+02  0.51100000000E-03 0.  1.
         23    2    1    2    0    0  0.00000000000E+00 -0.17763568394E-14  0.00000000000E+00  0.91188000000E+02  0.91188000000E+02 0.  0.
    9900012    2    3    3    0    0  0.17279604374E+02 -0.12127307771E+02  0.30168269386E+02  0.54367071184E+02  0.39999970379E+02 0.  0.
        -12    1    3    3    0    0 -0.17279604374E+02  0.12127307771E+02 -0.30168269386E+02  0.36820928816E+02  0.00000000000E+00 0.  1.
         11    1    4    4    0    0  0.51348844323E+01 -0.45871770936E+00 -0.14087696327E+01  0.53443514302E+01  0.51100000000E-03 0. -1.
        -11    1    4    4    0    0  0.70470254819E+01  0.11455330947E+02  0.82204401642E+01  0.15762639753E+02  0.51100000000E-03 0.  1.
        -12    1    4    4    0    0  0.50976944599E+01 -0.23123921008E+02  0.23356598855E+02  0.33260080001E+02  0.00000000000E+00 0.  1.
</event>
<event>
 8    1  0.1238315E-006  0.9118800E+02  0.7816164E-02  0.1184000E+00
        -11   -1    0    0    0    0  0.00000000000E+00  0.00000000000E+00  0.45593999997E+02  0.45594000000E+02  0.51100000000E-03 0.  1.
         11   -1    0    0    0    0 -0.00000000000E+00 -0.00000000000E+00 -0.45593999997E+02  0.45594000000E+02  0.51100000000E-03 0. -1.
         23    2    1    2    0    0  0.00000000000E+00 -0.17763568394E-14  0.00000000000E+00  0.91188000000E+02  0.91188000000E+02 0.  0.
    9900012    2    3    3    0    0  0.31196968150E+02  0.13092713871E+02 -0.14529601391E+02  0.54367091608E+02  0.40000016938E+02 0.  0.
        -12    1    3    3    0    0 -0.31196968150E+02 -0.13092713871E+02  0.14529601391E+02  0.36820908392E+02  0.00000000000E+00 0.  1.
         11    1    4    4    0    0 -0.15832410559E+01 -0.26178733726E+01  0.22895012871E+01  0.38212209621E+01  0.51100000000E-03 0. -1.
        -11    1    4    4    0    0  0.29842723961E+02  0.33671540368E+01 -0.71067227346E+00  0.30040488596E+02  0.51100000000E-03 0.  1.
        -12    1    4    4    0    0  0.29374852448E+01  0.12343433207E+02 -0.16108430405E+02  0.20505382050E+02  0.00000000000E+00 0.  1.
</event>
<event>
 8    1  0.1238315E-006  0.9118800E+02  0.7816164E-02  0.1184000E+00
        -11   -1    0    0    0    0  0.00000000000E+00  0.00000000000E+00  0.45593999997E+02  0.45594000000E+02  0.51100000000E-03 0.  1.
         11   -1    0    0    0    0 -0.00000000000E+00 -0.00000000000E+00 -0.45593999997E+02  0.45594000000E+02  0.51100000000E-03 0. -1.
         23    2    1    2    0    0  0.00000000000E+00  0.88817841970E-15 -0.10658141036E-13  0.91188000000E+02  0.91188000000E+02 0.  0.
    9900012    2    3    3    0    0  0.22863109010E+02  0.79012614835E+01 -0.27760198360E+02  0.54367077963E+02  0.39999985833E+02 0.  0.
        -12    1    3    3    0    0 -0.22863109010E+02 -0.79012614835E+01  0.27760198360E+02  0.36820922037E+02  0.00000000000E+00 0.  1.
         11    1    4    4    0    0 -0.66175619055E+00  0.15258410288E+01 -0.11681922297E+02  0.11799721222E+02  0.51100000000E-03 0. -1.
        -11    1    4    4    0    0 -0.43318229751E+01 -0.81461676138E+00  0.51757619344E+01  0.67982940962E+01  0.51100000000E-03 0.  1.
         12    1    4    4    0    0  0.27856688176E+02  0.71900372161E+01 -0.21254037997E+02  0.35769062645E+02  0.00000000000E+00 0. -1.
</event>
<event>
 8    1  0.1238315E-006  0.9118800E+02  0.7816164E-02  0.1184000E+00
        -11   -1    0    0    0    0  0.00000000000E+00  0.00000000000E+00  0.45593999997E+02  0.45594000000E+02  0.51100000000E-03 0. -1.
         11   -1    0    0    0    0 -0.00000000000E+00 -0.00000000000E+00 -0.45593999997E+02  0.45594000000E+02  0.51100000000E-03 0.  1.
         23    2    1    2    0    0  0.35527136788E-14 -0.35527136788E-14  0.00000000000E+00  0.91188000000E+02  0.91188000000E+02 0.  0.
    9900012    2    3    3    0    0  0.21243812639E+02  0.24890143359E+02  0.16880805504E+02  0.54367076514E+02  0.39999982530E+02 0.  0.
        -12    1    3    3    0    0 -0.21243812639E+02 -0.24890143359E+02 -0.16880805504E+02  0.36820923486E+02  0.00000000000E+00 0.  1.
         11    1    4    4    0    0  0.14667353395E+02  0.26237946697E+02  0.66989917301E+01  0.30796713996E+02  0.51100000000E-03 0. -1.
        -11    1    4    4    0    0  0.12345965195E+02  0.61593243843E+00  0.11982097668E+02  0.17215484139E+02  0.51100000000E-03 0.  1.
        -12    1    4    4    0    0 -0.57695059513E+01 -0.19637357756E+01 -0.18002838943E+01  0.63548783795E+01  0.00000000000E+00 0.  1.
</event>
<event>
 8    1  0.1238315E-006  0.9118800E+02  0.7816164E-02  0.1184000E+00
        -11   -1    0    0    0    0  0.00000000000E+00  0.00000000000E+00  0.45593999997E+02  0.45594000000E+02  0.51100000000E-03 0. -1.
         11   -1    0    0    0    0 -0.00000000000E+00 -0.00000000000E+00 -0.45593999997E+02  0.45594000000E+02  0.51100000000E-03 0.  1.
         23    2    1    2    0    0  0.00000000000E+00  0.00000000000E+00  0.17763568394E-14  0.91188000000E+02  0.91188000000E+02 0.  0.
    9900012    2    3    3    0    0  0.69147104518E+01  0.35281300594E+02 -0.79495880551E+01  0.54367090960E+02  0.40000015462E+02 0.  0.
        -12    1    3    3    0    0 -0.69147104518E+01 -0.35281300594E+02  0.79495880551E+01  0.36820909040E+02  0.00000000000E+00 0.  1.
         11    1    4    4    0    0  0.28898673926E+01  0.23994478949E+02  0.15694315581E+00  0.24168388134E+02  0.51100000000E-03 0. -1.
        -11    1    4    4    0    0  0.39775822473E+01  0.18796275528E+02 -0.11014313163E+02  0.22145794837E+02  0.51100000000E-03 0.  1.
        -12    1    4    4    0    0  0.47260811903E-01 -0.75094538824E+01  0.29077819523E+01  0.80529079890E+01  0.00000000000E+00 0.  1.
</event>
<event>
 8    1  0.1238315E-006  0.9118800E+02  0.7816164E-02  0.1184000E+00
        -11   -1    0    0    0    0  0.00000000000E+00  0.00000000000E+00  0.45593999997E+02  0.45594000000E+02  0.51100000000E-03 0. -1.
         11   -1    0    0    0    0 -0.00000000000E+00 -0.00000000000E+00 -0.45593999997E+02  0.45594000000E+02  0.51100000000E-03 0.  1.
         23    2    1    2    0    0 -0.71054273576E-14 -0.13322676296E-14  0.00000000000E+00  0.91188000000E+02  0.91188000000E+02 0.  0.
    9900012    2    3    3    0    0  0.35231652041E+02 -0.11655591331E+01  0.10637234200E+02  0.54367101245E+02  0.40000038909E+02 0.  0.
        -12    1    3    3    0    0 -0.35231652041E+02  0.11655591331E+01 -0.10637234200E+02  0.36820898755E+02  0.00000000000E+00 0.  1.
         11    1    4    4    0    0  0.95512291105E+01  0.14076402650E+02  0.70437889475E+01  0.18411573862E+02  0.51100000000E-03 0. -1.
        -11    1    4    4    0    0  0.20176813109E+02 -0.20032768570E+02  0.35935891725E+01  0.28658846579E+02  0.51100000000E-03 0.  1.
        -12    1    4    4    0    0  0.55036098222E+01  0.47908067875E+01 -0.14391967606E-03  0.72966808051E+01  0.00000000000E+00 0.  1.
</event>
<event>
 8    1  0.1238315E-006  0.9118800E+02  0.7816164E-02  0.1184000E+00
        -11   -1    0    0    0    0  0.00000000000E+00  0.00000000000E+00  0.45593999997E+02  0.45594000000E+02  0.51100000000E-03 0. -1.
         11   -1    0    0    0    0 -0.00000000000E+00 -0.00000000000E+00 -0.45593999997E+02  0.45594000000E+02  0.51100000000E-03 0.  1.
         23    2    1    2    0    0  0.35527136788E-14  0.00000000000E+00  0.17763568394E-14  0.91188000000E+02  0.91188000000E+02 0.  0.
    9900012    2    3    3    0    0 -0.26937289808E+02  0.22446395782E+02  0.11239284045E+02  0.54367085133E+02  0.40000002177E+02 0.  0.
        -12    1    3    3    0    0  0.26937289808E+02 -0.22446395782E+02 -0.11239284045E+02  0.36820914867E+02  0.00000000000E+00 0.  1.
         11    1    4    4    0    0 -0.22580675852E+02  0.33399617645E+01  0.89819734488E+01  0.24529943209E+02  0.51100000000E-03 0. -1.
        -11    1    4    4    0    0  0.43105032352E+01  0.29423975609E+01 -0.74417625729E+01  0.90894428872E+01  0.51100000000E-03 0.  1.
         12    1    4    4    0    0 -0.86671171907E+01  0.16164036457E+02  0.96990731693E+01  0.20747699037E+02  0.00000000000E+00 0. -1.
</event>
<event>
 8    1  0.1238315E-006  0.9118800E+02  0.7816164E-02  0.1184000E+00
        -11   -1    0    0    0    0  0.00000000000E+00  0.00000000000E+00  0.45593999997E+02  0.45594000000E+02  0.51100000000E-03 0. -1.
         11   -1    0    0    0    0 -0.00000000000E+00 -0.00000000000E+00 -0.45593999997E+02  0.45594000000E+02  0.51100000000E-03 0.  1.
         23    2    1    2    0    0  0.00000000000E+00  0.00000000000E+00  0.00000000000E+00  0.91188000000E+02  0.91188000000E+02 0.  0.
    9900012    2    3    3    0    0  0.21677663001E+02  0.14070918026E+02  0.26227236702E+02  0.54367085395E+02  0.40000002776E+02 0.  0.
        -12    1    3    3    0    0 -0.21677663001E+02 -0.14070918026E+02 -0.26227236702E+02  0.36820914605E+02  0.00000000000E+00 0.  1.
         11    1    4    4    0    0  0.12192140066E+01  0.12317771556E+02  0.14427235137E+02  0.19009447463E+02  0.51100000000E-03 0. -1.
        -11    1    4    4    0    0  0.13469917543E+02  0.61655302451E+01 -0.58037549943E+01  0.15910248713E+02  0.51100000000E-03 0.  1.
         12    1    4    4    0    0  0.69885314516E+01 -0.44123837755E+01  0.17603756560E+02  0.19447389219E+02  0.00000000000E+00 0. -1.
</event>
<event>
 8    1  0.1238315E-006  0.9118800E+02  0.7816164E-02  0.1184000E+00
        -11   -1    0    0    0    0  0.00000000000E+00  0.00000000000E+00  0.45593999997E+02  0.45594000000E+02  0.51100000000E-03 0.  1.
         11   -1    0    0    0    0 -0.00000000000E+00 -0.00000000000E+00 -0.45593999997E+02  0.45594000000E+02  0.51100000000E-03 0. -1.
         23    2    1    2    0    0 -0.28865798640E-14  0.00000000000E+00  0.00000000000E+00  0.91188000000E+02  0.91188000000E+02 0.  0.
    9900012    2    3    3    0    0  0.14361025285E+01  0.21857592149E+02 -0.29596671529E+02  0.54367086234E+02  0.40000004687E+02 0.  0.
        -12    1    3    3    0    0 -0.14361025285E+01 -0.21857592149E+02  0.29596671529E+02  0.36820913766E+02  0.00000000000E+00 0.  1.
         11    1    4    4    0    0 -0.13027422241E+02  0.84209398693E+01 -0.88608474806E+01  0.17864506063E+02  0.51100000000E-03 0. -1.
        -11    1    4    4    0    0 -0.61332770676E+01  0.36621618673E+01 -0.37181269603E+01  0.80531351339E+01  0.51100000000E-03 0.  1.
         12    1    4    4    0    0  0.20596801838E+02  0.97744904119E+01 -0.17017697088E+02  0.28449445037E+02  0.00000000000E+00 0. -1.
</event>
<event>
 8    1  0.1238315E-006  0.9118800E+02  0.7816164E-02  0.1184000E+00
        -11   -1    0    0    0    0  0.00000000000E+00  0.00000000000E+00  0.45593999997E+02  0.45594000000E+02  0.51100000000E-03 0.  1.
         11   -1    0    0    0    0 -0.00000000000E+00 -0.00000000000E+00 -0.45593999997E+02  0.45594000000E+02  0.51100000000E-03 0. -1.
         23    2    1    2    0    0  0.00000000000E+00  0.35527136788E-14  0.88817841970E-15  0.91188000000E+02  0.91188000000E+02 0.  0.
    9900012    2    3    3    0    0 -0.25894755193E+02 -0.26095055171E+02 -0.20706215198E+01  0.54367112934E+02  0.40000065555E+02 0.  0.
         12    1    3    3    0    0  0.25894755193E+02  0.26095055171E+02  0.20706215198E+01  0.36820887066E+02  0.00000000000E+00 0. -1.
         11    1    4    4    0    0 -0.18485350402E+02  0.44519221171E+01  0.26908528730E+01  0.19203345528E+02  0.51100000000E-03 0. -1.
        -11    1    4    4    0    0  0.22918757670E+01 -0.15939425408E+02  0.22864428214E+01  0.16264863907E+02  0.51100000000E-03 0.  1.
        -12    1    4    4    0    0 -0.97012805576E+01 -0.14607551880E+02 -0.70479172143E+01  0.18898903498E+02  0.00000000000E+00 0.  1.
</event>
<event>
 8    1  0.1238315E-006  0.9118800E+02  0.7816164E-02  0.1184000E+00
        -11   -1    0    0    0    0  0.00000000000E+00  0.00000000000E+00  0.45593999997E+02  0.45594000000E+02  0.51100000000E-03 0.  1.
         11   -1    0    0    0    0 -0.00000000000E+00 -0.00000000000E+00 -0.45593999997E+02  0.45594000000E+02  0.51100000000E-03 0. -1.
         23    2    1    2    0    0 -0.71054273576E-14  0.17763568394E-14  0.00000000000E+00  0.91188000000E+02  0.91188000000E+02 0.  0.
    9900012    2    3    3    0    0  0.35149280518E+02 -0.10891306198E+02 -0.12994951144E+01  0.54367066291E+02  0.39999959224E+02 0.  0.
        -12    1    3    3    0    0 -0.35149280518E+02  0.10891306198E+02  0.12994951144E+01  0.36820933709E+02  0.00000000000E+00 0.  1.
         11    1    4    4    0    0  0.15604676264E+02 -0.19506134417E+02  0.63609661782E+01  0.25777065236E+02  0.51100000000E-03 0. -1.
        -11    1    4    4    0    0 -0.31799686150E+01  0.22346103134E+01 -0.46486748167E+00  0.39143052617E+01  0.51100000000E-03 0.  1.
        -12    1    4    4    0    0  0.22724572869E+02  0.63802179060E+01 -0.71955938109E+01  0.24675695793E+02  0.00000000000E+00 0.  1.
</event>
<event>
 8    1  0.1238315E-006  0.9118800E+02  0.7816164E-02  0.1184000E+00
        -11   -1    0    0    0    0  0.00000000000E+00  0.00000000000E+00  0.45593999997E+02  0.45594000000E+02  0.51100000000E-03 0. -1.
         11   -1    0    0    0    0 -0.00000000000E+00 -0.00000000000E+00 -0.45593999997E+02  0.45594000000E+02  0.51100000000E-03 0.  1.
         23    2    1    2    0    0 -0.11102230246E-15  0.44408920985E-15 -0.71054273576E-14  0.91188000000E+02  0.91188000000E+02 0.  0.
    9900012    2    3    3    0    0  0.79611374721E+00  0.14254837091E+01 -0.36784701338E+02  0.54367081307E+02  0.39999993455E+02 0.  0.
         12    1    3    3    0    0 -0.79611374721E+00 -0.14254837091E+01  0.36784701338E+02  0.36820918693E+02  0.00000000000E+00 0. -1.
         11    1    4    4    0    0  0.36764236901E+01  0.90415484223E+01 -0.62129052858E+01  0.11570042410E+02  0.51100000000E-03 0. -1.
        -11    1    4    4    0    0 -0.13226794392E+02 -0.29582083486E+01 -0.43646086462E+01  0.14238992078E+02  0.51100000000E-03 0.  1.
         12    1    4    4    0    0  0.10346484449E+02 -0.46578563646E+01 -0.26207187406E+02  0.28558046818E+02  0.00000000000E+00 0. -1.
</event>
<event>
 8    1  0.1238315E-006  0.9118800E+02  0.7816164E-02  0.1184000E+00
        -11   -1    0    0    0    0  0.00000000000E+00  0.00000000000E+00  0.45593999997E+02  0.45594000000E+02  0.51100000000E-03 0.  1.
         11   -1    0    0    0    0 -0.00000000000E+00 -0.00000000000E+00 -0.45593999997E+02  0.45594000000E+02  0.51100000000E-03 0. -1.
         23    2    1    2    0    0  0.35527136788E-14 -0.88817841970E-15  0.35527136788E-14  0.91188000000E+02  0.91188000000E+02 0.  0.
    9900012    2    3    3    0    0 -0.30951608122E+02 -0.59960423584E+01 -0.19021708528E+02  0.54367082512E+02  0.39999996203E+02 0.  0.
         12    1    3    3    0    0  0.30951608122E+02  0.59960423584E+01  0.19021708528E+02  0.36820917488E+02  0.00000000000E+00 0. -1.
         11    1    4    4    0    0  0.12821536501E+01  0.31687141864E+01  0.65899045167E+00  0.34812262572E+01  0.51100000000E-03 0. -1.
        -11    1    4    4    0    0  0.47698845186E+00 -0.49877070582E+01  0.69022456359E+01  0.85291110182E+01  0.51100000000E-03 0.  1.
         12    1    4    4    0    0 -0.32710750224E+02 -0.41770494866E+01 -0.26582944616E+02  0.42356745237E+02  0.00000000000E+00 0. -1.
</event>
<event>
 8    1  0.1238315E-006  0.9118800E+02  0.7816164E-02  0.1184000E+00
        -11   -1    0    0    0    0  0.00000000000E+00  0.00000000000E+00  0.45593999997E+02  0.45594000000E+02  0.51100000000E-03 0.  1.
         11   -1    0    0    0    0 -0.00000000000E+00 -0.00000000000E+00 -0.45593999997E+02  0.45594000000E+02  0.51100000000E-03 0. -1.
         23    2    1    2    0    0  0.35527136788E-14  0.00000000000E+00 -0.63837823916E-15  0.91188000000E+02  0.91188000000E+02 0.  0.
    9900012    2    3    3    0    0 -0.28869061526E+02  0.22854763832E+02 -0.12975424103E+00  0.54367085028E+02  0.40000001939E+02 0.  0.
        -12    1    3    3    0    0  0.28869061526E+02 -0.22854763832E+02  0.12975424103E+00  0.36820914972E+02  0.00000000000E+00 0.  1.
         11    1    4    4    0    0 -0.10728843562E+02  0.12567950074E+00  0.37477135549E+01  0.11365264479E+02  0.51100000000E-03 0. -1.
        -11    1    4    4    0    0 -0.19392044661E+02  0.13568698872E+02  0.10512767428E+02  0.25897476025E+02  0.51100000000E-03 0.  1.
        -12    1    4    4    0    0  0.12518266969E+01  0.91603854585E+01 -0.14390235224E+02  0.17104344525E+02  0.00000000000E+00 0.  1.
</event>
<event>
 8    1  0.1238315E-006  0.9118800E+02  0.7816164E-02  0.1184000E+00
        -11   -1    0    0    0    0  0.00000000000E+00  0.00000000000E+00  0.45593999997E+02  0.45594000000E+02  0.51100000000E-03 0. -1.
         11   -1    0    0    0    0 -0.00000000000E+00 -0.00000000000E+00 -0.45593999997E+02  0.45594000000E+02  0.51100000000E-03 0.  1.
         23    2    1    2    0    0  0.00000000000E+00  0.00000000000E+00  0.00000000000E+00  0.91188000000E+02  0.91188000000E+02 0.  0.
    9900012    2    3    3    0    0 -0.24391018909E+02  0.23082857479E+02  0.15101033839E+02  0.54367063893E+02  0.39999953757E+02 0.  0.
        -12    1    3    3    0    0  0.24391018909E+02 -0.23082857479E+02 -0.15101033839E+02  0.36820936107E+02  0.00000000000E+00 0.  1.
         11    1    4    4    0    0 -0.75495282542E+01  0.25033318106E+01  0.16425565427E+02  0.18249965668E+02  0.51100000000E-03 0. -1.
        -11    1    4    4    0    0 -0.17145202651E+02  0.20722240259E+02 -0.90553375771E+01  0.28379012566E+02  0.51100000000E-03 0.  1.
        -12    1    4    4    0    0  0.30371199634E+00 -0.14271459107E+00  0.77308059896E+01  0.77380856599E+01  0.00000000000E+00 0.  1.
</event>
<event>
 8    1  0.1238315E-006  0.9118800E+02  0.7816164E-02  0.1184000E+00
        -11   -1    0    0    0    0  0.00000000000E+00  0.00000000000E+00  0.45593999997E+02  0.45594000000E+02  0.51100000000E-03 0. -1.
         11   -1    0    0    0    0 -0.00000000000E+00 -0.00000000000E+00 -0.45593999997E+02  0.45594000000E+02  0.51100000000E-03 0.  1.
         23    2    1    2    0    0 -0.35527136788E-14  0.00000000000E+00  0.17763568394E-14  0.91188000000E+02  0.91188000000E+02 0.  0.
    9900012    2    3    3    0    0  0.30982233445E+02 -0.17001418376E+02 -0.10336064152E+02  0.54367065218E+02  0.39999956778E+02 0.  0.
         12    1    3    3    0    0 -0.30982233445E+02  0.17001418376E+02  0.10336064152E+02  0.36820934782E+02  0.00000000000E+00 0. -1.
         11    1    4    4    0    0  0.21716166614E+02 -0.75981303929E+01  0.12302399345E+02  0.26089701182E+02  0.51100000000E-03 0. -1.
        -11    1    4    4    0    0  0.35041517861E+01 -0.44726907004E+01 -0.19065690637E+02  0.19894335917E+02  0.51100000000E-03 0.  1.
        -12    1    4    4    0    0  0.57619150452E+01 -0.49305972827E+01 -0.35727728593E+01  0.83830281197E+01  0.00000000000E+00 0.  1.
</event>
<event>
 8    1  0.1238315E-006  0.9118800E+02  0.7816164E-02  0.1184000E+00
        -11   -1    0    0    0    0  0.00000000000E+00  0.00000000000E+00  0.45593999997E+02  0.45594000000E+02  0.51100000000E-03 0. -1.
         11   -1    0    0    0    0 -0.00000000000E+00 -0.00000000000E+00 -0.45593999997E+02  0.45594000000E+02  0.51100000000E-03 0.  1.
         23    2    1    2    0    0 -0.17763568394E-14  0.35527136788E-14  0.00000000000E+00  0.91188000000E+02  0.91188000000E+02 0.  0.
    9900012    2    3    3    0    0 -0.86839730794E+01 -0.23700450679E+02  0.26807767164E+02  0.54367093830E+02  0.40000022005E+02 0.  0.
        -12    1    3    3    0    0  0.86839730794E+01  0.23700450679E+02 -0.26807767164E+02  0.36820906170E+02  0.00000000000E+00 0.  1.
         11    1    4    4    0    0  0.22511344746E+01 -0.53809996179E+01 -0.52972929536E+00  0.58569084590E+01  0.51100000000E-03 0. -1.
        -11    1    4    4    0    0 -0.15713861505E+02  0.27680781339E+01  0.20197495280E+02  0.25739590436E+02  0.51100000000E-03 0.  1.
        -12    1    4    4    0    0  0.47787539507E+01 -0.21087529195E+02  0.71400011792E+01  0.22770594935E+02  0.00000000000E+00 0.  1.
</event>
<event>
 8    1  0.1238315E-006  0.9118800E+02  0.7816164E-02  0.1184000E+00
        -11   -1    0    0    0    0  0.00000000000E+00  0.00000000000E+00  0.45593999997E+02  0.45594000000E+02  0.51100000000E-03 0. -1.
         11   -1    0    0    0    0 -0.00000000000E+00 -0.00000000000E+00 -0.45593999997E+02  0.45594000000E+02  0.51100000000E-03 0.  1.
         23    2    1    2    0    0  0.35527136788E-14  0.17763568394E-14  0.00000000000E+00  0.91188000000E+02  0.91188000000E+02 0.  0.
    9900012    2    3    3    0    0  0.29918642350E+02  0.12560044931E+02  0.17403981043E+02  0.54367103150E+02  0.40000043250E+02 0.  0.
        -12    1    3    3    0    0 -0.29918642350E+02 -0.12560044931E+02 -0.17403981043E+02  0.36820896850E+02  0.00000000000E+00 0.  1.
         11    1    4    4    0    0  0.99995794959E+01  0.74773422322E+00  0.13794886208E+02  0.17054312719E+02  0.51100000000E-03 0. -1.
        -11    1    4    4    0    0  0.46455158816E+01  0.18941585367E+02 -0.18619482254E+01  0.19591613651E+02  0.51100000000E-03 0.  1.
        -12    1    4    4    0    0  0.15273546972E+02 -0.71292746586E+01  0.54710430606E+01  0.17721176779E+02  0.00000000000E+00 0.  1.
</event>
<event>
 8    1  0.1238315E-006  0.9118800E+02  0.7816164E-02  0.1184000E+00
        -11   -1    0    0    0    0  0.00000000000E+00  0.00000000000E+00  0.45593999997E+02  0.45594000000E+02  0.51100000000E-03 0.  1.
         11   -1    0    0    0    0 -0.00000000000E+00 -0.00000000000E+00 -0.45593999997E+02  0.45594000000E+02  0.51100000000E-03 0. -1.
         23    2    1    2    0    0  0.00000000000E+00  0.00000000000E+00  0.00000000000E+00  0.91188000000E+02  0.91188000000E+02 0.  0.
    9900012    2    3    3    0    0  0.27177273640E+02  0.24484645596E+02 -0.42041402727E+01  0.54367124563E+02  0.40000092067E+02 0.  0.
         12    1    3    3    0    0 -0.27177273640E+02 -0.24484645596E+02  0.42041402727E+01  0.36820875437E+02  0.00000000000E+00 0. -1.
         11    1    4    4    0    0 -0.69108411169E+00  0.11993320735E+02 -0.18644060053E+01  0.12157028811E+02  0.51100000000E-03 0. -1.
        -11    1    4    4    0    0  0.13187758046E+02  0.11396166058E+02  0.12390303950E+02  0.21384788878E+02  0.51100000000E-03 0.  1.
        -12    1    4    4    0    0  0.14680599706E+02  0.10951588034E+01 -0.14730038218E+02  0.20825306875E+02  0.00000000000E+00 0.  1.
</event>
<event>
 8    1  0.1238315E-006  0.9118800E+02  0.7816164E-02  0.1184000E+00
        -11   -1    0    0    0    0  0.00000000000E+00  0.00000000000E+00  0.45593999997E+02  0.45594000000E+02  0.51100000000E-03 0.  1.
         11   -1    0    0    0    0 -0.00000000000E+00 -0.00000000000E+00 -0.45593999997E+02  0.45594000000E+02  0.51100000000E-03 0. -1.
         23    2    1    2    0    0  0.35527136788E-14 -0.35527136788E-14  0.00000000000E+00  0.91188000000E+02  0.91188000000E+02 0.  0.
    9900012    2    3    3    0    0  0.26375700735E+02 -0.22180043908E+02 -0.12966749419E+02  0.54367237820E+02  0.40000350257E+02 0.  0.
        -12    1    3    3    0    0 -0.26375700735E+02  0.22180043908E+02  0.12966749419E+02  0.36820762180E+02  0.00000000000E+00 0.  1.
         11    1    4    4    0    0  0.15449248556E+02 -0.11271152191E+02 -0.37309734556E+01  0.19484309479E+02  0.51100000000E-03 0. -1.
        -11    1    4    4    0    0  0.18917411158E+02 -0.54376879192E+01  0.23040782241E+01  0.19817811977E+02  0.51100000000E-03 0.  1.
        -12    1    4    4    0    0 -0.79909589794E+01 -0.54712037976E+01 -0.11539854187E+02  0.15065116364E+02  0.00000000000E+00 0.  1.
</event>
<event>
 8    1  0.1238315E-006  0.9118800E+02  0.7816164E-02  0.1184000E+00
        -11   -1    0    0    0    0  0.00000000000E+00  0.00000000000E+00  0.45593999997E+02  0.45594000000E+02  0.51100000000E-03 0. -1.
         11   -1    0    0    0    0 -0.00000000000E+00 -0.00000000000E+00 -0.45593999997E+02  0.45594000000E+02  0.51100000000E-03 0.  1.
         23    2    1    2    0    0  0.71054273576E-14  0.11102230246E-15  0.88817841970E-15  0.91188000000E+02  0.91188000000E+02 0.  0.
    9900012    2    3    3    0    0  0.36268803904E+02  0.13795050068E+00  0.63507062005E+01  0.54367127710E+02  0.40000099241E+02 0.  0.
        -12    1    3    3    0    0 -0.36268803904E+02 -0.13795050068E+00 -0.63507062005E+01  0.36820872290E+02  0.00000000000E+00 0.  1.
         11    1    4    4    0    0  0.84066600024E+01  0.74413240510E+01 -0.22311530024E+01  0.11446540089E+02  0.51100000000E-03 0. -1.
        -11    1    4    4    0    0 -0.35164003511E+01  0.63173563480E+01  0.43873233947E+01  0.84571076313E+01  0.51100000000E-03 0.  1.
         12    1    4    4    0    0  0.31378544252E+02 -0.13620729898E+02  0.41945358082E+01  0.34463479990E+02  0.00000000000E+00 0. -1.
</event>
<event>
 8    1  0.1238315E-006  0.9118800E+02  0.7816164E-02  0.1184000E+00
        -11   -1    0    0    0    0  0.00000000000E+00  0.00000000000E+00  0.45593999997E+02  0.45594000000E+02  0.51100000000E-03 0.  1.
         11   -1    0    0    0    0 -0.00000000000E+00 -0.00000000000E+00 -0.45593999997E+02  0.45594000000E+02  0.51100000000E-03 0. -1.
         23    2    1    2    0    0 -0.71054273576E-14  0.00000000000E+00  0.00000000000E+00  0.91188000000E+02  0.91188000000E+02 0.  0.
    9900012    2    3    3    0    0  0.32749041621E+02 -0.14910591181E+02  0.78073222996E+01  0.54367085591E+02  0.40000003221E+02 0.  0.
         12    1    3    3    0    0 -0.32749041621E+02  0.14910591181E+02 -0.78073222996E+01  0.36820914409E+02  0.00000000000E+00 0. -1.
         11    1    4    4    0    0  0.43823894498E+01  0.86204992425E+00  0.10716644352E+02  0.11610122040E+02  0.51100000000E-03 0. -1.
        -11    1    4    4    0    0  0.26649829499E+02 -0.10364280278E+02  0.86550903113E+01  0.29875446550E+02  0.51100000000E-03 0.  1.
         12    1    4    4    0    0  0.17168226721E+01 -0.54083608272E+01 -0.11564412364E+02  0.12881517001E+02  0.00000000000E+00 0. -1.
</event>
<event>
 8    1  0.1238315E-006  0.9118800E+02  0.7816164E-02  0.1184000E+00
        -11   -1    0    0    0    0  0.00000000000E+00  0.00000000000E+00  0.45593999997E+02  0.45594000000E+02  0.51100000000E-03 0. -1.
         11   -1    0    0    0    0 -0.00000000000E+00 -0.00000000000E+00 -0.45593999997E+02  0.45594000000E+02  0.51100000000E-03 0.  1.
         23    2    1    2    0    0  0.00000000000E+00  0.00000000000E+00 -0.71054273576E-14  0.91188000000E+02  0.91188000000E+02 0.  0.
    9900012    2    3    3    0    0  0.56511652723E+01  0.53493055837E+01  0.35989292543E+02  0.54367083160E+02  0.39999997680E+02 0.  0.
        -12    1    3    3    0    0 -0.56511652723E+01 -0.53493055837E+01 -0.35989292543E+02  0.36820916840E+02  0.00000000000E+00 0.  1.
         11    1    4    4    0    0  0.12066930059E+02  0.13478848690E+02  0.15665124678E+02  0.23930864892E+02  0.51100000000E-03 0. -1.
        -11    1    4    4    0    0  0.69785814887E+01 -0.12094275349E+00  0.51968224442E+01  0.87018498333E+01  0.51100000000E-03 0.  1.
        -12    1    4    4    0    0 -0.13394346276E+02 -0.80086003524E+01  0.15127345421E+02  0.21734368435E+02  0.00000000000E+00 0.  1.
</event>
<event>
 8    1  0.1238315E-006  0.9118800E+02  0.7816164E-02  0.1184000E+00
        -11   -1    0    0    0    0  0.00000000000E+00  0.00000000000E+00  0.45593999997E+02  0.45594000000E+02  0.51100000000E-03 0.  1.
         11   -1    0    0    0    0 -0.00000000000E+00 -0.00000000000E+00 -0.45593999997E+02  0.45594000000E+02  0.51100000000E-03 0. -1.
         23    2    1    2    0    0  0.35527136788E-14  0.00000000000E+00  0.00000000000E+00  0.91188000000E+02  0.91188000000E+02 0.  0.
    9900012    2    3    3    0    0 -0.21707976668E+02 -0.11732354825E+02 -0.27329247744E+02  0.54367188181E+02  0.40000237095E+02 0.  0.
        -12    1    3    3    0    0  0.21707976668E+02  0.11732354825E+02  0.27329247744E+02  0.36820811819E+02  0.00000000000E+00 0.  1.
         11    1    4    4    0    0 -0.24546446033E+02 -0.15625225301E+01 -0.11443771688E+01  0.24622735203E+02  0.51100000000E-03 0. -1.
        -11    1    4    4    0    0  0.27852600787E+01 -0.71422937005E+01 -0.71917812499E+01  0.10511505640E+02  0.51100000000E-03 0.  1.
         12    1    4    4    0    0  0.53209286429E-01 -0.30275385941E+01 -0.18993089326E+02  0.19232947338E+02  0.00000000000E+00 0. -1.
</event>
<event>
 8    1  0.1238315E-006  0.9118800E+02  0.7816164E-02  0.1184000E+00
        -11   -1    0    0    0    0  0.00000000000E+00  0.00000000000E+00  0.45593999997E+02  0.45594000000E+02  0.51100000000E-03 0.  1.
         11   -1    0    0    0    0 -0.00000000000E+00 -0.00000000000E+00 -0.45593999997E+02  0.45594000000E+02  0.51100000000E-03 0. -1.
         23    2    1    2    0    0  0.17763568394E-14  0.00000000000E+00  0.00000000000E+00  0.91188000000E+02  0.91188000000E+02 0.  0.
    9900012    2    3    3    0    0 -0.12357731700E+02 -0.24349184531E+02 -0.24701902646E+02  0.54367077762E+02  0.39999985375E+02 0.  0.
        -12    1    3    3    0    0  0.12357731700E+02  0.24349184531E+02  0.24701902646E+02  0.36820922238E+02  0.00000000000E+00 0.  1.
         11    1    4    4    0    0  0.83383043280E+01 -0.12565977010E+02 -0.26053328908E+02  0.30103272991E+02  0.51100000000E-03 0. -1.
        -11    1    4    4    0    0 -0.74286694839E+01 -0.63838101137E+01 -0.57079026543E+00  0.98114200632E+01  0.51100000000E-03 0.  1.
         12    1    4    4    0    0 -0.13267366545E+02 -0.53993974071E+01  0.19222165277E+01  0.14452384709E+02  0.00000000000E+00 0. -1.
</event>
<event>
 8    1  0.1238315E-006  0.9118800E+02  0.7816164E-02  0.1184000E+00
        -11   -1    0    0    0    0  0.00000000000E+00  0.00000000000E+00  0.45593999997E+02  0.45594000000E+02  0.51100000000E-03 0.  1.
         11   -1    0    0    0    0 -0.00000000000E+00 -0.00000000000E+00 -0.45593999997E+02  0.45594000000E+02  0.51100000000E-03 0. -1.
         23    2    1    2    0    0 -0.35527136788E-14  0.22204460493E-15 -0.35527136788E-14  0.91188000000E+02  0.91188000000E+02 0.  0.
    9900012    2    3    3    0    0 -0.19595715372E+02  0.13267462023E+01  0.31145254479E+02  0.54367092991E+02  0.40000020091E+02 0.  0.
         12    1    3    3    0    0  0.19595715372E+02 -0.13267462023E+01 -0.31145254479E+02  0.36820907009E+02  0.00000000000E+00 0. -1.
         11    1    4    4    0    0 -0.68077038519E+01  0.10418946889E+02 -0.48711476845E+01  0.13365154920E+02  0.51100000000E-03 0. -1.
        -11    1    4    4    0    0 -0.53557996800E+01  0.91039117256E+00  0.19908535641E+02  0.20636453037E+02  0.51100000000E-03 0.  1.
         12    1    4    4    0    0 -0.74322118402E+01 -0.10002591860E+02  0.16107866522E+02  0.20365485033E+02  0.00000000000E+00 0. -1.
</event>
<event>
 8    1  0.1238315E-006  0.9118800E+02  0.7816164E-02  0.1184000E+00
        -11   -1    0    0    0    0  0.00000000000E+00  0.00000000000E+00  0.45593999997E+02  0.45594000000E+02  0.51100000000E-03 0. -1.
         11   -1    0    0    0    0 -0.00000000000E+00 -0.00000000000E+00 -0.45593999997E+02  0.45594000000E+02  0.51100000000E-03 0.  1.
         23    2    1    2    0    0  0.00000000000E+00  0.35527136788E-14  0.00000000000E+00  0.91188000000E+02  0.91188000000E+02 0.  0.
    9900012    2    3    3    0    0  0.19593161999E+01 -0.28370762181E+02  0.23388908908E+02  0.54367080314E+02  0.39999991191E+02 0.  0.
        -12    1    3    3    0    0 -0.19593161999E+01  0.28370762181E+02 -0.23388908908E+02  0.36820919686E+02  0.00000000000E+00 0.  1.
         11    1    4    4    0    0 -0.65457745850E+01 -0.10531348853E+02  0.16897237105E+01  0.12514457242E+02  0.51100000000E-03 0. -1.
        -11    1    4    4    0    0  0.10239405555E+02 -0.39012791366E+01 -0.47208256703E+01  0.11931118987E+02  0.51100000000E-03 0.  1.
        -12    1    4    4    0    0 -0.17343147697E+01 -0.13938134191E+02  0.26420010867E+02  0.29921504085E+02  0.00000000000E+00 0.  1.
</event>
<event>
 8    1  0.1238315E-006  0.9118800E+02  0.7816164E-02  0.1184000E+00
        -11   -1    0    0    0    0  0.00000000000E+00  0.00000000000E+00  0.45593999997E+02  0.45594000000E+02  0.51100000000E-03 0. -1.
         11   -1    0    0    0    0 -0.00000000000E+00 -0.00000000000E+00 -0.45593999997E+02  0.45594000000E+02  0.51100000000E-03 0.  1.
         23    2    1    2    0    0 -0.35527136788E-14  0.00000000000E+00  0.00000000000E+00  0.91188000000E+02  0.91188000000E+02 0.  0.
    9900012    2    3    3    0    0  0.27144765283E+02 -0.14277810236E+02 -0.20373636834E+02  0.54367092553E+02  0.40000019093E+02 0.  0.
         12    1    3    3    0    0 -0.27144765283E+02  0.14277810236E+02  0.20373636834E+02  0.36820907447E+02  0.00000000000E+00 0. -1.
         11    1    4    4    0    0  0.76827895531E+01 -0.78705498807E+01  0.20242675875E+01  0.11183401552E+02  0.51100000000E-03 0. -1.
        -11    1    4    4    0    0  0.19467952340E+01 -0.15924222404E+02 -0.52232700564E+01  0.16871675115E+02  0.51100000000E-03 0.  1.
        -12    1    4    4    0    0  0.17515180496E+02  0.95169620484E+01 -0.17174634365E+02  0.26312015886E+02  0.00000000000E+00 0.  1.
</event>
<event>
 8    1  0.1238315E-006  0.9118800E+02  0.7816164E-02  0.1184000E+00
        -11   -1    0    0    0    0  0.00000000000E+00  0.00000000000E+00  0.45593999997E+02  0.45594000000E+02  0.51100000000E-03 0.  1.
         11   -1    0    0    0    0 -0.00000000000E+00 -0.00000000000E+00 -0.45593999997E+02  0.45594000000E+02  0.51100000000E-03 0. -1.
         23    2    1    2    0    0  0.00000000000E+00 -0.17763568394E-14 -0.88817841970E-15  0.91188000000E+02  0.91188000000E+02 0.  0.
    9900012    2    3    3    0    0 -0.35342230631E+02  0.99025270545E+01 -0.29405001171E+01  0.54367084083E+02  0.39999999784E+02 0.  0.
        -12    1    3    3    0    0  0.35342230631E+02 -0.99025270545E+01  0.29405001171E+01  0.36820915917E+02  0.00000000000E+00 0.  1.
         11    1    4    4    0    0 -0.35942201577E+02  0.88352385404E+01  0.89538636205E+01  0.38079849898E+02  0.51100000000E-03 0. -1.
        -11    1    4    4    0    0  0.20955177172E+01 -0.41670336340E+01 -0.21733879812E+01  0.51457729631E+01  0.51100000000E-03 0.  1.
        -12    1    4    4    0    0 -0.14955467710E+01  0.52343221480E+01 -0.97209757564E+01  0.11141461221E+02  0.00000000000E+00 0.  1.
</event>
<event>
 8    1  0.1238315E-006  0.9118800E+02  0.7816164E-02  0.1184000E+00
        -11   -1    0    0    0    0  0.00000000000E+00  0.00000000000E+00  0.45593999997E+02  0.45594000000E+02  0.51100000000E-03 0. -1.
         11   -1    0    0    0    0 -0.00000000000E+00 -0.00000000000E+00 -0.45593999997E+02  0.45594000000E+02  0.51100000000E-03 0.  1.
         23    2    1    2    0    0  0.00000000000E+00  0.00000000000E+00  0.35527136788E-14  0.91188000000E+02  0.91188000000E+02 0.  0.
    9900012    2    3    3    0    0 -0.24055614825E+02 -0.22406852428E+02  0.16584347394E+02  0.54367079061E+02  0.39999988334E+02 0.  0.
        -12    1    3    3    0    0  0.24055614825E+02  0.22406852428E+02 -0.16584347394E+02  0.36820920939E+02  0.00000000000E+00 0.  1.
         11    1    4    4    0    0 -0.11540165752E+02 -0.13883847996E+02  0.16898589366E+02  0.24728505486E+02  0.51100000000E-03 0. -1.
        -11    1    4    4    0    0 -0.15769903887E+02 -0.15363787355E+02 -0.94419212359E+00  0.22036953726E+02  0.51100000000E-03 0.  1.
         12    1    4    4    0    0  0.32544548134E+01  0.68407829228E+01  0.62995015127E+00  0.76016198486E+01  0.00000000000E+00 0. -1.
</event>
<event>
 8    1  0.1238315E-006  0.9118800E+02  0.7816164E-02  0.1184000E+00
        -11   -1    0    0    0    0  0.00000000000E+00  0.00000000000E+00  0.45593999997E+02  0.45594000000E+02  0.51100000000E-03 0.  1.
         11   -1    0    0    0    0 -0.00000000000E+00 -0.00000000000E+00 -0.45593999997E+02  0.45594000000E+02  0.51100000000E-03 0. -1.
         23    2    1    2    0    0  0.00000000000E+00  0.00000000000E+00  0.13357370765E-15  0.91188000000E+02  0.91188000000E+02 0.  0.
    9900012    2    3    3    0    0 -0.23308589476E+02  0.28504359567E+02  0.80423736670E-02  0.54366960873E+02  0.39999718902E+02 0.  0.
        -12    1    3    3    0    0  0.23308589476E+02 -0.28504359567E+02 -0.80423736670E-02  0.36821039127E+02  0.00000000000E+00 0.  1.
         11    1    4    4    0    0  0.45806369037E+01 -0.10095842238E+01 -0.21039518951E+01  0.51408276169E+01  0.51100000000E-03 0. -1.
        -11    1    4    4    0    0  0.35233142265E+01 -0.19159213220E+01 -0.22117296398E+01  0.45799831781E+01  0.51100000000E-03 0.  1.
         12    1    4    4    0    0 -0.31412540606E+02  0.31429865113E+02  0.43237239085E+01  0.44646150078E+02  0.00000000000E+00 0. -1.
</event>
<event>
 8    1  0.1238315E-006  0.9118800E+02  0.7816164E-02  0.1184000E+00
        -11   -1    0    0    0    0  0.00000000000E+00  0.00000000000E+00  0.45593999997E+02  0.45594000000E+02  0.51100000000E-03 0.  1.
         11   -1    0    0    0    0 -0.00000000000E+00 -0.00000000000E+00 -0.45593999997E+02  0.45594000000E+02  0.51100000000E-03 0. -1.
         23    2    1    2    0    0  0.00000000000E+00  0.00000000000E+00  0.00000000000E+00  0.91188000000E+02  0.91188000000E+02 0.  0.
    9900012    2    3    3    0    0 -0.32506382134E+02 -0.70378841131E+01 -0.15798199639E+02  0.54367084692E+02  0.40000001173E+02 0.  0.
        -12    1    3    3    0    0  0.32506382134E+02  0.70378841131E+01  0.15798199639E+02  0.36820915308E+02  0.00000000000E+00 0.  1.
         11    1    4    4    0    0 -0.22240898661E+02 -0.98958817703E+01 -0.70117341554E+01  0.25332794267E+02  0.51100000000E-03 0. -1.
        -11    1    4    4    0    0  0.64463299134E+01 -0.36945547125E+01 -0.82123058175E+01  0.11074604778E+02  0.51100000000E-03 0.  1.
         12    1    4    4    0    0 -0.16711813387E+02  0.65525523697E+01 -0.57415966633E+00  0.17959685647E+02  0.00000000000E+00 0. -1.
</event>
<event>
 8    1  0.1238315E-006  0.9118800E+02  0.7816164E-02  0.1184000E+00
        -11   -1    0    0    0    0  0.00000000000E+00  0.00000000000E+00  0.45593999997E+02  0.45594000000E+02  0.51100000000E-03 0.  1.
         11   -1    0    0    0    0 -0.00000000000E+00 -0.00000000000E+00 -0.45593999997E+02  0.45594000000E+02  0.51100000000E-03 0. -1.
         23    2    1    2    0    0  0.35527136788E-14  0.00000000000E+00  0.00000000000E+00  0.91188000000E+02  0.91188000000E+02 0.  0.
    9900012    2    3    3    0    0 -0.23674923612E+02 -0.17061848990E+02  0.22453721723E+02  0.54367104870E+02  0.40000047173E+02 0.  0.
         12    1    3    3    0    0  0.23674923612E+02  0.17061848990E+02 -0.22453721723E+02  0.36820895130E+02  0.00000000000E+00 0. -1.
         11    1    4    4    0    0  0.25472998058E+01 -0.85056253488E+01  0.35122713207E+00  0.88858178934E+01  0.51100000000E-03 0. -1.
        -11    1    4    4    0    0 -0.68888266213E+01 -0.87122082118E+01 -0.50074691782E+01  0.12183318594E+02  0.51100000000E-03 0.  1.
         12    1    4    4    0    0 -0.19333396796E+02  0.15598457092E+00  0.27109963769E+02  0.33297968382E+02  0.00000000000E+00 0. -1.
</event>
<event>
 8    1  0.1238315E-006  0.9118800E+02  0.7816164E-02  0.1184000E+00
        -11   -1    0    0    0    0  0.00000000000E+00  0.00000000000E+00  0.45593999997E+02  0.45594000000E+02  0.51100000000E-03 0.  1.
         11   -1    0    0    0    0 -0.00000000000E+00 -0.00000000000E+00 -0.45593999997E+02  0.45594000000E+02  0.51100000000E-03 0. -1.
         23    2    1    2    0    0 -0.71054273576E-14 -0.35527136788E-14  0.31086244690E-14  0.91188000000E+02  0.91188000000E+02 0.  0.
    9900012    2    3    3    0    0 -0.31710458954E+02 -0.18534497186E+02  0.25882348449E+01  0.54367085391E+02  0.40000002766E+02 0.  0.
         12    1    3    3    0    0  0.31710458954E+02  0.18534497186E+02 -0.25882348449E+01  0.36820914609E+02  0.00000000000E+00 0. -1.
         11    1    4    4    0    0 -0.43645280285E+01 -0.53749494953E+01 -0.70731093579E+01  0.98978817551E+01  0.51100000000E-03 0. -1.
        -11    1    4    4    0    0 -0.51480267316E+01 -0.19623162231E+02  0.45232230488E+01  0.20785336711E+02  0.51100000000E-03 0.  1.
         12    1    4    4    0    0 -0.22197904194E+02  0.64636145400E+01  0.51381211540E+01  0.23683866925E+02  0.00000000000E+00 0. -1.
</event>
<event>
 8    1  0.1238315E-006  0.9118800E+02  0.7816164E-02  0.1184000E+00
        -11   -1    0    0    0    0  0.00000000000E+00  0.00000000000E+00  0.45593999997E+02  0.45594000000E+02  0.51100000000E-03 0. -1.
         11   -1    0    0    0    0 -0.00000000000E+00 -0.00000000000E+00 -0.45593999997E+02  0.45594000000E+02  0.51100000000E-03 0.  1.
         23    2    1    2    0    0 -0.71054273576E-14 -0.17763568394E-14  0.00000000000E+00  0.91188000000E+02  0.91188000000E+02 0.  0.
    9900012    2    3    3    0    0 -0.32086835467E+02 -0.13670781327E+02  0.11803557442E+02  0.54367092343E+02  0.40000018615E+02 0.  0.
        -12    1    3    3    0    0  0.32086835467E+02  0.13670781327E+02 -0.11803557442E+02  0.36820907657E+02  0.00000000000E+00 0.  1.
         11    1    4    4    0    0 -0.16272409150E+02  0.94349721125E+01  0.11239409743E+02  0.21911967733E+02  0.51100000000E-03 0. -1.
        -11    1    4    4    0    0 -0.73836898898E+01  0.22859913338E+00  0.18356958905E+01  0.76118929062E+01  0.51100000000E-03 0.  1.
        -12    1    4    4    0    0 -0.84307364267E+01 -0.23334352573E+02 -0.12715481912E+01  0.24843231704E+02  0.00000000000E+00 0.  1.
</event>
<event>
 8    1  0.1238315E-006  0.9118800E+02  0.7816164E-02  0.1184000E+00
        -11   -1    0    0    0    0  0.00000000000E+00  0.00000000000E+00  0.45593999997E+02  0.45594000000E+02  0.51100000000E-03 0. -1.
         11   -1    0    0    0    0 -0.00000000000E+00 -0.00000000000E+00 -0.45593999997E+02  0.45594000000E+02  0.51100000000E-03 0.  1.
         23    2    1    2    0    0  0.00000000000E+00  0.00000000000E+00  0.00000000000E+00  0.91188000000E+02  0.91188000000E+02 0.  0.
    9900012    2    3    3    0    0  0.30188237874E+02 -0.17753793810E+02 -0.11368981546E+02  0.54367073314E+02  0.39999975234E+02 0.  0.
        -12    1    3    3    0    0 -0.30188237874E+02  0.17753793810E+02  0.11368981546E+02  0.36820926686E+02  0.00000000000E+00 0.  1.
         11    1    4    4    0    0  0.94226309265E+01 -0.11079165757E+02  0.39817892679E+01  0.15079407597E+02  0.51100000000E-03 0. -1.
        -11    1    4    4    0    0 -0.56609945552E+01  0.47167861433E+01 -0.26236721995E+01  0.78216741780E+01  0.51100000000E-03 0.  1.
         12    1    4    4    0    0  0.26426601503E+02 -0.11391414197E+02 -0.12727098614E+02  0.31465991539E+02  0.00000000000E+00 0. -1.
</event>
<event>
 8    1  0.1238315E-006  0.9118800E+02  0.7816164E-02  0.1184000E+00
        -11   -1    0    0    0    0  0.00000000000E+00  0.00000000000E+00  0.45593999997E+02  0.45594000000E+02  0.51100000000E-03 0.  1.
         11   -1    0    0    0    0 -0.00000000000E+00 -0.00000000000E+00 -0.45593999997E+02  0.45594000000E+02  0.51100000000E-03 0. -1.
         23    2    1    2    0    0  0.00000000000E+00  0.00000000000E+00 -0.35527136788E-14  0.91188000000E+02  0.91188000000E+02 0.  0.
    9900012    2    3    3    0    0  0.28539283794E+01 -0.18161743032E+02 -0.31902761677E+02  0.54367081763E+02  0.39999994495E+02 0.  0.
        -12    1    3    3    0    0 -0.28539283794E+01  0.18161743032E+02  0.31902761677E+02  0.36820918237E+02  0.00000000000E+00 0.  1.
         11    1    4    4    0    0 -0.25185781798E+01 -0.96192725122E+01 -0.31444806299E+02  0.32979531276E+02  0.51100000000E-03 0. -1.
        -11    1    4    4    0    0  0.42037549634E+01 -0.11564836775E+02 -0.69496306665E+01  0.14132033544E+02  0.51100000000E-03 0.  1.
        -12    1    4    4    0    0  0.11687515958E+01  0.30223662547E+01  0.64916752881E+01  0.72555169435E+01  0.00000000000E+00 0.  1.
</event>
<event>
 8    1  0.1238315E-006  0.9118800E+02  0.7816164E-02  0.1184000E+00
        -11   -1    0    0    0    0  0.00000000000E+00  0.00000000000E+00  0.45593999997E+02  0.45594000000E+02  0.51100000000E-03 0.  1.
         11   -1    0    0    0    0 -0.00000000000E+00 -0.00000000000E+00 -0.45593999997E+02  0.45594000000E+02  0.51100000000E-03 0. -1.
         23    2    1    2    0    0 -0.17763568394E-14  0.00000000000E+00  0.71054273576E-14  0.91188000000E+02  0.91188000000E+02 0.  0.
    9900012    2    3    3    0    0 -0.13659990653E+02 -0.49744149349E+01  0.33829410209E+02  0.54367229453E+02  0.40000331183E+02 0.  0.
         12    1    3    3    0    0  0.13659990653E+02  0.49744149349E+01 -0.33829410209E+02  0.36820770547E+02  0.00000000000E+00 0. -1.
         11    1    4    4    0    0  0.25715485572E+01  0.57258036925E+01  0.38960588355E+00  0.62888379621E+01  0.51100000000E-03 0. -1.
        -11    1    4    4    0    0 -0.11829609381E+02 -0.77735614830E+01 -0.68903170663E-01  0.14155305159E+02  0.51100000000E-03 0.  1.
        -12    1    4    4    0    0 -0.44019298291E+01 -0.29266571444E+01  0.33508707496E+02  0.33923086332E+02  0.00000000000E+00 0.  1.
</event>
<event>
 8    1  0.1238315E-006  0.9118800E+02  0.7816164E-02  0.1184000E+00
        -11   -1    0    0    0    0  0.00000000000E+00  0.00000000000E+00  0.45593999997E+02  0.45594000000E+02  0.51100000000E-03 0. -1.
         11   -1    0    0    0    0 -0.00000000000E+00 -0.00000000000E+00 -0.45593999997E+02  0.45594000000E+02  0.51100000000E-03 0.  1.
         23    2    1    2    0    0  0.88817841970E-15 -0.35527136788E-14  0.35527136788E-14  0.91188000000E+02  0.91188000000E+02 0.  0.
    9900012    2    3    3    0    0  0.69723140703E+01 -0.20755502936E+02  0.29603604095E+02  0.54367116781E+02  0.40000074324E+02 0.  0.
        -12    1    3    3    0    0 -0.69723140703E+01  0.20755502936E+02 -0.29603604095E+02  0.36820883219E+02  0.00000000000E+00 0.  1.
         11    1    4    4    0    0  0.41827093233E+01  0.20479105094E+01  0.48140786677E+01  0.66980854293E+01  0.51100000000E-03 0. -1.
        -11    1    4    4    0    0 -0.66257165242E+01  0.56625805917E+01  0.12560630956E+02  0.15288374298E+02  0.51100000000E-03 0.  1.
        -12    1    4    4    0    0  0.94153212713E+01 -0.28465994038E+02  0.12228894472E+02  0.32380657053E+02  0.00000000000E+00 0.  1.
</event>
<event>
 8    1  0.1238315E-006  0.9118800E+02  0.7816164E-02  0.1184000E+00
        -11   -1    0    0    0    0  0.00000000000E+00  0.00000000000E+00  0.45593999997E+02  0.45594000000E+02  0.51100000000E-03 0.  1.
         11   -1    0    0    0    0 -0.00000000000E+00 -0.00000000000E+00 -0.45593999997E+02  0.45594000000E+02  0.51100000000E-03 0. -1.
         23    2    1    2    0    0 -0.17763568394E-14  0.00000000000E+00 -0.88817841970E-15  0.91188000000E+02  0.91188000000E+02 0.  0.
    9900012    2    3    3    0    0 -0.93937495160E+01  0.34843832229E+02 -0.73105592621E+01  0.54367089486E+02  0.40000012102E+02 0.  0.
         12    1    3    3    0    0  0.93937495160E+01 -0.34843832229E+02  0.73105592621E+01  0.36820910514E+02  0.00000000000E+00 0. -1.
         11    1    4    4    0    0 -0.12342241729E+02  0.74372573211E+01  0.87018948172E+01  0.16833499370E+02  0.51100000000E-03 0.  1.
        -11    1    4    4    0    0 -0.55992881480E+01  0.20185006895E+02 -0.43947325582E+01  0.21403275582E+02  0.51100000000E-03 0. -1.
         12    1    4    4    0    0  0.85477803609E+01  0.72215680127E+01 -0.11617721521E+02  0.16130314535E+02  0.00000000000E+00 0. -1.
</event>
<event>
 8    1  0.1238315E-006  0.9118800E+02  0.7816164E-02  0.1184000E+00
        -11   -1    0    0    0    0  0.00000000000E+00  0.00000000000E+00  0.45593999997E+02  0.45594000000E+02  0.51100000000E-03 0.  1.
         11   -1    0    0    0    0 -0.00000000000E+00 -0.00000000000E+00 -0.45593999997E+02  0.45594000000E+02  0.51100000000E-03 0. -1.
         23    2    1    2    0    0  0.00000000000E+00  0.66613381478E-15  0.00000000000E+00  0.91188000000E+02  0.91188000000E+02 0.  0.
    9900012    2    3    3    0    0 -0.28094139332E+02  0.16350060331E+01  0.23745023583E+02  0.54367081292E+02  0.39999993422E+02 0.  0.
         12    1    3    3    0    0  0.28094139332E+02 -0.16350060331E+01 -0.23745023583E+02  0.36820918708E+02  0.00000000000E+00 0. -1.
         11    1    4    4    0    0 -0.13461305024E+02 -0.18553789188E+02  0.15654919208E+02  0.27758355892E+02  0.51100000000E-03 0. -1.
        -11    1    4    4    0    0 -0.61479211211E+01  0.86279182237E+01  0.58265367306E+01  0.12090758352E+02  0.51100000000E-03 0.  1.
         12    1    4    4    0    0 -0.84849131870E+01  0.11560876997E+02  0.22635676442E+01  0.14517967048E+02  0.00000000000E+00 0. -1.
</event>
<event>
 8    1  0.1238315E-006  0.9118800E+02  0.7816164E-02  0.1184000E+00
        -11   -1    0    0    0    0  0.00000000000E+00  0.00000000000E+00  0.45593999997E+02  0.45594000000E+02  0.51100000000E-03 0.  1.
         11   -1    0    0    0    0 -0.00000000000E+00 -0.00000000000E+00 -0.45593999997E+02  0.45594000000E+02  0.51100000000E-03 0. -1.
         23    2    1    2    0    0  0.00000000000E+00  0.00000000000E+00  0.00000000000E+00  0.91188000000E+02  0.91188000000E+02 0.  0.
    9900012    2    3    3    0    0  0.26223380837E+02 -0.15325425153E+02  0.20814553133E+02  0.54367082293E+02  0.39999995704E+02 0.  0.
         12    1    3    3    0    0 -0.26223380837E+02  0.15325425153E+02 -0.20814553133E+02  0.36820917707E+02  0.00000000000E+00 0. -1.
         11    1    4    4    0    0  0.42500463319E+01  0.27609173936E+01 -0.43245759724E+01  0.66623956863E+01  0.51100000000E-03 0. -1.
        -11    1    4    4    0    0  0.10890513935E+02 -0.14719756673E+02  0.29997363975E+02  0.35144222513E+02  0.51100000000E-03 0.  1.
        -12    1    4    4    0    0  0.11082820570E+02 -0.33665858731E+01 -0.48582348696E+01  0.12560464095E+02  0.00000000000E+00 0.  1.
</event>
<event>
 8    1  0.1238315E-006  0.9118800E+02  0.7816164E-02  0.1184000E+00
        -11   -1    0    0    0    0  0.00000000000E+00  0.00000000000E+00  0.45593999997E+02  0.45594000000E+02  0.51100000000E-03 0.  1.
         11   -1    0    0    0    0 -0.00000000000E+00 -0.00000000000E+00 -0.45593999997E+02  0.45594000000E+02  0.51100000000E-03 0. -1.
         23    2    1    2    0    0  0.00000000000E+00 -0.88817841970E-15  0.00000000000E+00  0.91188000000E+02  0.91188000000E+02 0.  0.
    9900012    2    3    3    0    0  0.31388587094E+02  0.58321561919E+01 -0.18344551369E+02  0.54367081889E+02  0.39999994782E+02 0.  0.
        -12    1    3    3    0    0 -0.31388587094E+02 -0.58321561919E+01  0.18344551369E+02  0.36820918111E+02  0.00000000000E+00 0.  1.
         11    1    4    4    0    0  0.11549392900E+02  0.56312377689E+01  0.17861882471E+01  0.12972655236E+02  0.51100000000E-03 0. -1.
        -11    1    4    4    0    0  0.24721885243E+02  0.39710140349E+01 -0.56698080096E+01  0.25672695331E+02  0.51100000000E-03 0.  1.
        -12    1    4    4    0    0 -0.48826910489E+01 -0.37700956119E+01 -0.14460931607E+02  0.15721731321E+02  0.00000000000E+00 0.  1.
</event>
<event>
 8    1  0.1238315E-006  0.9118800E+02  0.7816164E-02  0.1184000E+00
        -11   -1    0    0    0    0  0.00000000000E+00  0.00000000000E+00  0.45593999997E+02  0.45594000000E+02  0.51100000000E-03 0.  1.
         11   -1    0    0    0    0 -0.00000000000E+00 -0.00000000000E+00 -0.45593999997E+02  0.45594000000E+02  0.51100000000E-03 0. -1.
         23    2    1    2    0    0  0.00000000000E+00  0.35527136788E-14  0.00000000000E+00  0.91188000000E+02  0.91188000000E+02 0.  0.
    9900012    2    3    3    0    0  0.20651380985E+02  0.19404927335E+02  0.23510597181E+02  0.54367096680E+02  0.40000028501E+02 0.  0.
         12    1    3    3    0    0 -0.20651380985E+02 -0.19404927335E+02 -0.23510597181E+02  0.36820903320E+02  0.00000000000E+00 0. -1.
         11    1    4    4    0    0  0.10361865152E+02 -0.11608051470E+02  0.74970889962E+01  0.17271984601E+02  0.51100000000E-03 0. -1.
        -11    1    4    4    0    0  0.58037374599E+01  0.11655916458E+02  0.97316514995E+01  0.16255731240E+02  0.51100000000E-03 0.  1.
         12    1    4    4    0    0  0.44857783732E+01  0.19357062348E+02  0.62818566857E+01  0.20839380839E+02  0.00000000000E+00 0. -1.
</event>
<event>
 8    1  0.1238315E-006  0.9118800E+02  0.7816164E-02  0.1184000E+00
        -11   -1    0    0    0    0  0.00000000000E+00  0.00000000000E+00  0.45593999997E+02  0.45594000000E+02  0.51100000000E-03 0. -1.
         11   -1    0    0    0    0 -0.00000000000E+00 -0.00000000000E+00 -0.45593999997E+02  0.45594000000E+02  0.51100000000E-03 0.  1.
         23    2    1    2    0    0  0.00000000000E+00  0.00000000000E+00  0.00000000000E+00  0.91188000000E+02  0.91188000000E+02 0.  0.
    9900012    2    3    3    0    0  0.23608654117E+02 -0.25415844524E+02  0.12346857398E+02  0.54367101183E+02  0.40000038767E+02 0.  0.
         12    1    3    3    0    0 -0.23608654117E+02  0.25415844524E+02 -0.12346857398E+02  0.36820898817E+02  0.00000000000E+00 0. -1.
         11    1    4    4    0    0 -0.31944559608E+01  0.54971417726E+01 -0.26185571314E+01  0.68760423402E+01  0.51100000000E-03 0.  1.
        -11    1    4    4    0    0  0.39018756477E+01 -0.15646859825E+02  0.11376201094E+02  0.19734913416E+02  0.51100000000E-03 0. -1.
        -12    1    4    4    0    0  0.22901234430E+02 -0.15266126472E+02  0.35892134358E+01  0.27756145427E+02  0.00000000000E+00 0.  1.
</event>
<event>
 8    1  0.1238315E-006  0.9118800E+02  0.7816164E-02  0.1184000E+00
        -11   -1    0    0    0    0  0.00000000000E+00  0.00000000000E+00  0.45593999997E+02  0.45594000000E+02  0.51100000000E-03 0.  1.
         11   -1    0    0    0    0 -0.00000000000E+00 -0.00000000000E+00 -0.45593999997E+02  0.45594000000E+02  0.51100000000E-03 0. -1.
         23    2    1    2    0    0  0.71054273576E-14  0.13322676296E-14 -0.35527136788E-14  0.91188000000E+02  0.91188000000E+02 0.  0.
    9900012    2    3    3    0    0 -0.29209391738E+02 -0.32418458315E+01  0.22182912334E+02  0.54367085702E+02  0.40000003476E+02 0.  0.
         12    1    3    3    0    0  0.29209391738E+02  0.32418458315E+01 -0.22182912334E+02  0.36820914298E+02  0.00000000000E+00 0. -1.
         11    1    4    4    0    0 -0.13594674293E+02 -0.26103224163E+01 -0.30790955484E+00  0.13846434949E+02  0.51100000000E-03 0. -1.
        -11    1    4    4    0    0  0.87954541774E+01  0.23770374277E+01  0.60788171986E+01  0.10952732075E+02  0.51100000000E-03 0.  1.
        -12    1    4    4    0    0 -0.24410171623E+02 -0.30085608429E+01  0.16412004690E+02  0.29567918678E+02  0.00000000000E+00 0.  1.
</event>
<event>
 8    1  0.1238315E-006  0.9118800E+02  0.7816164E-02  0.1184000E+00
        -11   -1    0    0    0    0  0.00000000000E+00  0.00000000000E+00  0.45593999997E+02  0.45594000000E+02  0.51100000000E-03 0.  1.
         11   -1    0    0    0    0 -0.00000000000E+00 -0.00000000000E+00 -0.45593999997E+02  0.45594000000E+02  0.51100000000E-03 0. -1.
         23    2    1    2    0    0  0.00000000000E+00 -0.17763568394E-14  0.35527136788E-14  0.91188000000E+02  0.91188000000E+02 0.  0.
    9900012    2    3    3    0    0 -0.16778451050E+02  0.94322523441E+01  0.31389438935E+02  0.54367072790E+02  0.39999974040E+02 0.  0.
         12    1    3    3    0    0  0.16778451050E+02 -0.94322523441E+01 -0.31389438935E+02  0.36820927210E+02  0.00000000000E+00 0. -1.
         11    1    4    4    0    0 -0.20251308816E+02  0.14798191913E+02  0.68252540646E+01  0.25993962491E+02  0.51100000000E-03 0. -1.
        -11    1    4    4    0    0 -0.37267701655E+01 -0.34115802427E+01  0.38371551265E+01  0.63444034665E+01  0.51100000000E-03 0.  1.
        -12    1    4    4    0    0  0.71996279318E+01 -0.19543593257E+01  0.20727029744E+02  0.22028706833E+02  0.00000000000E+00 0.  1.
</event>
<event>
 8    1  0.1238315E-006  0.9118800E+02  0.7816164E-02  0.1184000E+00
        -11   -1    0    0    0    0  0.00000000000E+00  0.00000000000E+00  0.45593999997E+02  0.45594000000E+02  0.51100000000E-03 0.  1.
         11   -1    0    0    0    0 -0.00000000000E+00 -0.00000000000E+00 -0.45593999997E+02  0.45594000000E+02  0.51100000000E-03 0. -1.
         23    2    1    2    0    0 -0.88817841970E-15 -0.71054273576E-14  0.11102230246E-14  0.91188000000E+02  0.91188000000E+02 0.  0.
    9900012    2    3    3    0    0 -0.41456668876E+01  0.36570406536E+02  0.10943167244E+01  0.54367099451E+02  0.40000034819E+02 0.  0.
         12    1    3    3    0    0  0.41456668876E+01 -0.36570406536E+02 -0.10943167244E+01  0.36820900549E+02  0.00000000000E+00 0. -1.
         11    1    4    4    0    0  0.40611289007E+00  0.18955053837E+01 -0.56173830858E+01  0.59424625647E+01  0.51100000000E-03 0. -1.
        -11    1    4    4    0    0 -0.10964397040E+02  0.35239661300E+02  0.13284894486E+02  0.39224229155E+02  0.51100000000E-03 0.  1.
        -12    1    4    4    0    0  0.64126172628E+01 -0.56476014807E+00 -0.65731946761E+01  0.92004077320E+01  0.00000000000E+00 0.  1.
</event>
<event>
 8    1  0.1238315E-006  0.9118800E+02  0.7816164E-02  0.1184000E+00
        -11   -1    0    0    0    0  0.00000000000E+00  0.00000000000E+00  0.45593999997E+02  0.45594000000E+02  0.51100000000E-03 0.  1.
         11   -1    0    0    0    0 -0.00000000000E+00 -0.00000000000E+00 -0.45593999997E+02  0.45594000000E+02  0.51100000000E-03 0. -1.
         23    2    1    2    0    0  0.35527136788E-14  0.00000000000E+00  0.71054273576E-14  0.91188000000E+02  0.91188000000E+02 0.  0.
    9900012    2    3    3    0    0 -0.24742688000E+02  0.65287883751E+00 -0.27260869031E+02  0.54367057039E+02  0.39999938132E+02 0.  0.
        -12    1    3    3    0    0  0.24742688000E+02 -0.65287883751E+00  0.27260869031E+02  0.36820942961E+02  0.00000000000E+00 0.  1.
         11    1    4    4    0    0 -0.11171361860E+02 -0.86506483465E+01  0.60018291607E+01  0.15351058470E+02  0.51100000000E-03 0. -1.
        -11    1    4    4    0    0 -0.25572615934E+01  0.17728473705E+01 -0.19867116102E+02  0.20109323139E+02  0.51100000000E-03 0.  1.
         12    1    4    4    0    0 -0.11014064546E+02  0.75306798135E+01 -0.13395582090E+02  0.18906675430E+02  0.00000000000E+00 0. -1.
</event>
<event>
 8    1  0.1238315E-006  0.9118800E+02  0.7816164E-02  0.1184000E+00
        -11   -1    0    0    0    0  0.00000000000E+00  0.00000000000E+00  0.45593999997E+02  0.45594000000E+02  0.51100000000E-03 0. -1.
         11   -1    0    0    0    0 -0.00000000000E+00 -0.00000000000E+00 -0.45593999997E+02  0.45594000000E+02  0.51100000000E-03 0.  1.
         23    2    1    2    0    0  0.00000000000E+00  0.00000000000E+00  0.00000000000E+00  0.91188000000E+02  0.91188000000E+02 0.  0.
    9900012    2    3    3    0    0 -0.35461356661E+02  0.20021355958E+01 -0.97089088474E+01  0.54367091889E+02  0.40000017578E+02 0.  0.
         12    1    3    3    0    0  0.35461356661E+02 -0.20021355958E+01  0.97089088474E+01  0.36820908111E+02  0.00000000000E+00 0. -1.
         11    1    4    4    0    0 -0.17037002179E+01  0.36439601461E+01 -0.18509817621E+01  0.44279988396E+01  0.51100000000E-03 0. -1.
        -11    1    4    4    0    0 -0.14195827664E+02  0.17100394002E+02 -0.33936691008E+01  0.22482481809E+02  0.51100000000E-03 0.  1.
         12    1    4    4    0    0 -0.19561828779E+02 -0.18742218552E+02 -0.44642579844E+01  0.27456611240E+02  0.00000000000E+00 0. -1.
</event>
<event>
 8    1  0.1238315E-006  0.9118800E+02  0.7816164E-02  0.1184000E+00
        -11   -1    0    0    0    0  0.00000000000E+00  0.00000000000E+00  0.45593999997E+02  0.45594000000E+02  0.51100000000E-03 0.  1.
         11   -1    0    0    0    0 -0.00000000000E+00 -0.00000000000E+00 -0.45593999997E+02  0.45594000000E+02  0.51100000000E-03 0. -1.
         23    2    1    2    0    0  0.00000000000E+00  0.00000000000E+00  0.00000000000E+00  0.91188000000E+02  0.91188000000E+02 0.  0.
    9900012    2    3    3    0    0  0.17081459577E+02  0.30866902778E+02 -0.10546984694E+02  0.54367070700E+02  0.39999969275E+02 0.  0.
        -12    1    3    3    0    0 -0.17081459577E+02 -0.30866902778E+02  0.10546984694E+02  0.36820929300E+02  0.00000000000E+00 0.  1.
         11    1    4    4    0    0  0.76723945051E+01  0.24946400820E+02 -0.11655862585E+02  0.28584045972E+02  0.51100000000E-03 0. -1.
        -11    1    4    4    0    0  0.10498273304E+02 -0.61508375749E+01 -0.37391625756E+01  0.12729017333E+02  0.51100000000E-03 0.  1.
        -12    1    4    4    0    0 -0.10892082317E+01  0.12071339533E+02  0.48480404665E+01  0.13054007395E+02  0.00000000000E+00 0.  1.
</event>
<event>
 8    1  0.1238315E-006  0.9118800E+02  0.7816164E-02  0.1184000E+00
        -11   -1    0    0    0    0  0.00000000000E+00  0.00000000000E+00  0.45593999997E+02  0.45594000000E+02  0.51100000000E-03 0. -1.
         11   -1    0    0    0    0 -0.00000000000E+00 -0.00000000000E+00 -0.45593999997E+02  0.45594000000E+02  0.51100000000E-03 0.  1.
         23    2    1    2    0    0  0.00000000000E+00 -0.88817841970E-15  0.00000000000E+00  0.91188000000E+02  0.91188000000E+02 0.  0.
    9900012    2    3    3    0    0 -0.99746740673E+01  0.23559613155E+01 -0.35365733824E+02  0.54367084675E+02  0.40000001133E+02 0.  0.
         12    1    3    3    0    0  0.99746740673E+01 -0.23559613155E+01  0.35365733824E+02  0.36820915325E+02  0.00000000000E+00 0. -1.
         11    1    4    4    0    0 -0.68480682376E+01 -0.73602261007E+01 -0.16438664966E+02  0.19269111888E+02  0.51100000000E-03 0. -1.
        -11    1    4    4    0    0 -0.12295348612E+02 -0.35911547842E+01 -0.49512140139E+01  0.13732680388E+02  0.51100000000E-03 0.  1.
        -12    1    4    4    0    0  0.91687427822E+01  0.13307342200E+02 -0.13975854844E+02  0.21365292398E+02  0.00000000000E+00 0.  1.
</event>
<event>
 8    1  0.1238315E-006  0.9118800E+02  0.7816164E-02  0.1184000E+00
        -11   -1    0    0    0    0  0.00000000000E+00  0.00000000000E+00  0.45593999997E+02  0.45594000000E+02  0.51100000000E-03 0.  1.
         11   -1    0    0    0    0 -0.00000000000E+00 -0.00000000000E+00 -0.45593999997E+02  0.45594000000E+02  0.51100000000E-03 0. -1.
         23    2    1    2    0    0 -0.44408920985E-15  0.71054273576E-14  0.00000000000E+00  0.91188000000E+02  0.91188000000E+02 0.  0.
    9900012    2    3    3    0    0  0.24613857601E+01  0.36514915244E+02  0.40475870402E+01  0.54367076384E+02  0.39999982232E+02 0.  0.
         12    1    3    3    0    0 -0.24613857601E+01 -0.36514915244E+02 -0.40475870402E+01  0.36820923616E+02  0.00000000000E+00 0. -1.
         11    1    4    4    0    0 -0.77364148931E+01  0.50634600275E+01  0.11830933657E+02  0.15015383256E+02  0.51100000000E-03 0.  1.
        -11    1    4    4    0    0 -0.29006473237E+01 -0.24304133050E+00 -0.38585884618E+01  0.48333765800E+01  0.51100000000E-03 0. -1.
        -12    1    4    4    0    0  0.13098447977E+02  0.31694496547E+02 -0.39247581552E+01  0.34518316548E+02  0.00000000000E+00 0.  1.
</event>
<event>
 8    1  0.1238315E-006  0.9118800E+02  0.7816164E-02  0.1184000E+00
        -11   -1    0    0    0    0  0.00000000000E+00  0.00000000000E+00  0.45593999997E+02  0.45594000000E+02  0.51100000000E-03 0. -1.
         11   -1    0    0    0    0 -0.00000000000E+00 -0.00000000000E+00 -0.45593999997E+02  0.45594000000E+02  0.51100000000E-03 0.  1.
         23    2    1    2    0    0 -0.88817841970E-15  0.00000000000E+00 -0.88817841970E-15  0.91188000000E+02  0.91188000000E+02 0.  0.
    9900012    2    3    3    0    0  0.40007477059E+01 -0.36162437044E+02 -0.56614414459E+01  0.54367085367E+02  0.40000002710E+02 0.  0.
        -12    1    3    3    0    0 -0.40007477059E+01  0.36162437044E+02  0.56614414459E+01  0.36820914633E+02  0.00000000000E+00 0.  1.
         11    1    4    4    0    0  0.14433495393E+02 -0.18583880224E+02  0.10857394613E+02  0.25914656307E+02  0.51100000000E-03 0. -1.
        -11    1    4    4    0    0 -0.11583546418E+02 -0.18222450522E+02 -0.16426450732E+02  0.27130509294E+02  0.51100000000E-03 0.  1.
         12    1    4    4    0    0  0.11507987315E+01  0.64389370140E+00 -0.92385327690E-01  0.13219197660E+01  0.00000000000E+00 0. -1.
</event>
<event>
 8    1  0.1238315E-006  0.9118800E+02  0.7816164E-02  0.1184000E+00
        -11   -1    0    0    0    0  0.00000000000E+00  0.00000000000E+00  0.45593999997E+02  0.45594000000E+02  0.51100000000E-03 0.  1.
         11   -1    0    0    0    0 -0.00000000000E+00 -0.00000000000E+00 -0.45593999997E+02  0.45594000000E+02  0.51100000000E-03 0. -1.
         23    2    1    2    0    0 -0.17763568394E-14 -0.44408920985E-15  0.00000000000E+00  0.91188000000E+02  0.91188000000E+02 0.  0.
    9900012    2    3    3    0    0 -0.69394167229E+01 -0.23759593457E+01  0.36082948417E+02  0.54367084018E+02  0.39999999637E+02 0.  0.
         12    1    3    3    0    0  0.69394167229E+01  0.23759593457E+01 -0.36082948417E+02  0.36820915982E+02  0.00000000000E+00 0. -1.
         11    1    4    4    0    0  0.10421268292E+02 -0.47902496217E+01  0.64700215348E+01  0.13168542181E+02  0.51100000000E-03 0. -1.
        -11    1    4    4    0    0  0.28205079172E+01  0.19507030232E+01  0.17117458430E+02  0.17457602657E+02  0.51100000000E-03 0.  1.
         12    1    4    4    0    0 -0.20181192932E+02  0.46358725285E+00  0.12495468452E+02  0.23740939180E+02  0.00000000000E+00 0. -1.
</event>
<event>
 8    1  0.1238315E-006  0.9118800E+02  0.7816164E-02  0.1184000E+00
        -11   -1    0    0    0    0  0.00000000000E+00  0.00000000000E+00  0.45593999997E+02  0.45594000000E+02  0.51100000000E-03 0.  1.
         11   -1    0    0    0    0 -0.00000000000E+00 -0.00000000000E+00 -0.45593999997E+02  0.45594000000E+02  0.51100000000E-03 0. -1.
         23    2    1    2    0    0  0.35527136788E-14 -0.17763568394E-14  0.00000000000E+00  0.91188000000E+02  0.91188000000E+02 0.  0.
    9900012    2    3    3    0    0  0.20039392001E+02 -0.67746765440E+01  0.30138138454E+02  0.54367070306E+02  0.39999968377E+02 0.  0.
         12    1    3    3    0    0 -0.20039392001E+02  0.67746765440E+01 -0.30138138454E+02  0.36820929694E+02  0.00000000000E+00 0. -1.
         11    1    4    4    0    0  0.15338474926E+02 -0.11079416736E+02  0.12408512539E+01  0.18962120144E+02  0.51100000000E-03 0. -1.
        -11    1    4    4    0    0  0.10743374230E+02  0.78128471086E+01  0.21118328937E+02  0.24948837390E+02  0.51100000000E-03 0.  1.
         12    1    4    4    0    0 -0.60424571557E+01 -0.35081069165E+01  0.77789582639E+01  0.10456112771E+02  0.00000000000E+00 0. -1.
</event>
<event>
 8    1  0.1238315E-006  0.9118800E+02  0.7816164E-02  0.1184000E+00
        -11   -1    0    0    0    0  0.00000000000E+00  0.00000000000E+00  0.45593999997E+02  0.45594000000E+02  0.51100000000E-03 0.  1.
         11   -1    0    0    0    0 -0.00000000000E+00 -0.00000000000E+00 -0.45593999997E+02  0.45594000000E+02  0.51100000000E-03 0. -1.
         23    2    1    2    0    0 -0.35527136788E-14  0.00000000000E+00  0.00000000000E+00  0.91188000000E+02  0.91188000000E+02 0.  0.
    9900012    2    3    3    0    0 -0.26681374789E+02  0.14938557672E+02  0.20511543552E+02  0.54367086312E+02  0.40000004865E+02 0.  0.
        -12    1    3    3    0    0  0.26681374789E+02 -0.14938557672E+02 -0.20511543552E+02  0.36820913688E+02  0.00000000000E+00 0.  1.
         11    1    4    4    0    0 -0.84040510546E+01 -0.37575715331E+01  0.15035914637E+02  0.17630262256E+02  0.51100000000E-03 0. -1.
        -11    1    4    4    0    0 -0.22179647072E+02  0.61923404006E+01  0.16303708590E+01  0.23085491835E+02  0.51100000000E-03 0.  1.
         12    1    4    4    0    0  0.39023233377E+01  0.12503788804E+02  0.38452580552E+01  0.13651332221E+02  0.00000000000E+00 0. -1.
</event>
<event>
 8    1  0.1238315E-006  0.9118800E+02  0.7816164E-02  0.1184000E+00
        -11   -1    0    0    0    0  0.00000000000E+00  0.00000000000E+00  0.45593999997E+02  0.45594000000E+02  0.51100000000E-03 0. -1.
         11   -1    0    0    0    0 -0.00000000000E+00 -0.00000000000E+00 -0.45593999997E+02  0.45594000000E+02  0.51100000000E-03 0.  1.
         23    2    1    2    0    0 -0.71054273576E-14 -0.22204460493E-15 -0.44408920985E-15  0.91188000000E+02  0.91188000000E+02 0.  0.
    9900012    2    3    3    0    0 -0.36631826640E+02  0.15246071956E+01 -0.34007416458E+01  0.54367079400E+02  0.39999989109E+02 0.  0.
         12    1    3    3    0    0  0.36631826640E+02 -0.15246071956E+01  0.34007416458E+01  0.36820920600E+02  0.00000000000E+00 0. -1.
         11    1    4    4    0    0 -0.39691257389E+01  0.42561482760E+01  0.10094191112E+02  0.11651671629E+02  0.51100000000E-03 0. -1.
        -11    1    4    4    0    0 -0.23871284866E+01  0.56989377044E+01 -0.90749868688E+01  0.10978691193E+02  0.51100000000E-03 0.  1.
        -12    1    4    4    0    0 -0.30275572414E+02 -0.84304787848E+01 -0.44199458890E+01  0.31736716579E+02  0.00000000000E+00 0.  1.
</event>
<event>
 8    1  0.1238315E-006  0.9118800E+02  0.7816164E-02  0.1184000E+00
        -11   -1    0    0    0    0  0.00000000000E+00  0.00000000000E+00  0.45593999997E+02  0.45594000000E+02  0.51100000000E-03 0.  1.
         11   -1    0    0    0    0 -0.00000000000E+00 -0.00000000000E+00 -0.45593999997E+02  0.45594000000E+02  0.51100000000E-03 0. -1.
         23    2    1    2    0    0  0.35527136788E-14  0.00000000000E+00 -0.26645352591E-14  0.91188000000E+02  0.91188000000E+02 0.  0.
    9900012    2    3    3    0    0 -0.29020209885E+02  0.22205779426E+02  0.45288333807E+01  0.54367088095E+02  0.40000008931E+02 0.  0.
         12    1    3    3    0    0  0.29020209885E+02 -0.22205779426E+02 -0.45288333807E+01  0.36820911905E+02  0.00000000000E+00 0. -1.
         11    1    4    4    0    0  0.23312914893E+01 -0.15605954493E+01  0.10782585731E+02  0.11141567820E+02  0.51100000000E-03 0. -1.
        -11    1    4    4    0    0 -0.30877532809E+01  0.11473709083E+02 -0.65563385427E+00  0.11900003212E+02  0.51100000000E-03 0.  1.
        -12    1    4    4    0    0 -0.28263748094E+02  0.12292665793E+02 -0.55981184965E+01  0.31325517064E+02  0.00000000000E+00 0.  1.
</event>
<event>
 8    1  0.1238315E-006  0.9118800E+02  0.7816164E-02  0.1184000E+00
        -11   -1    0    0    0    0  0.00000000000E+00  0.00000000000E+00  0.45593999997E+02  0.45594000000E+02  0.51100000000E-03 0.  1.
         11   -1    0    0    0    0 -0.00000000000E+00 -0.00000000000E+00 -0.45593999997E+02  0.45594000000E+02  0.51100000000E-03 0. -1.
         23    2    1    2    0    0  0.00000000000E+00  0.49960036108E-15  0.00000000000E+00  0.91188000000E+02  0.91188000000E+02 0.  0.
    9900012    2    3    3    0    0 -0.24509917211E+02  0.36469104150E+00  0.27475643126E+02  0.54367081945E+02  0.39999994909E+02 0.  0.
         12    1    3    3    0    0  0.24509917211E+02 -0.36469104150E+00 -0.27475643126E+02  0.36820918055E+02  0.00000000000E+00 0. -1.
         11    1    4    4    0    0  0.21843226053E+01  0.98289167217E+01  0.68205825506E+01  0.12161382148E+02  0.51100000000E-03 0. -1.
        -11    1    4    4    0    0 -0.30829203224E+02 -0.64441675996E+01  0.19184315324E+02  0.36878245921E+02  0.51100000000E-03 0.  1.
        -12    1    4    4    0    0  0.41349634083E+01 -0.30200580806E+01  0.14707452516E+01  0.53274538753E+01  0.00000000000E+00 0.  1.
</event>
<event>
 8    1  0.1238315E-006  0.9118800E+02  0.7816164E-02  0.1184000E+00
        -11   -1    0    0    0    0  0.00000000000E+00  0.00000000000E+00  0.45593999997E+02  0.45594000000E+02  0.51100000000E-03 0. -1.
         11   -1    0    0    0    0 -0.00000000000E+00 -0.00000000000E+00 -0.45593999997E+02  0.45594000000E+02  0.51100000000E-03 0.  1.
         23    2    1    2    0    0  0.00000000000E+00  0.35527136788E-14  0.00000000000E+00  0.91188000000E+02  0.91188000000E+02 0.  0.
    9900012    2    3    3    0    0 -0.22328900349E+02 -0.29094556609E+02 -0.32723777897E+01  0.54367062050E+02  0.39999949556E+02 0.  0.
         12    1    3    3    0    0  0.22328900349E+02  0.29094556609E+02  0.32723777897E+01  0.36820937950E+02  0.00000000000E+00 0. -1.
         11    1    4    4    0    0 -0.12010624307E+02 -0.32751820512E+02 -0.79503583821E+01  0.35779114603E+02  0.51100000000E-03 0. -1.
        -11    1    4    4    0    0 -0.51726895248E+01 -0.16956578074E+01 -0.43002963981E+01  0.69371839886E+01  0.51100000000E-03 0.  1.
         12    1    4    4    0    0 -0.51455865175E+01  0.53529217102E+01  0.89782769906E+01  0.11650763458E+02  0.00000000000E+00 0. -1.
</event>
<event>
 8    1  0.1238315E-006  0.9118800E+02  0.7816164E-02  0.1184000E+00
        -11   -1    0    0    0    0  0.00000000000E+00  0.00000000000E+00  0.45593999997E+02  0.45594000000E+02  0.51100000000E-03 0.  1.
         11   -1    0    0    0    0 -0.00000000000E+00 -0.00000000000E+00 -0.45593999997E+02  0.45594000000E+02  0.51100000000E-03 0. -1.
         23    2    1    2    0    0  0.17763568394E-14  0.17763568394E-14  0.00000000000E+00  0.91188000000E+02  0.91188000000E+02 0.  0.
    9900012    2    3    3    0    0 -0.42996039264E+01  0.11337836516E+02 -0.34767037247E+02  0.54367081900E+02  0.39999994808E+02 0.  0.
        -12    1    3    3    0    0  0.42996039264E+01 -0.11337836516E+02  0.34767037247E+02  0.36820918100E+02  0.00000000000E+00 0.  1.
         11    1    4    4    0    0 -0.13205625980E+02 -0.49756984043E+01 -0.36104220560E+01  0.14566443622E+02  0.51100000000E-03 0. -1.
        -11    1    4    4    0    0  0.26442314060E+01  0.83025342689E+01 -0.20251552700E+01  0.89456855044E+01  0.51100000000E-03 0.  1.
         12    1    4    4    0    0  0.62617906471E+01  0.80110006515E+01 -0.29131459921E+02  0.30854952774E+02  0.00000000000E+00 0. -1.
</event>
<event>
 8    1  0.1238315E-006  0.9118800E+02  0.7816164E-02  0.1184000E+00
        -11   -1    0    0    0    0  0.00000000000E+00  0.00000000000E+00  0.45593999997E+02  0.45594000000E+02  0.51100000000E-03 0. -1.
         11   -1    0    0    0    0 -0.00000000000E+00 -0.00000000000E+00 -0.45593999997E+02  0.45594000000E+02  0.51100000000E-03 0.  1.
         23    2    1    2    0    0 -0.17763568394E-14  0.55511151231E-15  0.71054273576E-14  0.91188000000E+02  0.91188000000E+02 0.  0.
    9900012    2    3    3    0    0 -0.93653659033E+01 -0.77714388758E+00  0.35601526356E+02  0.54367045232E+02  0.39999911215E+02 0.  0.
        -12    1    3    3    0    0  0.93653659033E+01  0.77714388758E+00 -0.35601526356E+02  0.36820954768E+02  0.00000000000E+00 0.  1.
         11    1    4    4    0    0 -0.63349369519E+01  0.53724942022E+01 -0.91554032706E+00  0.83566341603E+01  0.51100000000E-03 0. -1.
        -11    1    4    4    0    0  0.97881002339E+01  0.63881879360E+00  0.43619295310E+01  0.10735055898E+02  0.51100000000E-03 0.  1.
         12    1    4    4    0    0 -0.12818529185E+02 -0.67884568834E+01  0.32155137152E+02  0.35275355174E+02  0.00000000000E+00 0. -1.
</event>
<event>
 8    1  0.1238315E-006  0.9118800E+02  0.7816164E-02  0.1184000E+00
        -11   -1    0    0    0    0  0.00000000000E+00  0.00000000000E+00  0.45593999997E+02  0.45594000000E+02  0.51100000000E-03 0.  1.
         11   -1    0    0    0    0 -0.00000000000E+00 -0.00000000000E+00 -0.45593999997E+02  0.45594000000E+02  0.51100000000E-03 0. -1.
         23    2    1    2    0    0 -0.88817841970E-15  0.00000000000E+00 -0.71054273576E-14  0.91188000000E+02  0.91188000000E+02 0.  0.
    9900012    2    3    3    0    0 -0.25878723410E+01  0.68261170800E+01  0.36089976176E+02  0.54367091021E+02  0.40000015600E+02 0.  0.
         12    1    3    3    0    0  0.25878723410E+01 -0.68261170800E+01 -0.36089976176E+02  0.36820908979E+02  0.00000000000E+00 0. -1.
         11    1    4    4    0    0 -0.91953967813E+01  0.24207630422E+01  0.20104044919E+02  0.22239335378E+02  0.51100000000E-03 0. -1.
        -11    1    4    4    0    0  0.99491999988E+01 -0.54354219557E+01 -0.18478632518E+01  0.11486731098E+02  0.51100000000E-03 0.  1.
        -12    1    4    4    0    0 -0.33416755585E+01  0.98407759935E+01  0.17833794509E+02  0.20641024546E+02  0.00000000000E+00 0.  1.
</event>
<event>
 8    1  0.1238315E-006  0.9118800E+02  0.7816164E-02  0.1184000E+00
        -11   -1    0    0    0    0  0.00000000000E+00  0.00000000000E+00  0.45593999997E+02  0.45594000000E+02  0.51100000000E-03 0. -1.
         11   -1    0    0    0    0 -0.00000000000E+00 -0.00000000000E+00 -0.45593999997E+02  0.45594000000E+02  0.51100000000E-03 0.  1.
         23    2    1    2    0    0  0.17763568394E-14 -0.88817841970E-15  0.00000000000E+00  0.91188000000E+02  0.91188000000E+02 0.  0.
    9900012    2    3    3    0    0  0.73269083342E+01  0.26678262638E+01  0.35985770845E+02  0.54367128391E+02  0.40000100793E+02 0.  0.
        -12    1    3    3    0    0 -0.73269083342E+01 -0.26678262638E+01 -0.35985770845E+02  0.36820871609E+02  0.00000000000E+00 0.  1.
         11    1    4    4    0    0  0.18611627715E+02 -0.37754569728E+01  0.13094093548E+02  0.23067337247E+02  0.51100000000E-03 0. -1.
        -11    1    4    4    0    0 -0.77371370004E+01 -0.42970659441E+01  0.50930530168E+01  0.10211133825E+02  0.51100000000E-03 0.  1.
         12    1    4    4    0    0 -0.35475823800E+01  0.10740349181E+02  0.17798624281E+02  0.21088657320E+02  0.00000000000E+00 0. -1.
</event>
<event>
 8    1  0.1238315E-006  0.9118800E+02  0.7816164E-02  0.1184000E+00
        -11   -1    0    0    0    0  0.00000000000E+00  0.00000000000E+00  0.45593999997E+02  0.45594000000E+02  0.51100000000E-03 0.  1.
         11   -1    0    0    0    0 -0.00000000000E+00 -0.00000000000E+00 -0.45593999997E+02  0.45594000000E+02  0.51100000000E-03 0. -1.
         23    2    1    2    0    0  0.00000000000E+00  0.00000000000E+00  0.00000000000E+00  0.91188000000E+02  0.91188000000E+02 0.  0.
    9900012    2    3    3    0    0 -0.16430178514E+02 -0.11641136323E+02  0.30827141913E+02  0.54367088830E+02  0.40000010606E+02 0.  0.
         12    1    3    3    0    0  0.16430178514E+02  0.11641136323E+02 -0.30827141913E+02  0.36820911170E+02  0.00000000000E+00 0. -1.
         11    1    4    4    0    0 -0.16762442699E+02 -0.19066044713E+02  0.15770051872E+02  0.29886252400E+02  0.51100000000E-03 0. -1.
        -11    1    4    4    0    0 -0.61408972597E+01 -0.13661999658E+01  0.11303731054E+02  0.12936439135E+02  0.51100000000E-03 0.  1.
         12    1    4    4    0    0  0.64731614444E+01  0.87911083560E+01  0.37533589869E+01  0.11544397295E+02  0.00000000000E+00 0. -1.
</event>
<event>
 8    1  0.1238315E-006  0.9118800E+02  0.7816164E-02  0.1184000E+00
        -11   -1    0    0    0    0  0.00000000000E+00  0.00000000000E+00  0.45593999997E+02  0.45594000000E+02  0.51100000000E-03 0.  1.
         11   -1    0    0    0    0 -0.00000000000E+00 -0.00000000000E+00 -0.45593999997E+02  0.45594000000E+02  0.51100000000E-03 0. -1.
         23    2    1    2    0    0  0.00000000000E+00  0.00000000000E+00  0.35527136788E-14  0.91188000000E+02  0.91188000000E+02 0.  0.
    9900012    2    3    3    0    0 -0.48221127361E+01  0.21006440439E+02 -0.29853803891E+02  0.54367178201E+02  0.40000214344E+02 0.  0.
        -12    1    3    3    0    0  0.48221127361E+01 -0.21006440439E+02  0.29853803891E+02  0.36820821799E+02  0.00000000000E+00 0.  1.
         11    1    4    4    0    0 -0.75503900523E+01  0.22568504190E+01  0.15604864880E+01  0.80334850530E+01  0.51100000000E-03 0. -1.
        -11    1    4    4    0    0  0.51884948518E+01  0.19174820240E+02 -0.59345664611E+01  0.20731938872E+02  0.51100000000E-03 0.  1.
         12    1    4    4    0    0 -0.24602175356E+01 -0.42523021921E+00 -0.25479723918E+02  0.25601754276E+02  0.00000000000E+00 0. -1.
</event>
<event>
 8    1  0.1238315E-006  0.9118800E+02  0.7816164E-02  0.1184000E+00
        -11   -1    0    0    0    0  0.00000000000E+00  0.00000000000E+00  0.45593999997E+02  0.45594000000E+02  0.51100000000E-03 0.  1.
         11   -1    0    0    0    0 -0.00000000000E+00 -0.00000000000E+00 -0.45593999997E+02  0.45594000000E+02  0.51100000000E-03 0. -1.
         23    2    1    2    0    0  0.00000000000E+00  0.00000000000E+00  0.00000000000E+00  0.91188000000E+02  0.91188000000E+02 0.  0.
    9900012    2    3    3    0    0  0.21775830259E+02  0.11432501746E+02  0.27402486252E+02  0.54367012338E+02  0.39999836226E+02 0.  0.
         12    1    3    3    0    0 -0.21775830259E+02 -0.11432501746E+02 -0.27402486252E+02  0.36820987662E+02  0.00000000000E+00 0. -1.
         11    1    4    4    0    0  0.23150550984E+01 -0.43053425251E+01  0.30639867392E+00  0.48978908497E+01  0.51100000000E-03 0. -1.
        -11    1    4    4    0    0  0.20353381168E+02  0.24732477591E+01  0.14162033845E+01  0.20551951531E+02  0.51100000000E-03 0.  1.
         12    1    4    4    0    0 -0.89260600705E+00  0.13264596512E+02  0.25679884193E+02  0.28917169957E+02  0.00000000000E+00 0. -1.
</event>
<event>
 8    1  0.1238315E-006  0.9118800E+02  0.7816164E-02  0.1184000E+00
        -11   -1    0    0    0    0  0.00000000000E+00  0.00000000000E+00  0.45593999997E+02  0.45594000000E+02  0.51100000000E-03 0. -1.
         11   -1    0    0    0    0 -0.00000000000E+00 -0.00000000000E+00 -0.45593999997E+02  0.45594000000E+02  0.51100000000E-03 0.  1.
         23    2    1    2    0    0  0.00000000000E+00  0.13322676296E-14  0.71054273576E-14  0.91188000000E+02  0.91188000000E+02 0.  0.
    9900012    2    3    3    0    0 -0.83038049678E+01 -0.30701083439E+01 -0.35740749204E+02  0.54367083447E+02  0.39999998333E+02 0.  0.
         12    1    3    3    0    0  0.83038049678E+01  0.30701083439E+01  0.35740749204E+02  0.36820916553E+02  0.00000000000E+00 0. -1.
         11    1    4    4    0    0 -0.51627202843E+01  0.12375927922E+02 -0.49657126139E+01  0.14299495610E+02  0.51100000000E-03 0. -1.
        -11    1    4    4    0    0 -0.77503341037E+01 -0.17752722621E+02 -0.18637043660E+02  0.26880592177E+02  0.51100000000E-03 0.  1.
         12    1    4    4    0    0  0.46092494202E+01  0.23066863546E+01 -0.12137992930E+02  0.13186995659E+02  0.00000000000E+00 0. -1.
</event>
<event>
 8    1  0.1238315E-006  0.9118800E+02  0.7816164E-02  0.1184000E+00
        -11   -1    0    0    0    0  0.00000000000E+00  0.00000000000E+00  0.45593999997E+02  0.45594000000E+02  0.51100000000E-03 0.  1.
         11   -1    0    0    0    0 -0.00000000000E+00 -0.00000000000E+00 -0.45593999997E+02  0.45594000000E+02  0.51100000000E-03 0. -1.
         23    2    1    2    0    0 -0.13322676296E-14  0.00000000000E+00  0.00000000000E+00  0.91188000000E+02  0.91188000000E+02 0.  0.
    9900012    2    3    3    0    0 -0.14161406031E+01 -0.30808755345E+02  0.20114551261E+02  0.54367081590E+02  0.39999994102E+02 0.  0.
         12    1    3    3    0    0  0.14161406031E+01  0.30808755345E+02 -0.20114551261E+02  0.36820918410E+02  0.00000000000E+00 0. -1.
         11    1    4    4    0    0  0.45185860116E+00 -0.16108628236E+02  0.40631863767E+01  0.16619312971E+02  0.51100000000E-03 0. -1.
        -11    1    4    4    0    0 -0.12827492182E+02 -0.16831175306E+02  0.44076896505E+01  0.21616214890E+02  0.51100000000E-03 0.  1.
         12    1    4    4    0    0  0.10959492978E+02  0.21310481979E+01  0.11643675234E+02  0.16131553729E+02  0.00000000000E+00 0. -1.
</event>
<event>
 8    1  0.1238315E-006  0.9118800E+02  0.7816164E-02  0.1184000E+00
        -11   -1    0    0    0    0  0.00000000000E+00  0.00000000000E+00  0.45593999997E+02  0.45594000000E+02  0.51100000000E-03 0.  1.
         11   -1    0    0    0    0 -0.00000000000E+00 -0.00000000000E+00 -0.45593999997E+02  0.45594000000E+02  0.51100000000E-03 0. -1.
         23    2    1    2    0    0  0.88817841970E-15  0.00000000000E+00  0.44408920985E-15  0.91188000000E+02  0.91188000000E+02 0.  0.
    9900012    2    3    3    0    0  0.42693217127E+01 -0.36494882773E+02 -0.23828183658E+01  0.54367063023E+02  0.39999951774E+02 0.  0.
         12    1    3    3    0    0 -0.42693217127E+01  0.36494882773E+02  0.23828183658E+01  0.36820936977E+02  0.00000000000E+00 0. -1.
         11    1    4    4    0    0  0.78135452715E+01 -0.88541548486E+00  0.74843679476E+00  0.78990890733E+01  0.51100000000E-03 0. -1.
        -11    1    4    4    0    0 -0.54454007919E+01 -0.14154839737E+02 -0.15454564251E+02  0.21653069857E+02  0.51100000000E-03 0.  1.
        -12    1    4    4    0    0  0.19011772331E+01 -0.21454627550E+02  0.12323309091E+02  0.24814904093E+02  0.00000000000E+00 0.  1.
</event>
<event>
 8    1  0.1238315E-006  0.9118800E+02  0.7816164E-02  0.1184000E+00
        -11   -1    0    0    0    0  0.00000000000E+00  0.00000000000E+00  0.45593999997E+02  0.45594000000E+02  0.51100000000E-03 0.  1.
         11   -1    0    0    0    0 -0.00000000000E+00 -0.00000000000E+00 -0.45593999997E+02  0.45594000000E+02  0.51100000000E-03 0. -1.
         23    2    1    2    0    0  0.35527136788E-14  0.00000000000E+00  0.00000000000E+00  0.91188000000E+02  0.91188000000E+02 0.  0.
    9900012    2    3    3    0    0 -0.28044906273E+02 -0.18975793885E+02 -0.14463210951E+02  0.54367054976E+02  0.39999933430E+02 0.  0.
        -12    1    3    3    0    0  0.28044906273E+02  0.18975793885E+02  0.14463210951E+02  0.36820945024E+02  0.00000000000E+00 0.  1.
         11    1    4    4    0    0 -0.14380765770E+01 -0.10340089656E+02 -0.14742278641E+02  0.18064337744E+02  0.51100000000E-03 0. -1.
        -11    1    4    4    0    0 -0.22728298707E+02  0.39156375895E+01 -0.11276408545E+01  0.23090676777E+02  0.51100000000E-03 0.  1.
         12    1    4    4    0    0 -0.38785309888E+01 -0.12551341818E+02  0.14067085447E+01  0.13212040456E+02  0.00000000000E+00 0. -1.
</event>
<event>
 8    1  0.1238315E-006  0.9118800E+02  0.7816164E-02  0.1184000E+00
        -11   -1    0    0    0    0  0.00000000000E+00  0.00000000000E+00  0.45593999997E+02  0.45594000000E+02  0.51100000000E-03 0. -1.
         11   -1    0    0    0    0 -0.00000000000E+00 -0.00000000000E+00 -0.45593999997E+02  0.45594000000E+02  0.51100000000E-03 0.  1.
         23    2    1    2    0    0  0.00000000000E+00  0.00000000000E+00  0.00000000000E+00  0.91188000000E+02  0.91188000000E+02 0.  0.
    9900012    2    3    3    0    0  0.84888422731E+01  0.43570382960E+01  0.35563129612E+02  0.54367076415E+02  0.39999982303E+02 0.  0.
        -12    1    3    3    0    0 -0.84888422731E+01 -0.43570382960E+01 -0.35563129612E+02  0.36820923585E+02  0.00000000000E+00 0.  1.
         11    1    4    4    0    0  0.27263401102E+01  0.48894314974E+01  0.19629072181E+02  0.20411759986E+02  0.51100000000E-03 0. -1.
        -11    1    4    4    0    0  0.15633108169E+02  0.73867800076E+01  0.83382289224E+01  0.19195954045E+02  0.51100000000E-03 0.  1.
         12    1    4    4    0    0 -0.98706060057E+01 -0.79191732090E+01  0.75958285090E+01  0.14759362384E+02  0.00000000000E+00 0. -1.
</event>
<event>
 8    1  0.1238315E-006  0.9118800E+02  0.7816164E-02  0.1184000E+00
        -11   -1    0    0    0    0  0.00000000000E+00  0.00000000000E+00  0.45593999997E+02  0.45594000000E+02  0.51100000000E-03 0.  1.
         11   -1    0    0    0    0 -0.00000000000E+00 -0.00000000000E+00 -0.45593999997E+02  0.45594000000E+02  0.51100000000E-03 0. -1.
         23    2    1    2    0    0 -0.11102230246E-14  0.00000000000E+00 -0.17763568394E-14  0.91188000000E+02  0.91188000000E+02 0.  0.
    9900012    2    3    3    0    0 -0.18753783458E+01  0.35808345643E+02  0.83681977168E+01  0.54367063093E+02  0.39999951934E+02 0.  0.
         12    1    3    3    0    0  0.18753783458E+01 -0.35808345643E+02 -0.83681977168E+01  0.36820936907E+02  0.00000000000E+00 0. -1.
         11    1    4    4    0    0  0.72599740116E+01 -0.35763342958E+01  0.34475327859E+01  0.87967535043E+01  0.51100000000E-03 0. -1.
        -11    1    4    4    0    0  0.27317248893E+01 -0.80583706903E+00  0.21582021048E+01  0.35734480322E+01  0.51100000000E-03 0.  1.
        -12    1    4    4    0    0 -0.11867077247E+02  0.40190517008E+02  0.27624628260E+01  0.41996861557E+02  0.00000000000E+00 0.  1.
</event>
<event>
 8    1  0.1238315E-006  0.9118800E+02  0.7816164E-02  0.1184000E+00
        -11   -1    0    0    0    0  0.00000000000E+00  0.00000000000E+00  0.45593999997E+02  0.45594000000E+02  0.51100000000E-03 0.  1.
         11   -1    0    0    0    0 -0.00000000000E+00 -0.00000000000E+00 -0.45593999997E+02  0.45594000000E+02  0.51100000000E-03 0. -1.
         23    2    1    2    0    0  0.00000000000E+00  0.00000000000E+00  0.00000000000E+00  0.91188000000E+02  0.91188000000E+02 0.  0.
    9900012    2    3    3    0    0  0.12666819936E+02  0.23639999990E+02  0.25228589797E+02  0.54367086513E+02  0.40000005324E+02 0.  0.
         12    1    3    3    0    0 -0.12666819936E+02 -0.23639999990E+02 -0.25228589797E+02  0.36820913487E+02  0.00000000000E+00 0. -1.
         11    1    4    4    0    0 -0.73234456841E+01  0.88445466926E+01  0.11845039429E+02  0.16497388346E+02  0.51100000000E-03 0. -1.
        -11    1    4    4    0    0  0.24251690246E+02  0.66495745162E+01  0.54592066084E+01  0.25732552499E+02  0.51100000000E-03 0.  1.
        -12    1    4    4    0    0 -0.42614246255E+01  0.81458787816E+01  0.79243437598E+01  0.12137145669E+02  0.00000000000E+00 0.  1.
</event>
<event>
 8    1  0.1238315E-006  0.9118800E+02  0.7816164E-02  0.1184000E+00
        -11   -1    0    0    0    0  0.00000000000E+00  0.00000000000E+00  0.45593999997E+02  0.45594000000E+02  0.51100000000E-03 0. -1.
         11   -1    0    0    0    0 -0.00000000000E+00 -0.00000000000E+00 -0.45593999997E+02  0.45594000000E+02  0.51100000000E-03 0.  1.
         23    2    1    2    0    0  0.35527136788E-14  0.00000000000E+00  0.00000000000E+00  0.91188000000E+02  0.91188000000E+02 0.  0.
    9900012    2    3    3    0    0  0.15218823682E+02  0.32129505398E+02  0.95844689027E+01  0.54367085352E+02  0.40000002676E+02 0.  0.
        -12    1    3    3    0    0 -0.15218823682E+02 -0.32129505398E+02 -0.95844689027E+01  0.36820914648E+02  0.00000000000E+00 0.  1.
         11    1    4    4    0    0 -0.22733957291E+01  0.30152168881E+00  0.32282342869E+01  0.39598914558E+01  0.51100000000E-03 0. -1.
        -11    1    4    4    0    0 -0.66068108093E+01  0.55416378334E+01 -0.81904836401E+01  0.11893011455E+02  0.51100000000E-03 0.  1.
        -12    1    4    4    0    0  0.24099030220E+02  0.26286345876E+02  0.14546718256E+02  0.38514182441E+02  0.00000000000E+00 0.  1.
</event>
<event>
 8    1  0.1238315E-006  0.9118800E+02  0.7816164E-02  0.1184000E+00
        -11   -1    0    0    0    0  0.00000000000E+00  0.00000000000E+00  0.45593999997E+02  0.45594000000E+02  0.51100000000E-03 0. -1.
         11   -1    0    0    0    0 -0.00000000000E+00 -0.00000000000E+00 -0.45593999997E+02  0.45594000000E+02  0.51100000000E-03 0.  1.
         23    2    1    2    0    0  0.00000000000E+00  0.00000000000E+00  0.00000000000E+00  0.91188000000E+02  0.91188000000E+02 0.  0.
    9900012    2    3    3    0    0 -0.29036689391E+02 -0.20818235256E+02 -0.89023125515E+01  0.54367089925E+02  0.40000013102E+02 0.  0.
         12    1    3    3    0    0  0.29036689391E+02  0.20818235256E+02  0.89023125515E+01  0.36820910075E+02  0.00000000000E+00 0. -1.
         11    1    4    4    0    0 -0.18096066401E+02 -0.17861012583E+02 -0.13783816040E+02  0.28921911668E+02  0.51100000000E-03 0. -1.
        -11    1    4    4    0    0 -0.12248788369E+02 -0.11214927333E+02  0.34724069258E+01  0.16966585446E+02  0.51100000000E-03 0.  1.
         12    1    4    4    0    0  0.13081653783E+01  0.82577046607E+01  0.14090965623E+01  0.84785928103E+01  0.00000000000E+00 0. -1.
</event>
<event>
 8    1  0.1238315E-006  0.9118800E+02  0.7816164E-02  0.1184000E+00
        -11   -1    0    0    0    0  0.00000000000E+00  0.00000000000E+00  0.45593999997E+02  0.45594000000E+02  0.51100000000E-03 0.  1.
         11   -1    0    0    0    0 -0.00000000000E+00 -0.00000000000E+00 -0.45593999997E+02  0.45594000000E+02  0.51100000000E-03 0. -1.
         23    2    1    2    0    0 -0.17763568394E-14 -0.71054273576E-14  0.00000000000E+00  0.91188000000E+02  0.91188000000E+02 0.  0.
    9900012    2    3    3    0    0 -0.11062014822E+02  0.33905312829E+02 -0.91564702599E+01  0.54367090755E+02  0.40000014995E+02 0.  0.
        -12    1    3    3    0    0  0.11062014822E+02 -0.33905312829E+02  0.91564702599E+01  0.36820909245E+02  0.00000000000E+00 0.  1.
         11    1    4    4    0    0  0.72797104667E+01 -0.15158177394E+01 -0.48739172990E+01  0.88908356186E+01  0.51100000000E-03 0. -1.
        -11    1    4    4    0    0 -0.30388184933E+00  0.85202633330E+00  0.52568965862E+01  0.53341592618E+01  0.51100000000E-03 0.  1.
         12    1    4    4    0    0 -0.18037843440E+02  0.34569104235E+02 -0.95394495471E+01  0.40142095875E+02  0.00000000000E+00 0. -1.
</event>
<event>
 8    1  0.1238315E-006  0.9118800E+02  0.7816164E-02  0.1184000E+00
        -11   -1    0    0    0    0  0.00000000000E+00  0.00000000000E+00  0.45593999997E+02  0.45594000000E+02  0.51100000000E-03 0. -1.
         11   -1    0    0    0    0 -0.00000000000E+00 -0.00000000000E+00 -0.45593999997E+02  0.45594000000E+02  0.51100000000E-03 0.  1.
         23    2    1    2    0    0  0.00000000000E+00  0.00000000000E+00  0.00000000000E+00  0.91188000000E+02  0.91188000000E+02 0.  0.
    9900012    2    3    3    0    0  0.23890207156E+02  0.53832973825E+01  0.27496536491E+02  0.54367062917E+02  0.39999951532E+02 0.  0.
        -12    1    3    3    0    0 -0.23890207156E+02 -0.53832973825E+01 -0.27496536491E+02  0.36820937083E+02  0.00000000000E+00 0.  1.
         11    1    4    4    0    0  0.34143044873E+02  0.33272920444E+01  0.21234422093E+02  0.40345000526E+02  0.51100000000E-03 0. -1.
        -11    1    4    4    0    0 -0.64888760589E+01  0.78575051573E+00  0.74160064261E+01  0.98853461221E+01  0.51100000000E-03 0.  1.
         12    1    4    4    0    0 -0.37639616582E+01  0.12702548224E+01 -0.11538920278E+01  0.41367162690E+01  0.00000000000E+00 0. -1.
</event>
<event>
 8    1  0.1238315E-006  0.9118800E+02  0.7816164E-02  0.1184000E+00
        -11   -1    0    0    0    0  0.00000000000E+00  0.00000000000E+00  0.45593999997E+02  0.45594000000E+02  0.51100000000E-03 0. -1.
         11   -1    0    0    0    0 -0.00000000000E+00 -0.00000000000E+00 -0.45593999997E+02  0.45594000000E+02  0.51100000000E-03 0.  1.
         23    2    1    2    0    0  0.35527136788E-14  0.17763568394E-14 -0.35527136788E-14  0.91188000000E+02  0.91188000000E+02 0.  0.
    9900012    2    3    3    0    0 -0.15565756118E+02 -0.12546648162E+02  0.30920368574E+02  0.54367077464E+02  0.39999984695E+02 0.  0.
        -12    1    3    3    0    0  0.15565756118E+02  0.12546648162E+02 -0.30920368574E+02  0.36820922536E+02  0.00000000000E+00 0.  1.
         11    1    4    4    0    0 -0.19842052879E+02 -0.33694897795E+01  0.19281216424E+02  0.27871595413E+02  0.51100000000E-03 0. -1.
        -11    1    4    4    0    0  0.94489433603E+01 -0.13718340962E+02  0.63982016487E+01  0.17844113707E+02  0.51100000000E-03 0.  1.
        -12    1    4    4    0    0 -0.51726465998E+01  0.45411825802E+01  0.52409505010E+01  0.86513683442E+01  0.00000000000E+00 0.  1.
</event>
<event>
 8    1  0.1238315E-006  0.9118800E+02  0.7816164E-02  0.1184000E+00
        -11   -1    0    0    0    0  0.00000000000E+00  0.00000000000E+00  0.45593999997E+02  0.45594000000E+02  0.51100000000E-03 0.  1.
         11   -1    0    0    0    0 -0.00000000000E+00 -0.00000000000E+00 -0.45593999997E+02  0.45594000000E+02  0.51100000000E-03 0. -1.
         23    2    1    2    0    0 -0.35527136788E-14 -0.17763568394E-14  0.00000000000E+00  0.91188000000E+02  0.91188000000E+02 0.  0.
    9900012    2    3    3    0    0  0.25597822892E+02 -0.15997252302E+02  0.21085962228E+02  0.54367103472E+02  0.40000043986E+02 0.  0.
         12    1    3    3    0    0 -0.25597822892E+02  0.15997252302E+02 -0.21085962228E+02  0.36820896528E+02  0.00000000000E+00 0. -1.
         11    1    4    4    0    0  0.38659559669E+01  0.30903004715E+01  0.21559367853E+01  0.53984846231E+01  0.51100000000E-03 0. -1.
        -11    1    4    4    0    0  0.38988626287E+01 -0.22003324637E+02  0.21143767591E+02  0.30763717803E+02  0.51100000000E-03 0.  1.
        -12    1    4    4    0    0  0.17833004297E+02  0.29157718631E+01 -0.22137421484E+01  0.18204901046E+02  0.00000000000E+00 0.  1.
</event>
<event>
 8    1  0.1238315E-006  0.9118800E+02  0.7816164E-02  0.1184000E+00
        -11   -1    0    0    0    0  0.00000000000E+00  0.00000000000E+00  0.45593999997E+02  0.45594000000E+02  0.51100000000E-03 0. -1.
         11   -1    0    0    0    0 -0.00000000000E+00 -0.00000000000E+00 -0.45593999997E+02  0.45594000000E+02  0.51100000000E-03 0.  1.
         23    2    1    2    0    0  0.00000000000E+00  0.00000000000E+00 -0.17763568394E-14  0.91188000000E+02  0.91188000000E+02 0.  0.
    9900012    2    3    3    0    0 -0.21151614927E+02 -0.27628052898E+02 -0.12044896975E+02  0.54367086594E+02  0.40000005507E+02 0.  0.
         12    1    3    3    0    0  0.21151614927E+02  0.27628052898E+02  0.12044896975E+02  0.36820913406E+02  0.00000000000E+00 0. -1.
         11    1    4    4    0    0 -0.87340195547E+01  0.43838257031E+01 -0.45382718276E+01  0.10774828853E+02  0.51100000000E-03 0. -1.
        -11    1    4    4    0    0 -0.38604476849E+01 -0.30120301916E+02 -0.13231731615E+02  0.33124226265E+02  0.51100000000E-03 0.  1.
        -12    1    4    4    0    0 -0.85571476872E+01 -0.18915766849E+01  0.57251064680E+01  0.10468031475E+02  0.00000000000E+00 0.  1.
</event>
<event>
 8    1  0.1238315E-006  0.9118800E+02  0.7816164E-02  0.1184000E+00
        -11   -1    0    0    0    0  0.00000000000E+00  0.00000000000E+00  0.45593999997E+02  0.45594000000E+02  0.51100000000E-03 0.  1.
         11   -1    0    0    0    0 -0.00000000000E+00 -0.00000000000E+00 -0.45593999997E+02  0.45594000000E+02  0.51100000000E-03 0. -1.
         23    2    1    2    0    0  0.71054273576E-14 -0.17763568394E-14  0.88817841970E-15  0.91188000000E+02  0.91188000000E+02 0.  0.
    9900012    2    3    3    0    0 -0.33399762397E+02  0.14685203063E+02 -0.49578689730E+01  0.54367084993E+02  0.40000001859E+02 0.  0.
         12    1    3    3    0    0  0.33399762397E+02 -0.14685203063E+02  0.49578689730E+01  0.36820915007E+02  0.00000000000E+00 0. -1.
         11    1    4    4    0    0 -0.12075242218E+02  0.80935323406E+00 -0.12657181359E+02  0.17512017802E+02  0.51100000000E-03 0. -1.
        -11    1    4    4    0    0 -0.22423328107E+02  0.10428986545E+01  0.13315304799E+01  0.22487024140E+02  0.51100000000E-03 0.  1.
        -12    1    4    4    0    0  0.10988079273E+01  0.12832951174E+02  0.63677819065E+01  0.14368043051E+02  0.00000000000E+00 0.  1.
</event>
<event>
 8    1  0.1238315E-006  0.9118800E+02  0.7816164E-02  0.1184000E+00
        -11   -1    0    0    0    0  0.00000000000E+00  0.00000000000E+00  0.45593999997E+02  0.45594000000E+02  0.51100000000E-03 0. -1.
         11   -1    0    0    0    0 -0.00000000000E+00 -0.00000000000E+00 -0.45593999997E+02  0.45594000000E+02  0.51100000000E-03 0.  1.
         23    2    1    2    0    0 -0.35527136788E-14  0.00000000000E+00  0.00000000000E+00  0.91188000000E+02  0.91188000000E+02 0.  0.
    9900012    2    3    3    0    0  0.26347634193E+02 -0.22592770383E+02 -0.12294208839E+02  0.54367100063E+02  0.40000036215E+02 0.  0.
         12    1    3    3    0    0 -0.26347634193E+02  0.22592770383E+02  0.12294208839E+02  0.36820899937E+02  0.00000000000E+00 0. -1.
         11    1    4    4    0    0 -0.25275216100E+01 -0.61674663936E+01  0.26627950905E+00  0.66706005909E+01  0.51100000000E-03 0. -1.
        -11    1    4    4    0    0  0.33482585302E+01 -0.90836190884E+01 -0.18133983209E+02  0.20556369286E+02  0.51100000000E-03 0.  1.
        -12    1    4    4    0    0  0.25526897273E+02 -0.73416849011E+01  0.55734948613E+01  0.27140130187E+02  0.00000000000E+00 0.  1.
</event>
<event>
 8    1  0.1238315E-006  0.9118800E+02  0.7816164E-02  0.1184000E+00
        -11   -1    0    0    0    0  0.00000000000E+00  0.00000000000E+00  0.45593999997E+02  0.45594000000E+02  0.51100000000E-03 0. -1.
         11   -1    0    0    0    0 -0.00000000000E+00 -0.00000000000E+00 -0.45593999997E+02  0.45594000000E+02  0.51100000000E-03 0.  1.
         23    2    1    2    0    0  0.00000000000E+00  0.26645352591E-14 -0.35527136788E-14  0.91188000000E+02  0.91188000000E+02 0.  0.
    9900012    2    3    3    0    0  0.24216382331E+02 -0.51306103899E+01 -0.27258493216E+02  0.54367057745E+02  0.39999939741E+02 0.  0.
         12    1    3    3    0    0 -0.24216382331E+02  0.51306103899E+01  0.27258493216E+02  0.36820942255E+02  0.00000000000E+00 0. -1.
         11    1    4    4    0    0  0.18483415092E+02  0.51154914899E+01 -0.84686895690E+01  0.20964817908E+02  0.51100000000E-03 0. -1.
        -11    1    4    4    0    0  0.11900590131E+02  0.19372641339E+01 -0.28059145284E+01  0.12379426254E+02  0.51100000000E-03 0.  1.
         12    1    4    4    0    0 -0.61676228922E+01 -0.12183366014E+02 -0.15983889118E+02  0.21022813582E+02  0.00000000000E+00 0. -1.
</event>
<event>
 8    1  0.1238315E-006  0.9118800E+02  0.7816164E-02  0.1184000E+00
        -11   -1    0    0    0    0  0.00000000000E+00  0.00000000000E+00  0.45593999997E+02  0.45594000000E+02  0.51100000000E-03 0. -1.
         11   -1    0    0    0    0 -0.00000000000E+00 -0.00000000000E+00 -0.45593999997E+02  0.45594000000E+02  0.51100000000E-03 0.  1.
         23    2    1    2    0    0 -0.71054273576E-14  0.22204460493E-15  0.00000000000E+00  0.91188000000E+02  0.91188000000E+02 0.  0.
    9900012    2    3    3    0    0 -0.36601293972E+02 -0.80708515885E+00  0.39337003994E+01  0.54367080597E+02  0.39999991837E+02 0.  0.
         12    1    3    3    0    0  0.36601293972E+02  0.80708515885E+00 -0.39337003994E+01  0.36820919403E+02  0.00000000000E+00 0. -1.
         11    1    4    4    0    0 -0.10389755575E+02  0.47834046664E+01  0.11504182911E+02  0.16222644847E+02  0.51100000000E-03 0. -1.
        -11    1    4    4    0    0 -0.22544574241E+02 -0.34069447269E+01  0.62814110076E+01  0.23649973036E+02  0.51100000000E-03 0.  1.
        -12    1    4    4    0    0 -0.36669641550E+01 -0.21835450984E+01 -0.13851893519E+02  0.14494462714E+02  0.00000000000E+00 0.  1.
</event>
<event>
 8    1  0.1238315E-006  0.9118800E+02  0.7816164E-02  0.1184000E+00
        -11   -1    0    0    0    0  0.00000000000E+00  0.00000000000E+00  0.45593999997E+02  0.45594000000E+02  0.51100000000E-03 0. -1.
         11   -1    0    0    0    0 -0.00000000000E+00 -0.00000000000E+00 -0.45593999997E+02  0.45594000000E+02  0.51100000000E-03 0.  1.
         23    2    1    2    0    0  0.00000000000E+00  0.66613381478E-15  0.00000000000E+00  0.91188000000E+02  0.91188000000E+02 0.  0.
    9900012    2    3    3    0    0  0.26706102348E+02  0.18768515007E+01  0.25279238602E+02  0.54367104051E+02  0.40000045306E+02 0.  0.
        -12    1    3    3    0    0 -0.26706102348E+02 -0.18768515007E+01 -0.25279238602E+02  0.36820895949E+02  0.00000000000E+00 0.  1.
         11    1    4    4    0    0  0.24099200989E+02  0.82956070632E+01  0.20089845866E+02  0.32452896512E+02  0.51100000000E-03 0. -1.
        -11    1    4    4    0    0 -0.25255864373E+01 -0.36838626463E+01  0.12090653200E+02  0.12889271737E+02  0.51100000000E-03 0.  1.
         12    1    4    4    0    0  0.51324877964E+01 -0.27348929162E+01 -0.69012604640E+01  0.90249358022E+01  0.00000000000E+00 0. -1.
</event>
<event>
 8    1  0.1238315E-006  0.9118800E+02  0.7816164E-02  0.1184000E+00
        -11   -1    0    0    0    0  0.00000000000E+00  0.00000000000E+00  0.45593999997E+02  0.45594000000E+02  0.51100000000E-03 0. -1.
         11   -1    0    0    0    0 -0.00000000000E+00 -0.00000000000E+00 -0.45593999997E+02  0.45594000000E+02  0.51100000000E-03 0.  1.
         23    2    1    2    0    0  0.00000000000E+00  0.00000000000E+00 -0.17763568394E-14  0.91188000000E+02  0.91188000000E+02 0.  0.
    9900012    2    3    3    0    0 -0.21138097862E+02 -0.29839991991E+02  0.43052976357E+01  0.54367083513E+02  0.39999998484E+02 0.  0.
        -12    1    3    3    0    0  0.21138097862E+02  0.29839991991E+02 -0.43052976357E+01  0.36820916487E+02  0.00000000000E+00 0.  1.
         11    1    4    4    0    0  0.54308295970E+01 -0.51324749901E+01  0.10006103078E+01  0.75390603450E+01  0.51100000000E-03 0.  1.
        -11    1    4    4    0    0 -0.99014654093E+01 -0.20457797783E+02  0.13885081760E+02  0.26633738062E+02  0.51100000000E-03 0. -1.
        -12    1    4    4    0    0 -0.16667462050E+02 -0.42497192174E+01 -0.10580394432E+02  0.20194285106E+02  0.00000000000E+00 0.  1.
</event>
<event>
 8    1  0.1238315E-006  0.9118800E+02  0.7816164E-02  0.1184000E+00
        -11   -1    0    0    0    0  0.00000000000E+00  0.00000000000E+00  0.45593999997E+02  0.45594000000E+02  0.51100000000E-03 0. -1.
         11   -1    0    0    0    0 -0.00000000000E+00 -0.00000000000E+00 -0.45593999997E+02  0.45594000000E+02  0.51100000000E-03 0.  1.
         23    2    1    2    0    0 -0.88817841970E-15  0.88817841970E-15  0.00000000000E+00  0.91188000000E+02  0.91188000000E+02 0.  0.
    9900012    2    3    3    0    0  0.20443673434E+01 -0.78298773915E+01 -0.35920641777E+02  0.54367096650E+02  0.40000028434E+02 0.  0.
         12    1    3    3    0    0 -0.20443673434E+01  0.78298773915E+01  0.35920641777E+02  0.36820903350E+02  0.00000000000E+00 0. -1.
         11    1    4    4    0    0  0.15096814810E+02  0.30040771920E+01 -0.10507552544E+02  0.18637246522E+02  0.51100000000E-03 0. -1.
        -11    1    4    4    0    0  0.16519406345E+01 -0.70737588490E+01 -0.16742013145E+02  0.18249985658E+02  0.51100000000E-03 0.  1.
         12    1    4    4    0    0 -0.14704388101E+02 -0.37601957344E+01 -0.86710760886E+01  0.17479864471E+02  0.00000000000E+00 0. -1.
</event>
<event>
 8    1  0.1238315E-006  0.9118800E+02  0.7816164E-02  0.1184000E+00
        -11   -1    0    0    0    0  0.00000000000E+00  0.00000000000E+00  0.45593999997E+02  0.45594000000E+02  0.51100000000E-03 0.  1.
         11   -1    0    0    0    0 -0.00000000000E+00 -0.00000000000E+00 -0.45593999997E+02  0.45594000000E+02  0.51100000000E-03 0. -1.
         23    2    1    2    0    0  0.88817841970E-15  0.00000000000E+00 -0.71054273576E-14  0.91188000000E+02  0.91188000000E+02 0.  0.
    9900012    2    3    3    0    0  0.73529441277E+01 -0.14252143777E+02  0.33145019817E+02  0.54367058564E+02  0.39999941609E+02 0.  0.
         12    1    3    3    0    0 -0.73529441277E+01  0.14252143777E+02 -0.33145019817E+02  0.36820941436E+02  0.00000000000E+00 0. -1.
         11    1    4    4    0    0  0.62914823530E+01 -0.98719493899E+01  0.95932374797E+01  0.15135003818E+02  0.51100000000E-03 0. -1.
        -11    1    4    4    0    0 -0.79241130007E+01 -0.15298493896E+02  0.13345721313E+02  0.21793204445E+02  0.51100000000E-03 0.  1.
         12    1    4    4    0    0  0.89855747754E+01  0.10918299510E+02  0.10206061023E+02  0.17438850302E+02  0.00000000000E+00 0. -1.
</event>
<event>
 8    1  0.1238315E-006  0.9118800E+02  0.7816164E-02  0.1184000E+00
        -11   -1    0    0    0    0  0.00000000000E+00  0.00000000000E+00  0.45593999997E+02  0.45594000000E+02  0.51100000000E-03 0.  1.
         11   -1    0    0    0    0 -0.00000000000E+00 -0.00000000000E+00 -0.45593999997E+02  0.45594000000E+02  0.51100000000E-03 0. -1.
         23    2    1    2    0    0 -0.35527136788E-14  0.35527136788E-14 -0.17763568394E-14  0.91188000000E+02  0.91188000000E+02 0.  0.
    9900012    2    3    3    0    0 -0.23560957938E+02  0.26808718852E+02 -0.90527684953E+01  0.54367098832E+02  0.40000033407E+02 0.  0.
        -12    1    3    3    0    0  0.23560957938E+02 -0.26808718852E+02  0.90527684953E+01  0.36820901168E+02  0.00000000000E+00 0.  1.
         11    1    4    4    0    0 -0.22524151061E+02  0.26290464813E+02 -0.50205457278E+01  0.34981878177E+02  0.51100000000E-03 0. -1.
        -11    1    4    4    0    0  0.29392073210E+01  0.51372513702E+01 -0.95029879218E+01  0.11195404013E+02  0.51100000000E-03 0.  1.
         12    1    4    4    0    0 -0.39760141977E+01 -0.46189973319E+01  0.54707651543E+01  0.81898166417E+01  0.00000000000E+00 0. -1.
</event>
<event>
 8    1  0.1238315E-006  0.9118800E+02  0.7816164E-02  0.1184000E+00
        -11   -1    0    0    0    0  0.00000000000E+00  0.00000000000E+00  0.45593999997E+02  0.45594000000E+02  0.51100000000E-03 0. -1.
         11   -1    0    0    0    0 -0.00000000000E+00 -0.00000000000E+00 -0.45593999997E+02  0.45594000000E+02  0.51100000000E-03 0.  1.
         23    2    1    2    0    0  0.00000000000E+00 -0.44408920985E-15  0.00000000000E+00  0.91188000000E+02  0.91188000000E+02 0.  0.
    9900012    2    3    3    0    0  0.81943921912E+01  0.25092604168E+01 -0.35809697771E+02  0.54367096893E+02  0.40000028986E+02 0.  0.
         12    1    3    3    0    0 -0.81943921912E+01 -0.25092604168E+01  0.35809697771E+02  0.36820903107E+02  0.00000000000E+00 0. -1.
         11    1    4    4    0    0 -0.70774768659E+01 -0.82811132349E+01 -0.11613542905E+02  0.15922998909E+02  0.51100000000E-03 0. -1.
        -11    1    4    4    0    0  0.98165911271E+01  0.11318742335E+02 -0.14565014248E+01  0.15053264963E+02  0.51100000000E-03 0.  1.
        -12    1    4    4    0    0  0.54552779300E+01 -0.52836868282E+00 -0.22739653441E+02  0.23390833020E+02  0.00000000000E+00 0.  1.
</event>
<event>
 8    1  0.1238315E-006  0.9118800E+02  0.7816164E-02  0.1184000E+00
        -11   -1    0    0    0    0  0.00000000000E+00  0.00000000000E+00  0.45593999997E+02  0.45594000000E+02  0.51100000000E-03 0.  1.
         11   -1    0    0    0    0 -0.00000000000E+00 -0.00000000000E+00 -0.45593999997E+02  0.45594000000E+02  0.51100000000E-03 0. -1.
         23    2    1    2    0    0  0.00000000000E+00  0.00000000000E+00 -0.35527136788E-14  0.91188000000E+02  0.91188000000E+02 0.  0.
    9900012    2    3    3    0    0 -0.20165424768E+02  0.22841095042E+02 -0.20674108395E+02  0.54367099187E+02  0.40000034217E+02 0.  0.
        -12    1    3    3    0    0  0.20165424768E+02 -0.22841095042E+02  0.20674108395E+02  0.36820900813E+02  0.00000000000E+00 0.  1.
         11    1    4    4    0    0 -0.38202216884E+01 -0.37607304001E+01  0.49814849793E+01  0.73179491493E+01  0.51100000000E-03 0. -1.
        -11    1    4    4    0    0 -0.90459043105E+01  0.20667661856E+02 -0.33073762164E+01  0.22801740483E+02  0.51100000000E-03 0.  1.
         12    1    4    4    0    0 -0.72992987687E+01  0.59341635860E+01 -0.22348217158E+02  0.24247409554E+02  0.00000000000E+00 0. -1.
</event>
<event>
 8    1  0.1238315E-006  0.9118800E+02  0.7816164E-02  0.1184000E+00
        -11   -1    0    0    0    0  0.00000000000E+00  0.00000000000E+00  0.45593999997E+02  0.45594000000E+02  0.51100000000E-03 0. -1.
         11   -1    0    0    0    0 -0.00000000000E+00 -0.00000000000E+00 -0.45593999997E+02  0.45594000000E+02  0.51100000000E-03 0.  1.
         23    2    1    2    0    0  0.00000000000E+00  0.17763568394E-14  0.00000000000E+00  0.91188000000E+02  0.91188000000E+02 0.  0.
    9900012    2    3    3    0    0 -0.10480216140E+02 -0.11987757190E+02 -0.33199959360E+02  0.54367101664E+02  0.40000039863E+02 0.  0.
         12    1    3    3    0    0  0.10480216140E+02  0.11987757190E+02  0.33199959360E+02  0.36820898336E+02  0.00000000000E+00 0. -1.
         11    1    4    4    0    0 -0.80659360122E+01 -0.95529609251E+01 -0.99635037732E+01  0.15987175920E+02  0.51100000000E-03 0. -1.
        -11    1    4    4    0    0 -0.14517227991E+02 -0.56026299820E+01 -0.20213356660E+02  0.25509197537E+02  0.51100000000E-03 0.  1.
         12    1    4    4    0    0  0.12102947864E+02  0.31678337176E+01 -0.30230989267E+01  0.12870728207E+02  0.00000000000E+00 0. -1.
</event>
<event>
 8    1  0.1238315E-006  0.9118800E+02  0.7816164E-02  0.1184000E+00
        -11   -1    0    0    0    0  0.00000000000E+00  0.00000000000E+00  0.45593999997E+02  0.45594000000E+02  0.51100000000E-03 0. -1.
         11   -1    0    0    0    0 -0.00000000000E+00 -0.00000000000E+00 -0.45593999997E+02  0.45594000000E+02  0.51100000000E-03 0.  1.
         23    2    1    2    0    0 -0.17763568394E-14  0.88817841970E-15 -0.71054273576E-14  0.91188000000E+02  0.91188000000E+02 0.  0.
    9900012    2    3    3    0    0 -0.12781903314E+02  0.45253035358E+01 -0.34233342302E+02  0.54367120738E+02  0.40000083347E+02 0.  0.
         12    1    3    3    0    0  0.12781903314E+02 -0.45253035358E+01  0.34233342302E+02  0.36820879262E+02  0.00000000000E+00 0. -1.
         11    1    4    4    0    0  0.28925701863E+00 -0.68864797246E+01  0.13199621576E+01  0.70178039998E+01  0.51100000000E-03 0. -1.
        -11    1    4    4    0    0 -0.84138394375E+01  0.77413527601E+01 -0.38896451194E+02  0.40542017123E+02  0.51100000000E-03 0.  1.
        -12    1    4    4    0    0 -0.46573208948E+01  0.36704305003E+01  0.33431467339E+01  0.68072996158E+01  0.00000000000E+00 0.  1.
</event>
<event>
 8    1  0.1238315E-006  0.9118800E+02  0.7816164E-02  0.1184000E+00
        -11   -1    0    0    0    0  0.00000000000E+00  0.00000000000E+00  0.45593999997E+02  0.45594000000E+02  0.51100000000E-03 0.  1.
         11   -1    0    0    0    0 -0.00000000000E+00 -0.00000000000E+00 -0.45593999997E+02  0.45594000000E+02  0.51100000000E-03 0. -1.
         23    2    1    2    0    0  0.00000000000E+00  0.00000000000E+00  0.00000000000E+00  0.91188000000E+02  0.91188000000E+02 0.  0.
    9900012    2    3    3    0    0 -0.56146987116E+00  0.32760865707E+02 -0.16798532165E+02  0.54367078594E+02  0.39999987271E+02 0.  0.
        -12    1    3    3    0    0  0.56146987116E+00 -0.32760865707E+02  0.16798532165E+02  0.36820921406E+02  0.00000000000E+00 0.  1.
         11    1    4    4    0    0  0.65842151926E+00 -0.34975668402E+01 -0.55923215039E+01  0.66287670621E+01  0.51100000000E-03 0. -1.
        -11    1    4    4    0    0  0.64642450559E+00  0.99969767331E+01  0.98325943835E+01  0.14036998291E+02  0.51100000000E-03 0.  1.
         12    1    4    4    0    0 -0.18663158960E+01  0.26261455814E+02 -0.21038805045E+02  0.33701313241E+02  0.00000000000E+00 0. -1.
</event>
<event>
 8    1  0.1238315E-006  0.9118800E+02  0.7816164E-02  0.1184000E+00
        -11   -1    0    0    0    0  0.00000000000E+00  0.00000000000E+00  0.45593999997E+02  0.45594000000E+02  0.51100000000E-03 0.  1.
         11   -1    0    0    0    0 -0.00000000000E+00 -0.00000000000E+00 -0.45593999997E+02  0.45594000000E+02  0.51100000000E-03 0. -1.
         23    2    1    2    0    0  0.00000000000E+00  0.00000000000E+00  0.00000000000E+00  0.91188000000E+02  0.91188000000E+02 0.  0.
    9900012    2    3    3    0    0  0.19443098136E+02  0.30189347962E+02  0.81454424980E+01  0.54367095217E+02  0.40000025167E+02 0.  0.
         12    1    3    3    0    0 -0.19443098136E+02 -0.30189347962E+02 -0.81454424980E+01  0.36820904783E+02  0.00000000000E+00 0. -1.
         11    1    4    4    0    0  0.17837524841E+02  0.13980178119E+00  0.64291992839E+01  0.18961314318E+02  0.51100000000E-03 0. -1.
        -11    1    4    4    0    0  0.19037780585E+01  0.16815383975E+02  0.10127722791E+02  0.19721873094E+02  0.51100000000E-03 0.  1.
         12    1    4    4    0    0 -0.29820476301E+00  0.13234162206E+02 -0.84114795773E+01  0.15683907806E+02  0.00000000000E+00 0. -1.
</event>
<event>
 8    1  0.1238315E-006  0.9118800E+02  0.7816164E-02  0.1184000E+00
        -11   -1    0    0    0    0  0.00000000000E+00  0.00000000000E+00  0.45593999997E+02  0.45594000000E+02  0.51100000000E-03 0.  1.
         11   -1    0    0    0    0 -0.00000000000E+00 -0.00000000000E+00 -0.45593999997E+02  0.45594000000E+02  0.51100000000E-03 0. -1.
         23    2    1    2    0    0  0.00000000000E+00 -0.35527136788E-14  0.00000000000E+00  0.91188000000E+02  0.91188000000E+02 0.  0.
    9900012    2    3    3    0    0  0.95299811248E+01 -0.17337159181E+02 -0.31054521633E+02  0.54367069233E+02  0.39999965931E+02 0.  0.
        -12    1    3    3    0    0 -0.95299811248E+01  0.17337159181E+02  0.31054521633E+02  0.36820930767E+02  0.00000000000E+00 0.  1.
         11    1    4    4    0    0  0.12813655080E+02 -0.67857812946E+01 -0.62949120065E+01  0.15807039625E+02  0.51100000000E-03 0. -1.
        -11    1    4    4    0    0  0.83821344195E+01 -0.13497562824E+02 -0.76265109931E+01  0.17624075856E+02  0.51100000000E-03 0.  1.
        -12    1    4    4    0    0 -0.11665808375E+02  0.29461849369E+01 -0.17133098633E+02  0.20935953751E+02  0.00000000000E+00 0.  1.
</event>
<event>
 8    1  0.1238315E-006  0.9118800E+02  0.7816164E-02  0.1184000E+00
        -11   -1    0    0    0    0  0.00000000000E+00  0.00000000000E+00  0.45593999997E+02  0.45594000000E+02  0.51100000000E-03 0. -1.
         11   -1    0    0    0    0 -0.00000000000E+00 -0.00000000000E+00 -0.45593999997E+02  0.45594000000E+02  0.51100000000E-03 0.  1.
         23    2    1    2    0    0 -0.88817841970E-15  0.00000000000E+00 -0.17763568394E-14  0.91188000000E+02  0.91188000000E+02 0.  0.
    9900012    2    3    3    0    0  0.33003746585E+01 -0.35287617106E+02 -0.99835741830E+01  0.54367080031E+02  0.39999990547E+02 0.  0.
         12    1    3    3    0    0 -0.33003746585E+01  0.35287617106E+02  0.99835741830E+01  0.36820919969E+02  0.00000000000E+00 0. -1.
         11    1    4    4    0    0 -0.17761537166E+01 -0.11457688405E+02  0.12072891043E+02  0.16738818478E+02  0.51100000000E-03 0. -1.
        -11    1    4    4    0    0  0.10682012575E+02 -0.21378858150E+02 -0.20032193665E+02  0.31184126599E+02  0.51100000000E-03 0.  1.
         12    1    4    4    0    0 -0.56054842002E+01 -0.24510705505E+01 -0.20242715617E+01  0.64441349550E+01  0.00000000000E+00 0. -1.
</event>
<event>
 8    1  0.1238315E-006  0.9118800E+02  0.7816164E-02  0.1184000E+00
        -11   -1    0    0    0    0  0.00000000000E+00  0.00000000000E+00  0.45593999997E+02  0.45594000000E+02  0.51100000000E-03 0. -1.
         11   -1    0    0    0    0 -0.00000000000E+00 -0.00000000000E+00 -0.45593999997E+02  0.45594000000E+02  0.51100000000E-03 0.  1.
         23    2    1    2    0    0  0.00000000000E+00  0.35527136788E-14  0.00000000000E+00  0.91188000000E+02  0.91188000000E+02 0.  0.
    9900012    2    3    3    0    0  0.91229552794E+01 -0.25977687169E+02 -0.24448073521E+02  0.54367124908E+02  0.40000092852E+02 0.  0.
         12    1    3    3    0    0 -0.91229552794E+01  0.25977687169E+02  0.24448073521E+02  0.36820875092E+02  0.00000000000E+00 0. -1.
         11    1    4    4    0    0  0.11898798404E+02  0.38449094160E+01 -0.17206114013E+02  0.21270051518E+02  0.51100000000E-03 0. -1.
        -11    1    4    4    0    0  0.28789344384E+01 -0.88451945145E+01 -0.65190217358E+01  0.11358845635E+02  0.51100000000E-03 0.  1.
         12    1    4    4    0    0 -0.56547775633E+01 -0.20977402070E+02 -0.72293777212E+00  0.21738227755E+02  0.00000000000E+00 0. -1.
</event>
<event>
 8    1  0.1238315E-006  0.9118800E+02  0.7816164E-02  0.1184000E+00
        -11   -1    0    0    0    0  0.00000000000E+00  0.00000000000E+00  0.45593999997E+02  0.45594000000E+02  0.51100000000E-03 0.  1.
         11   -1    0    0    0    0 -0.00000000000E+00 -0.00000000000E+00 -0.45593999997E+02  0.45594000000E+02  0.51100000000E-03 0. -1.
         23    2    1    2    0    0  0.00000000000E+00 -0.88817841970E-15  0.00000000000E+00  0.91188000000E+02  0.91188000000E+02 0.  0.
    9900012    2    3    3    0    0  0.12716860506E+02 -0.45471021901E+01  0.34254718812E+02  0.54367076053E+02  0.39999981478E+02 0.  0.
         12    1    3    3    0    0 -0.12716860506E+02  0.45471021901E+01 -0.34254718812E+02  0.36820923947E+02  0.00000000000E+00 0. -1.
         11    1    4    4    0    0  0.45332416808E+01 -0.11118105052E+02  0.28083626484E+02  0.30542636049E+02  0.51100000000E-03 0.  1.
        -11    1    4    4    0    0  0.47181465660E+01  0.12856919850E+02  0.86873847690E+01  0.16218259753E+02  0.51100000000E-03 0. -1.
         12    1    4    4    0    0  0.34654722592E+01 -0.62859169875E+01 -0.25162924412E+01  0.76061802504E+01  0.00000000000E+00 0. -1.
</event>
<event>
 8    1  0.1238315E-006  0.9118800E+02  0.7816164E-02  0.1184000E+00
        -11   -1    0    0    0    0  0.00000000000E+00  0.00000000000E+00  0.45593999997E+02  0.45594000000E+02  0.51100000000E-03 0.  1.
         11   -1    0    0    0    0 -0.00000000000E+00 -0.00000000000E+00 -0.45593999997E+02  0.45594000000E+02  0.51100000000E-03 0. -1.
         23    2    1    2    0    0  0.71054273576E-14  0.00000000000E+00  0.00000000000E+00  0.91188000000E+02  0.91188000000E+02 0.  0.
    9900012    2    3    3    0    0 -0.33719958349E+02  0.14142175646E+02 -0.43293497896E+01  0.54367082132E+02  0.39999995336E+02 0.  0.
         12    1    3    3    0    0  0.33719958349E+02 -0.14142175646E+02  0.43293497896E+01  0.36820917868E+02  0.00000000000E+00 0. -1.
         11    1    4    4    0    0  0.47900399142E+01  0.10904221566E+02  0.53825102354E+00  0.11922090620E+02  0.51100000000E-03 0. -1.
        -11    1    4    4    0    0 -0.38150711425E+02  0.41343053196E+01 -0.92433228321E+00  0.38385200966E+02  0.51100000000E-03 0.  1.
        -12    1    4    4    0    0 -0.35928683766E+00 -0.89635123976E+00 -0.39432685299E+01  0.40597905458E+01  0.00000000000E+00 0.  1.
</event>
<event>
 8    1  0.1238315E-006  0.9118800E+02  0.7816164E-02  0.1184000E+00
        -11   -1    0    0    0    0  0.00000000000E+00  0.00000000000E+00  0.45593999997E+02  0.45594000000E+02  0.51100000000E-03 0. -1.
         11   -1    0    0    0    0 -0.00000000000E+00 -0.00000000000E+00 -0.45593999997E+02  0.45594000000E+02  0.51100000000E-03 0.  1.
         23    2    1    2    0    0  0.17763568394E-14 -0.35527136788E-14  0.00000000000E+00  0.91188000000E+02  0.91188000000E+02 0.  0.
    9900012    2    3    3    0    0 -0.15424886250E+02 -0.20332579927E+02 -0.26541255994E+02  0.54367093004E+02  0.40000020120E+02 0.  0.
         12    1    3    3    0    0  0.15424886250E+02  0.20332579927E+02  0.26541255994E+02  0.36820906996E+02  0.00000000000E+00 0. -1.
         11    1    4    4    0    0 -0.86985394514E+01 -0.21018240258E+02  0.21968790347E+01  0.22852949260E+02  0.51100000000E-03 0. -1.
        -11    1    4    4    0    0 -0.76700888070E+00  0.52988163253E+01 -0.10692174868E+02  0.11957774071E+02  0.51100000000E-03 0.  1.
        -12    1    4    4    0    0 -0.59593379182E+01 -0.46131559946E+01 -0.18045960161E+02  0.19556369673E+02  0.00000000000E+00 0.  1.
</event>
<event>
 8    1  0.1238315E-006  0.9118800E+02  0.7816164E-02  0.1184000E+00
        -11   -1    0    0    0    0  0.00000000000E+00  0.00000000000E+00  0.45593999997E+02  0.45594000000E+02  0.51100000000E-03 0.  1.
         11   -1    0    0    0    0 -0.00000000000E+00 -0.00000000000E+00 -0.45593999997E+02  0.45594000000E+02  0.51100000000E-03 0. -1.
         23    2    1    2    0    0  0.00000000000E+00  0.17763568394E-14  0.00000000000E+00  0.91188000000E+02  0.91188000000E+02 0.  0.
    9900012    2    3    3    0    0  0.16828924794E+02  0.10691117267E+02  0.30955874172E+02  0.54367097732E+02  0.40000030899E+02 0.  0.
         12    1    3    3    0    0 -0.16828924794E+02 -0.10691117267E+02 -0.30955874172E+02  0.36820902268E+02  0.00000000000E+00 0. -1.
         11    1    4    4    0    0 -0.81722947842E+01  0.19351390683E+01  0.79514477597E+01  0.11565322606E+02  0.51100000000E-03 0. -1.
        -11    1    4    4    0    0  0.12102605016E+02  0.62171842599E+01 -0.27545556759E+01  0.13882147007E+02  0.51100000000E-03 0.  1.
        -12    1    4    4    0    0  0.12898614562E+02  0.25387939388E+01  0.25758982088E+02  0.28919628118E+02  0.00000000000E+00 0.  1.
</event>
<event>
 8    1  0.1238315E-006  0.9118800E+02  0.7816164E-02  0.1184000E+00
        -11   -1    0    0    0    0  0.00000000000E+00  0.00000000000E+00  0.45593999997E+02  0.45594000000E+02  0.51100000000E-03 0.  1.
         11   -1    0    0    0    0 -0.00000000000E+00 -0.00000000000E+00 -0.45593999997E+02  0.45594000000E+02  0.51100000000E-03 0. -1.
         23    2    1    2    0    0  0.00000000000E+00  0.00000000000E+00  0.00000000000E+00  0.91188000000E+02  0.91188000000E+02 0.  0.
    9900012    2    3    3    0    0 -0.59281070006E+01 -0.19843263712E+02 -0.30444735479E+02  0.54367089016E+02  0.40000011029E+02 0.  0.
        -12    1    3    3    0    0  0.59281070006E+01  0.19843263712E+02  0.30444735479E+02  0.36820910984E+02  0.00000000000E+00 0.  1.
         11    1    4    4    0    0 -0.68806767979E+01 -0.24912248358E+02 -0.22747451593E+02  0.34429789219E+02  0.51100000000E-03 0.  1.
        -11    1    4    4    0    0 -0.46752683572E+01 -0.45804945088E+01 -0.32514772056E+00  0.65532271026E+01  0.51100000000E-03 0. -1.
         12    1    4    4    0    0  0.56278381545E+01  0.96494791546E+01 -0.73721361647E+01  0.13384072694E+02  0.00000000000E+00 0. -1.
</event>
<event>
 8    1  0.1238315E-006  0.9118800E+02  0.7816164E-02  0.1184000E+00
        -11   -1    0    0    0    0  0.00000000000E+00  0.00000000000E+00  0.45593999997E+02  0.45594000000E+02  0.51100000000E-03 0. -1.
         11   -1    0    0    0    0 -0.00000000000E+00 -0.00000000000E+00 -0.45593999997E+02  0.45594000000E+02  0.51100000000E-03 0.  1.
         23    2    1    2    0    0  0.49960036108E-15  0.71054273576E-14 -0.49960036108E-15  0.91188000000E+02  0.91188000000E+02 0.  0.
    9900012    2    3    3    0    0 -0.19420932072E+00  0.36818578228E+02 -0.36754504115E+00  0.54367075116E+02  0.39999979341E+02 0.  0.
        -12    1    3    3    0    0  0.19420932072E+00 -0.36818578228E+02  0.36754504115E+00  0.36820924884E+02  0.00000000000E+00 0.  1.
         11    1    4    4    0    0  0.44131301635E+01  0.10578383479E+02  0.85538232285E+01  0.14301951159E+02  0.51100000000E-03 0. -1.
        -11    1    4    4    0    0  0.19575665852E+00 -0.60738141136E+01 -0.33026922061E+01  0.69164524596E+01  0.51100000000E-03 0.  1.
        -12    1    4    4    0    0 -0.48030961427E+01  0.32314008862E+02 -0.56186760636E+01  0.33148671497E+02  0.00000000000E+00 0.  1.
</event>
<event>
 8    1  0.1238315E-006  0.9118800E+02  0.7816164E-02  0.1184000E+00
        -11   -1    0    0    0    0  0.00000000000E+00  0.00000000000E+00  0.45593999997E+02  0.45594000000E+02  0.51100000000E-03 0. -1.
         11   -1    0    0    0    0 -0.00000000000E+00 -0.00000000000E+00 -0.45593999997E+02  0.45594000000E+02  0.51100000000E-03 0.  1.
         23    2    1    2    0    0  0.00000000000E+00 -0.17763568394E-14  0.00000000000E+00  0.91188000000E+02  0.91188000000E+02 0.  0.
    9900012    2    3    3    0    0 -0.23368461962E+02 -0.15570092335E+02 -0.23817393152E+02  0.54367068367E+02  0.39999963955E+02 0.  0.
        -12    1    3    3    0    0  0.23368461962E+02  0.15570092335E+02  0.23817393152E+02  0.36820931633E+02  0.00000000000E+00 0.  1.
         11    1    4    4    0    0 -0.36310948190E+00  0.25438506857E+01 -0.95394643933E-01  0.25714052979E+01  0.51100000000E-03 0.  1.
        -11    1    4    4    0    0 -0.14907248123E+02 -0.17434163538E+02 -0.32534624063E+02  0.39808012611E+02  0.51100000000E-03 0. -1.
         12    1    4    4    0    0 -0.80981043571E+01 -0.67977948179E+00  0.88126255546E+01  0.11987650457E+02  0.00000000000E+00 0. -1.
</event>
<event>
 8    1  0.1238315E-006  0.9118800E+02  0.7816164E-02  0.1184000E+00
        -11   -1    0    0    0    0  0.00000000000E+00  0.00000000000E+00  0.45593999997E+02  0.45594000000E+02  0.51100000000E-03 0.  1.
         11   -1    0    0    0    0 -0.00000000000E+00 -0.00000000000E+00 -0.45593999997E+02  0.45594000000E+02  0.51100000000E-03 0. -1.
         23    2    1    2    0    0  0.00000000000E+00  0.22204460493E-15  0.17763568394E-14  0.91188000000E+02  0.91188000000E+02 0.  0.
    9900012    2    3    3    0    0 -0.34334067430E+02 -0.97141762739E+00  0.13266774114E+02  0.54367093794E+02  0.40000021921E+02 0.  0.
         12    1    3    3    0    0  0.34334067430E+02  0.97141762739E+00 -0.13266774114E+02  0.36820906206E+02  0.00000000000E+00 0. -1.
         11    1    4    4    0    0 -0.81957759666E+00  0.58531698436E+01 -0.42547682026E+01  0.72824691811E+01  0.51100000000E-03 0. -1.
        -11    1    4    4    0    0 -0.37479903234E+02 -0.84150008907E+01  0.18598439666E+02  0.42678534941E+02  0.51100000000E-03 0.  1.
        -12    1    4    4    0    0  0.39654134014E+01  0.15904134198E+01 -0.10768973497E+01  0.44060896713E+01  0.00000000000E+00 0.  1.
</event>
<event>
 8    1  0.1238315E-006  0.9118800E+02  0.7816164E-02  0.1184000E+00
        -11   -1    0    0    0    0  0.00000000000E+00  0.00000000000E+00  0.45593999997E+02  0.45594000000E+02  0.51100000000E-03 0.  1.
         11   -1    0    0    0    0 -0.00000000000E+00 -0.00000000000E+00 -0.45593999997E+02  0.45594000000E+02  0.51100000000E-03 0. -1.
         23    2    1    2    0    0 -0.35527136788E-14 -0.35527136788E-14 -0.71054273576E-14  0.91188000000E+02  0.91188000000E+02 0.  0.
    9900012    2    3    3    0    0  0.92188005624E+01  0.26517731090E+02  0.23824431580E+02  0.54367083579E+02  0.39999998634E+02 0.  0.
         12    1    3    3    0    0 -0.92188005624E+01 -0.26517731090E+02 -0.23824431580E+02  0.36820916421E+02  0.00000000000E+00 0. -1.
         11    1    4    4    0    0  0.46037033092E+01  0.20145722088E+01 -0.43643971070E+01  0.66558656621E+01  0.51100000000E-03 0. -1.
        -11    1    4    4    0    0  0.16328362330E+02  0.13366090394E+02  0.21776304679E+02  0.30322850040E+02  0.51100000000E-03 0.  1.
         12    1    4    4    0    0 -0.11713265077E+02  0.11137068488E+02  0.64125240083E+01  0.17388367877E+02  0.00000000000E+00 0. -1.
</event>
<event>
 8    1  0.1238315E-006  0.9118800E+02  0.7816164E-02  0.1184000E+00
        -11   -1    0    0    0    0  0.00000000000E+00  0.00000000000E+00  0.45593999997E+02  0.45594000000E+02  0.51100000000E-03 0.  1.
         11   -1    0    0    0    0 -0.00000000000E+00 -0.00000000000E+00 -0.45593999997E+02  0.45594000000E+02  0.51100000000E-03 0. -1.
         23    2    1    2    0    0  0.44408920985E-15  0.00000000000E+00  0.00000000000E+00  0.91188000000E+02  0.91188000000E+02 0.  0.
    9900012    2    3    3    0    0 -0.31997641021E+01 -0.58662812644E+01 -0.36209503050E+02  0.54367083970E+02  0.39999999525E+02 0.  0.
        -12    1    3    3    0    0  0.31997641021E+01  0.58662812644E+01  0.36209503050E+02  0.36820916030E+02  0.00000000000E+00 0.  1.
         11    1    4    4    0    0  0.58040249495E+00 -0.28860449494E+01 -0.22490088907E+02  0.22681936025E+02  0.51100000000E-03 0. -1.
        -11    1    4    4    0    0 -0.48165966465E+01 -0.15323513938E+02 -0.91262056440E+01  0.18474233743E+02  0.51100000000E-03 0.  1.
        -12    1    4    4    0    0  0.10364300494E+01  0.12343277623E+02 -0.45932084988E+01  0.13210914202E+02  0.00000000000E+00 0.  1.
</event>
<event>
 8    1  0.1238315E-006  0.9118800E+02  0.7816164E-02  0.1184000E+00
        -11   -1    0    0    0    0  0.00000000000E+00  0.00000000000E+00  0.45593999997E+02  0.45594000000E+02  0.51100000000E-03 0. -1.
         11   -1    0    0    0    0 -0.00000000000E+00 -0.00000000000E+00 -0.45593999997E+02  0.45594000000E+02  0.51100000000E-03 0.  1.
         23    2    1    2    0    0 -0.71054273576E-14 -0.17763568394E-14 -0.44408920985E-15  0.91188000000E+02  0.91188000000E+02 0.  0.
    9900012    2    3    3    0    0 -0.35219124680E+02 -0.10105908363E+02  0.36419975569E+01  0.54367078321E+02  0.39999986648E+02 0.  0.
        -12    1    3    3    0    0  0.35219124680E+02  0.10105908363E+02 -0.36419975569E+01  0.36820921679E+02  0.00000000000E+00 0.  1.
         11    1    4    4    0    0  0.17055629456E+01 -0.44089498863E+01  0.79005693147E+01  0.92068876293E+01  0.51100000000E-03 0. -1.
        -11    1    4    4    0    0 -0.37013011908E+01 -0.39610573202E+01 -0.10023571462E+02  0.11395682986E+02  0.51100000000E-03 0.  1.
         12    1    4    4    0    0 -0.33223386435E+02 -0.17359011568E+01  0.57649997041E+01  0.33764507706E+02  0.00000000000E+00 0. -1.
</event>
<event>
 8    1  0.1238315E-006  0.9118800E+02  0.7816164E-02  0.1184000E+00
        -11   -1    0    0    0    0  0.00000000000E+00  0.00000000000E+00  0.45593999997E+02  0.45594000000E+02  0.51100000000E-03 0. -1.
         11   -1    0    0    0    0 -0.00000000000E+00 -0.00000000000E+00 -0.45593999997E+02  0.45594000000E+02  0.51100000000E-03 0.  1.
         23    2    1    2    0    0  0.35527136788E-14  0.00000000000E+00  0.17763568394E-14  0.91188000000E+02  0.91188000000E+02 0.  0.
    9900012    2    3    3    0    0  0.23954442230E+02  0.24533625931E+02 -0.13418844633E+02  0.54367088887E+02  0.40000010736E+02 0.  0.
         12    1    3    3    0    0 -0.23954442230E+02 -0.24533625931E+02  0.13418844633E+02  0.36820911113E+02  0.00000000000E+00 0. -1.
         11    1    4    4    0    0  0.89088459634E+01  0.27007665577E+01  0.10679149896E+00  0.93098378656E+01  0.51100000000E-03 0. -1.
        -11    1    4    4    0    0  0.18731717693E+02  0.27886495101E+02 -0.16431735397E+02  0.37397002355E+02  0.51100000000E-03 0.  1.
         12    1    4    4    0    0 -0.36861214260E+01 -0.60536357281E+01  0.29060992645E+01  0.76602486664E+01  0.00000000000E+00 0. -1.
</event>
<event>
 8    1  0.1238315E-006  0.9118800E+02  0.7816164E-02  0.1184000E+00
        -11   -1    0    0    0    0  0.00000000000E+00  0.00000000000E+00  0.45593999997E+02  0.45594000000E+02  0.51100000000E-03 0. -1.
         11   -1    0    0    0    0 -0.00000000000E+00 -0.00000000000E+00 -0.45593999997E+02  0.45594000000E+02  0.51100000000E-03 0.  1.
         23    2    1    2    0    0  0.17763568394E-14  0.35527136788E-14  0.35527136788E-14  0.91188000000E+02  0.91188000000E+02 0.  0.
    9900012    2    3    3    0    0  0.15407199851E+02  0.25822149431E+02  0.21251215073E+02  0.54367090851E+02  0.40000015213E+02 0.  0.
        -12    1    3    3    0    0 -0.15407199851E+02 -0.25822149431E+02 -0.21251215073E+02  0.36820909149E+02  0.00000000000E+00 0.  1.
         11    1    4    4    0    0  0.43231132635E+01  0.25542190371E+01 -0.76438705976E+00  0.50791368378E+01  0.51100000000E-03 0.  1.
        -11    1    4    4    0    0  0.77286820313E+01 -0.24980649583E+01  0.21842508426E+02  0.23303820053E+02  0.51100000000E-03 0. -1.
         12    1    4    4    0    0  0.33554045565E+01  0.25765995352E+02  0.17309370698E+00  0.25984133960E+02  0.00000000000E+00 0. -1.
</event>
<event>
 8    1  0.1238315E-006  0.9118800E+02  0.7816164E-02  0.1184000E+00
        -11   -1    0    0    0    0  0.00000000000E+00  0.00000000000E+00  0.45593999997E+02  0.45594000000E+02  0.51100000000E-03 0. -1.
         11   -1    0    0    0    0 -0.00000000000E+00 -0.00000000000E+00 -0.45593999997E+02  0.45594000000E+02  0.51100000000E-03 0.  1.
         23    2    1    2    0    0  0.00000000000E+00 -0.35527136788E-14  0.17763568394E-14  0.91188000000E+02  0.91188000000E+02 0.  0.
    9900012    2    3    3    0    0 -0.28362463413E+02  0.19510829543E+02 -0.13064524167E+02  0.54367033255E+02  0.39999883911E+02 0.  0.
         12    1    3    3    0    0  0.28362463413E+02 -0.19510829543E+02  0.13064524167E+02  0.36820966745E+02  0.00000000000E+00 0. -1.
         11    1    4    4    0    0 -0.12848767595E+01  0.53842711159E+01 -0.10185674918E+02  0.11592638074E+02  0.51100000000E-03 0. -1.
        -11    1    4    4    0    0 -0.49200476350E+01 -0.75030831008E+01  0.57170080186E+01  0.10638952284E+02  0.51100000000E-03 0.  1.
         12    1    4    4    0    0 -0.22157539019E+02  0.21629641528E+02 -0.85958572677E+01  0.32135442897E+02  0.00000000000E+00 0. -1.
</event>
<event>
 8    1  0.1238315E-006  0.9118800E+02  0.7816164E-02  0.1184000E+00
        -11   -1    0    0    0    0  0.00000000000E+00  0.00000000000E+00  0.45593999997E+02  0.45594000000E+02  0.51100000000E-03 0. -1.
         11   -1    0    0    0    0 -0.00000000000E+00 -0.00000000000E+00 -0.45593999997E+02  0.45594000000E+02  0.51100000000E-03 0.  1.
         23    2    1    2    0    0  0.00000000000E+00  0.00000000000E+00  0.44408920985E-15  0.91188000000E+02  0.91188000000E+02 0.  0.
    9900012    2    3    3    0    0 -0.16695444024E+02 -0.32742829206E+02 -0.22244479045E+01  0.54367097185E+02  0.40000029654E+02 0.  0.
         12    1    3    3    0    0  0.16695444024E+02  0.32742829206E+02  0.22244479045E+01  0.36820902815E+02  0.00000000000E+00 0. -1.
         11    1    4    4    0    0  0.87119874907E+01 -0.13932000746E+02  0.11492177832E+01  0.16471796277E+02  0.51100000000E-03 0. -1.
        -11    1    4    4    0    0 -0.22462192278E+02 -0.71767508876E+01  0.38423579358E+01  0.23891830193E+02  0.51100000000E-03 0.  1.
        -12    1    4    4    0    0 -0.29452392375E+01 -0.11634077573E+02 -0.72160236234E+01  0.14003470715E+02  0.00000000000E+00 0.  1.
</event>
<event>
 8    1  0.1238315E-006  0.9118800E+02  0.7816164E-02  0.1184000E+00
        -11   -1    0    0    0    0  0.00000000000E+00  0.00000000000E+00  0.45593999997E+02  0.45594000000E+02  0.51100000000E-03 0. -1.
         11   -1    0    0    0    0 -0.00000000000E+00 -0.00000000000E+00 -0.45593999997E+02  0.45594000000E+02  0.51100000000E-03 0.  1.
         23    2    1    2    0    0  0.00000000000E+00  0.35527136788E-14  0.00000000000E+00  0.91188000000E+02  0.91188000000E+02 0.  0.
    9900012    2    3    3    0    0  0.14322509293E+02  0.25932886295E+02  0.21866239453E+02  0.54367064490E+02  0.39999955117E+02 0.  0.
        -12    1    3    3    0    0 -0.14322509293E+02 -0.25932886295E+02 -0.21866239453E+02  0.36820935510E+02  0.00000000000E+00 0.  1.
         11    1    4    4    0    0  0.15585039196E+02  0.48562061861E+01  0.63851737422E+01  0.17528451992E+02  0.51100000000E-03 0. -1.
        -11    1    4    4    0    0  0.30718264226E+00  0.26691389759E+02  0.15766312522E+02  0.31001633170E+02  0.51100000000E-03 0.  1.
        -12    1    4    4    0    0 -0.15697125456E+01 -0.56147096493E+01 -0.28524681142E+00  0.58369793271E+01  0.00000000000E+00 0.  1.
</event>
<event>
 8    1  0.1238315E-006  0.9118800E+02  0.7816164E-02  0.1184000E+00
        -11   -1    0    0    0    0  0.00000000000E+00  0.00000000000E+00  0.45593999997E+02  0.45594000000E+02  0.51100000000E-03 0. -1.
         11   -1    0    0    0    0 -0.00000000000E+00 -0.00000000000E+00 -0.45593999997E+02  0.45594000000E+02  0.51100000000E-03 0.  1.
         23    2    1    2    0    0  0.00000000000E+00  0.00000000000E+00 -0.35527136788E-14  0.91188000000E+02  0.91188000000E+02 0.  0.
    9900012    2    3    3    0    0  0.15546626378E+02 -0.25248248024E+02  0.21831347398E+02  0.54367090869E+02  0.40000015255E+02 0.  0.
        -12    1    3    3    0    0 -0.15546626378E+02  0.25248248024E+02 -0.21831347398E+02  0.36820909131E+02  0.00000000000E+00 0.  1.
         11    1    4    4    0    0  0.17477856815E+02 -0.50041550088E+01  0.72367714256E+01  0.19567521742E+02  0.51100000000E-03 0. -1.
        -11    1    4    4    0    0 -0.27777156186E+00 -0.14342128002E+02 -0.42679054213E+01  0.14966255698E+02  0.51100000000E-03 0.  1.
        -12    1    4    4    0    0 -0.16534588756E+01 -0.59019650129E+01  0.18862481393E+02  0.19833313429E+02  0.00000000000E+00 0.  1.
</event>
<event>
 8    1  0.1238315E-006  0.9118800E+02  0.7816164E-02  0.1184000E+00
        -11   -1    0    0    0    0  0.00000000000E+00  0.00000000000E+00  0.45593999997E+02  0.45594000000E+02  0.51100000000E-03 0. -1.
         11   -1    0    0    0    0 -0.00000000000E+00 -0.00000000000E+00 -0.45593999997E+02  0.45594000000E+02  0.51100000000E-03 0.  1.
         23    2    1    2    0    0  0.35527136788E-14  0.17763568394E-14  0.00000000000E+00  0.91188000000E+02  0.91188000000E+02 0.  0.
    9900012    2    3    3    0    0  0.30706455541E+02  0.90067817664E+01  0.18214553466E+02  0.54367102569E+02  0.40000041926E+02 0.  0.
         12    1    3    3    0    0 -0.30706455541E+02 -0.90067817664E+01 -0.18214553466E+02  0.36820897431E+02  0.00000000000E+00 0. -1.
         11    1    4    4    0    0  0.12535506331E+02 -0.28977843339E+01  0.22670996288E+02  0.26067415406E+02  0.51100000000E-03 0. -1.
        -11    1    4    4    0    0  0.14016271543E+02 -0.13100167452E+01 -0.27385790826E+01  0.14341263107E+02  0.51100000000E-03 0.  1.
        -12    1    4    4    0    0  0.41546776668E+01  0.13214582846E+02 -0.17178637388E+01  0.13958424056E+02  0.00000000000E+00 0.  1.
</event>
<event>
 8    1  0.1238315E-006  0.9118800E+02  0.7816164E-02  0.1184000E+00
        -11   -1    0    0    0    0  0.00000000000E+00  0.00000000000E+00  0.45593999997E+02  0.45594000000E+02  0.51100000000E-03 0. -1.
         11   -1    0    0    0    0 -0.00000000000E+00 -0.00000000000E+00 -0.45593999997E+02  0.45594000000E+02  0.51100000000E-03 0.  1.
         23    2    1    2    0    0  0.00000000000E+00  0.00000000000E+00  0.17763568394E-14  0.91188000000E+02  0.91188000000E+02 0.  0.
    9900012    2    3    3    0    0 -0.11837920938E+02  0.31724420041E+02 -0.14463990403E+02  0.54367051921E+02  0.39999926464E+02 0.  0.
         12    1    3    3    0    0  0.11837920938E+02 -0.31724420041E+02  0.14463990403E+02  0.36820948079E+02  0.00000000000E+00 0. -1.
         11    1    4    4    0    0  0.11319256662E+02  0.19051982504E+02 -0.12795552675E+02  0.25589641991E+02  0.51100000000E-03 0. -1.
        -11    1    4    4    0    0 -0.14528391367E+02  0.52587307121E+01 -0.60409476507E+01  0.16589799673E+02  0.51100000000E-03 0.  1.
         12    1    4    4    0    0 -0.86287862333E+01  0.74137068246E+01  0.43725099222E+01  0.12187610256E+02  0.00000000000E+00 0. -1.
</event>
<event>
 8    1  0.1238315E-006  0.9118800E+02  0.7816164E-02  0.1184000E+00
        -11   -1    0    0    0    0  0.00000000000E+00  0.00000000000E+00  0.45593999997E+02  0.45594000000E+02  0.51100000000E-03 0.  1.
         11   -1    0    0    0    0 -0.00000000000E+00 -0.00000000000E+00 -0.45593999997E+02  0.45594000000E+02  0.51100000000E-03 0. -1.
         23    2    1    2    0    0  0.00000000000E+00  0.00000000000E+00  0.17763568394E-14  0.91188000000E+02  0.91188000000E+02 0.  0.
    9900012    2    3    3    0    0 -0.29142973469E+02  0.16966953922E+02 -0.14784991955E+02  0.54366994919E+02  0.39999796517E+02 0.  0.
        -12    1    3    3    0    0  0.29142973469E+02 -0.16966953922E+02  0.14784991955E+02  0.36821005081E+02  0.00000000000E+00 0.  1.
         11    1    4    4    0    0 -0.15933593903E+02  0.11708896396E+02 -0.97239145493E+01  0.22034794846E+02  0.51100000000E-03 0. -1.
        -11    1    4    4    0    0 -0.48251503352E+01  0.11859812311E+02 -0.13589822392E+02  0.18671381757E+02  0.51100000000E-03 0.  1.
        -12    1    4    4    0    0 -0.83842292317E+01 -0.66017547849E+01  0.85287449857E+01  0.13660818317E+02  0.00000000000E+00 0.  1.
</event>
<event>
 8    1  0.1238315E-006  0.9118800E+02  0.7816164E-02  0.1184000E+00
        -11   -1    0    0    0    0  0.00000000000E+00  0.00000000000E+00  0.45593999997E+02  0.45594000000E+02  0.51100000000E-03 0. -1.
         11   -1    0    0    0    0 -0.00000000000E+00 -0.00000000000E+00 -0.45593999997E+02  0.45594000000E+02  0.51100000000E-03 0.  1.
         23    2    1    2    0    0  0.00000000000E+00 -0.88817841970E-15  0.00000000000E+00  0.91188000000E+02  0.91188000000E+02 0.  0.
    9900012    2    3    3    0    0 -0.32048624231E+02 -0.59406457979E+01 -0.17128158340E+02  0.54367090238E+02  0.40000013815E+02 0.  0.
         12    1    3    3    0    0  0.32048624231E+02  0.59406457979E+01  0.17128158340E+02  0.36820909762E+02  0.00000000000E+00 0. -1.
         11    1    4    4    0    0 -0.36213831083E+00 -0.80820161547E+01 -0.46859506815E+01  0.93492386498E+01  0.51100000000E-03 0. -1.
        -11    1    4    4    0    0 -0.26554480553E+01  0.88594548848E+01 -0.12084306842E+02  0.15217483936E+02  0.51100000000E-03 0.  1.
        -12    1    4    4    0    0 -0.29031037864E+02 -0.67180845280E+01 -0.35790081716E+00  0.29800367652E+02  0.00000000000E+00 0.  1.
</event>
<event>
 8    1  0.1238315E-006  0.9118800E+02  0.7816164E-02  0.1184000E+00
        -11   -1    0    0    0    0  0.00000000000E+00  0.00000000000E+00  0.45593999997E+02  0.45594000000E+02  0.51100000000E-03 0. -1.
         11   -1    0    0    0    0 -0.00000000000E+00 -0.00000000000E+00 -0.45593999997E+02  0.45594000000E+02  0.51100000000E-03 0.  1.
         23    2    1    2    0    0 -0.35527136788E-14 -0.22204460493E-15  0.00000000000E+00  0.91188000000E+02  0.91188000000E+02 0.  0.
    9900012    2    3    3    0    0 -0.21547613402E+02  0.48997784592E+00  0.29853697502E+02  0.54367041619E+02  0.39999902978E+02 0.  0.
         12    1    3    3    0    0  0.21547613402E+02 -0.48997784592E+00 -0.29853697502E+02  0.36820958381E+02  0.00000000000E+00 0. -1.
         11    1    4    4    0    0  0.68187716724E+01 -0.11626168045E+02  0.64845368340E+01  0.14957026734E+02  0.51100000000E-03 0. -1.
        -11    1    4    4    0    0 -0.10894543803E+02  0.81742153282E+01  0.79121190066E+01  0.15751524001E+02  0.51100000000E-03 0.  1.
        -12    1    4    4    0    0 -0.17471841271E+02  0.39419305624E+01  0.15457041661E+02  0.23658490883E+02  0.00000000000E+00 0.  1.
</event>
<event>
 8    1  0.1238315E-006  0.9118800E+02  0.7816164E-02  0.1184000E+00
        -11   -1    0    0    0    0  0.00000000000E+00  0.00000000000E+00  0.45593999997E+02  0.45594000000E+02  0.51100000000E-03 0. -1.
         11   -1    0    0    0    0 -0.00000000000E+00 -0.00000000000E+00 -0.45593999997E+02  0.45594000000E+02  0.51100000000E-03 0.  1.
         23    2    1    2    0    0  0.35527136788E-14 -0.35527136788E-14  0.35527136788E-14  0.91188000000E+02  0.91188000000E+02 0.  0.
    9900012    2    3    3    0    0 -0.15039067554E+02  0.23953001566E+02 -0.23576681651E+02  0.54367085365E+02  0.40000002707E+02 0.  0.
         12    1    3    3    0    0  0.15039067554E+02 -0.23953001566E+02  0.23576681651E+02  0.36820914635E+02  0.00000000000E+00 0. -1.
         11    1    4    4    0    0  0.70842872181E+01 -0.53516425676E+01 -0.50542232936E+01  0.10216279994E+02  0.51100000000E-03 0. -1.
        -11    1    4    4    0    0  0.22089644320E+01  0.28966064710E+01  0.21139716379E+00  0.36489096908E+01  0.51100000000E-03 0.  1.
        -12    1    4    4    0    0 -0.24332319204E+02  0.26408037662E+02 -0.18733855521E+02  0.40501895680E+02  0.00000000000E+00 0.  1.
</event>
<event>
 8    1  0.1238315E-006  0.9118800E+02  0.7816164E-02  0.1184000E+00
        -11   -1    0    0    0    0  0.00000000000E+00  0.00000000000E+00  0.45593999997E+02  0.45594000000E+02  0.51100000000E-03 0.  1.
         11   -1    0    0    0    0 -0.00000000000E+00 -0.00000000000E+00 -0.45593999997E+02  0.45594000000E+02  0.51100000000E-03 0. -1.
         23    2    1    2    0    0 -0.17763568394E-14  0.22204460493E-14  0.00000000000E+00  0.91188000000E+02  0.91188000000E+02 0.  0.
    9900012    2    3    3    0    0 -0.94405640278E+01 -0.14912858823E+01 -0.35558853992E+02  0.54367078230E+02  0.39999986442E+02 0.  0.
        -12    1    3    3    0    0  0.94405640278E+01  0.14912858823E+01  0.35558853992E+02  0.36820921770E+02  0.00000000000E+00 0.  1.
         11    1    4    4    0    0 -0.75612120283E+01 -0.35397765325E+01 -0.59540893804E+01  0.10254419820E+02  0.51100000000E-03 0. -1.
        -11    1    4    4    0    0  0.44734842230E+01  0.15134853443E+02 -0.23565215942E+02  0.28361862642E+02  0.51100000000E-03 0.  1.
        -12    1    4    4    0    0 -0.63528362225E+01 -0.13086362793E+02 -0.60395486694E+01  0.15750795769E+02  0.00000000000E+00 0.  1.
</event>
<event>
 8    1  0.1238315E-006  0.9118800E+02  0.7816164E-02  0.1184000E+00
        -11   -1    0    0    0    0  0.00000000000E+00  0.00000000000E+00  0.45593999997E+02  0.45594000000E+02  0.51100000000E-03 0. -1.
         11   -1    0    0    0    0 -0.00000000000E+00 -0.00000000000E+00 -0.45593999997E+02  0.45594000000E+02  0.51100000000E-03 0.  1.
         23    2    1    2    0    0  0.13322676296E-14  0.00000000000E+00 -0.22204460493E-14  0.91188000000E+02  0.91188000000E+02 0.  0.
    9900012    2    3    3    0    0 -0.38633831965E+01  0.36454991185E+02  0.34477074716E+01  0.54367098344E+02  0.40000032294E+02 0.  0.
        -12    1    3    3    0    0  0.38633831965E+01 -0.36454991185E+02 -0.34477074716E+01  0.36820901656E+02  0.00000000000E+00 0.  1.
         11    1    4    4    0    0 -0.10453270202E+02  0.11142066166E+02  0.82977045112E+00  0.15300490699E+02  0.51100000000E-03 0. -1.
        -11    1    4    4    0    0  0.16694079810E+01  0.38780711519E+01 -0.11958666000E+02  0.12682115424E+02  0.51100000000E-03 0.  1.
        -12    1    4    4    0    0  0.49204790248E+01  0.21434853867E+02  0.14576603020E+02  0.26384492221E+02  0.00000000000E+00 0.  1.
</event>
<event>
 8    1  0.1238315E-006  0.9118800E+02  0.7816164E-02  0.1184000E+00
        -11   -1    0    0    0    0  0.00000000000E+00  0.00000000000E+00  0.45593999997E+02  0.45594000000E+02  0.51100000000E-03 0.  1.
         11   -1    0    0    0    0 -0.00000000000E+00 -0.00000000000E+00 -0.45593999997E+02  0.45594000000E+02  0.51100000000E-03 0. -1.
         23    2    1    2    0    0  0.00000000000E+00  0.00000000000E+00  0.00000000000E+00  0.91188000000E+02  0.91188000000E+02 0.  0.
    9900012    2    3    3    0    0 -0.24097483742E+02  0.13066810691E+02  0.24583535323E+02  0.54367075605E+02  0.39999980457E+02 0.  0.
         12    1    3    3    0    0  0.24097483742E+02 -0.13066810691E+02 -0.24583535323E+02  0.36820924395E+02  0.00000000000E+00 0. -1.
         11    1    4    4    0    0 -0.85345270781E+01  0.17181533211E+01  0.96327439185E+01  0.12983834524E+02  0.51100000000E-03 0. -1.
        -11    1    4    4    0    0 -0.10614701397E+02  0.18533182385E+02  0.21629040558E+02  0.30396811195E+02  0.51100000000E-03 0.  1.
         12    1    4    4    0    0 -0.49482552670E+01 -0.71845250156E+01 -0.66782491541E+01  0.10986429887E+02  0.00000000000E+00 0. -1.
</event>
<event>
 8    1  0.1238315E-006  0.9118800E+02  0.7816164E-02  0.1184000E+00
        -11   -1    0    0    0    0  0.00000000000E+00  0.00000000000E+00  0.45593999997E+02  0.45594000000E+02  0.51100000000E-03 0. -1.
         11   -1    0    0    0    0 -0.00000000000E+00 -0.00000000000E+00 -0.45593999997E+02  0.45594000000E+02  0.51100000000E-03 0.  1.
         23    2    1    2    0    0  0.00000000000E+00  0.00000000000E+00  0.17763568394E-14  0.91188000000E+02  0.91188000000E+02 0.  0.
    9900012    2    3    3    0    0 -0.12144977335E+02  0.32750373858E+02 -0.11648704221E+02  0.54367085123E+02  0.40000002156E+02 0.  0.
         12    1    3    3    0    0  0.12144977335E+02 -0.32750373858E+02  0.11648704221E+02  0.36820914877E+02  0.00000000000E+00 0. -1.
         11    1    4    4    0    0 -0.23099990772E+01  0.10674655124E+02  0.94772867432E+01  0.14460405320E+02  0.51100000000E-03 0. -1.
        -11    1    4    4    0    0 -0.61249033137E+01 -0.14761734507E+01  0.20806972260E+01  0.66349702235E+01  0.51100000000E-03 0.  1.
        -12    1    4    4    0    0 -0.37100749441E+01  0.23551892185E+02 -0.23206688190E+02  0.33271709580E+02  0.00000000000E+00 0.  1.
</event>
<event>
 8    1  0.1238315E-006  0.9118800E+02  0.7816164E-02  0.1184000E+00
        -11   -1    0    0    0    0  0.00000000000E+00  0.00000000000E+00  0.45593999997E+02  0.45594000000E+02  0.51100000000E-03 0.  1.
         11   -1    0    0    0    0 -0.00000000000E+00 -0.00000000000E+00 -0.45593999997E+02  0.45594000000E+02  0.51100000000E-03 0. -1.
         23    2    1    2    0    0 -0.44408920985E-15  0.00000000000E+00  0.00000000000E+00  0.91188000000E+02  0.91188000000E+02 0.  0.
    9900012    2    3    3    0    0  0.33384139089E+01  0.11434258798E+02 -0.34840953610E+02  0.54367091128E+02  0.40000015845E+02 0.  0.
        -12    1    3    3    0    0 -0.33384139089E+01 -0.11434258798E+02  0.34840953610E+02  0.36820908872E+02  0.00000000000E+00 0.  1.
         11    1    4    4    0    0  0.10381448078E+02  0.11396290298E+02 -0.36003371296E+02  0.39164941487E+02  0.51100000000E-03 0. -1.
        -11    1    4    4    0    0  0.35268106277E+00  0.57458329133E+01 -0.20572084925E+00  0.57603212696E+01  0.51100000000E-03 0.  1.
         12    1    4    4    0    0 -0.73957152321E+01 -0.57078644134E+01  0.13681385349E+01  0.94418283720E+01  0.00000000000E+00 0. -1.
</event>
<event>
 8    1  0.1238315E-006  0.9118800E+02  0.7816164E-02  0.1184000E+00
        -11   -1    0    0    0    0  0.00000000000E+00  0.00000000000E+00  0.45593999997E+02  0.45594000000E+02  0.51100000000E-03 0.  1.
         11   -1    0    0    0    0 -0.00000000000E+00 -0.00000000000E+00 -0.45593999997E+02  0.45594000000E+02  0.51100000000E-03 0. -1.
         23    2    1    2    0    0  0.00000000000E+00  0.88817841970E-15  0.00000000000E+00  0.91188000000E+02  0.91188000000E+02 0.  0.
    9900012    2    3    3    0    0  0.11845498315E+02 -0.49201026168E+01 -0.34514595253E+02  0.54367074895E+02  0.39999978838E+02 0.  0.
        -12    1    3    3    0    0 -0.11845498315E+02  0.49201026168E+01  0.34514595253E+02  0.36820925105E+02  0.00000000000E+00 0.  1.
         11    1    4    4    0    0  0.12084178304E+02  0.47702174798E+01 -0.16436751483E+02  0.20951113089E+02  0.51100000000E-03 0. -1.
        -11    1    4    4    0    0 -0.12986569749E+01  0.68536692925E+01  0.21155277324E+01  0.72893587206E+01  0.51100000000E-03 0.  1.
         12    1    4    4    0    0  0.10599769856E+01 -0.16543989389E+02 -0.20193371503E+02  0.26126603085E+02  0.00000000000E+00 0. -1.
</event>
<event>
 8    1  0.1238315E-006  0.9118800E+02  0.7816164E-02  0.1184000E+00
        -11   -1    0    0    0    0  0.00000000000E+00  0.00000000000E+00  0.45593999997E+02  0.45594000000E+02  0.51100000000E-03 0.  1.
         11   -1    0    0    0    0 -0.00000000000E+00 -0.00000000000E+00 -0.45593999997E+02  0.45594000000E+02  0.51100000000E-03 0. -1.
         23    2    1    2    0    0  0.17763568394E-14  0.00000000000E+00  0.00000000000E+00  0.91188000000E+02  0.91188000000E+02 0.  0.
    9900012    2    3    3    0    0 -0.14863942935E+02 -0.10837251843E+02 -0.31896667812E+02  0.54367078711E+02  0.39999987537E+02 0.  0.
        -12    1    3    3    0    0  0.14863942935E+02  0.10837251843E+02  0.31896667812E+02  0.36820921289E+02  0.00000000000E+00 0.  1.
         11    1    4    4    0    0  0.72526201857E+01 -0.12047286116E+02 -0.16531961772E+02  0.21703533413E+02  0.51100000000E-03 0. -1.
        -11    1    4    4    0    0 -0.10648124071E+02  0.40844926314E+01  0.20770012132E+01  0.11592219830E+02  0.51100000000E-03 0.  1.
         12    1    4    4    0    0 -0.11468439050E+02 -0.28744583591E+01 -0.17441707253E+02  0.21071325469E+02  0.00000000000E+00 0. -1.
</event>
<event>
 8    1  0.1238315E-006  0.9118800E+02  0.7816164E-02  0.1184000E+00
        -11   -1    0    0    0    0  0.00000000000E+00  0.00000000000E+00  0.45593999997E+02  0.45594000000E+02  0.51100000000E-03 0. -1.
         11   -1    0    0    0    0 -0.00000000000E+00 -0.00000000000E+00 -0.45593999997E+02  0.45594000000E+02  0.51100000000E-03 0.  1.
         23    2    1    2    0    0 -0.44408920985E-15 -0.71054273576E-14 -0.26645352591E-14  0.91188000000E+02  0.91188000000E+02 0.  0.
    9900012    2    3    3    0    0 -0.21914490634E+01 -0.36515048984E+02 -0.41986127896E+01  0.54367087455E+02  0.40000007470E+02 0.  0.
         12    1    3    3    0    0  0.21914490634E+01  0.36515048984E+02  0.41986127896E+01  0.36820912545E+02  0.00000000000E+00 0. -1.
         11    1    4    4    0    0 -0.97167256854E+00 -0.17975208251E+01  0.92867926554E+01  0.95089298443E+01  0.51100000000E-03 0. -1.
        -11    1    4    4    0    0  0.34315364357E+01 -0.79610988705E+01  0.67528457039E+01  0.10988879056E+02  0.51100000000E-03 0.  1.
        -12    1    4    4    0    0 -0.46513129306E+01 -0.26756429289E+02 -0.20238251149E+02  0.33869278555E+02  0.00000000000E+00 0.  1.
</event>
<event>
 8    1  0.1238315E-006  0.9118800E+02  0.7816164E-02  0.1184000E+00
        -11   -1    0    0    0    0  0.00000000000E+00  0.00000000000E+00  0.45593999997E+02  0.45594000000E+02  0.51100000000E-03 0.  1.
         11   -1    0    0    0    0 -0.00000000000E+00 -0.00000000000E+00 -0.45593999997E+02  0.45594000000E+02  0.51100000000E-03 0. -1.
         23    2    1    2    0    0  0.00000000000E+00  0.00000000000E+00  0.13877787808E-14  0.91188000000E+02  0.91188000000E+02 0.  0.
    9900012    2    3    3    0    0 -0.11075620261E+01 -0.36801755932E+02 -0.43103621383E+00  0.54367058601E+02  0.39999941692E+02 0.  0.
        -12    1    3    3    0    0  0.11075620261E+01  0.36801755932E+02  0.43103621383E+00  0.36820941399E+02  0.00000000000E+00 0.  1.
         11    1    4    4    0    0  0.10877004574E+02 -0.20486806913E+02 -0.84326719368E+01  0.24680527593E+02  0.51100000000E-03 0. -1.
        -11    1    4    4    0    0 -0.13057875571E+01  0.30803927675E+01 -0.34105455695E+01  0.47776272447E+01  0.51100000000E-03 0.  1.
         12    1    4    4    0    0 -0.10678779043E+02 -0.19395341786E+02  0.11412181293E+02  0.24908903763E+02  0.00000000000E+00 0. -1.
</event>
<event>
 8    1  0.1238315E-006  0.9118800E+02  0.7816164E-02  0.1184000E+00
        -11   -1    0    0    0    0  0.00000000000E+00  0.00000000000E+00  0.45593999997E+02  0.45594000000E+02  0.51100000000E-03 0.  1.
         11   -1    0    0    0    0 -0.00000000000E+00 -0.00000000000E+00 -0.45593999997E+02  0.45594000000E+02  0.51100000000E-03 0. -1.
         23    2    1    2    0    0  0.00000000000E+00  0.00000000000E+00  0.00000000000E+00  0.91188000000E+02  0.91188000000E+02 0.  0.
    9900012    2    3    3    0    0 -0.72892884062E+01  0.14858873368E+02 -0.32891615641E+02  0.54367106167E+02  0.40000050128E+02 0.  0.
        -12    1    3    3    0    0  0.72892884062E+01 -0.14858873368E+02  0.32891615641E+02  0.36820893833E+02  0.00000000000E+00 0.  1.
         11    1    4    4    0    0 -0.53202463031E+01  0.76672154783E+01 -0.30942344083E+02  0.32319032651E+02  0.51100000000E-03 0. -1.
        -11    1    4    4    0    0  0.33730312840E+01  0.89351513525E+01  0.67475455935E+01  0.11693743692E+02  0.51100000000E-03 0.  1.
         12    1    4    4    0    0 -0.53420733871E+01 -0.17434934624E+01 -0.86968171515E+01  0.10354329823E+02  0.00000000000E+00 0. -1.
</event>
<event>
 8    1  0.1238315E-006  0.9118800E+02  0.7816164E-02  0.1184000E+00
        -11   -1    0    0    0    0  0.00000000000E+00  0.00000000000E+00  0.45593999997E+02  0.45594000000E+02  0.51100000000E-03 0.  1.
         11   -1    0    0    0    0 -0.00000000000E+00 -0.00000000000E+00 -0.45593999997E+02  0.45594000000E+02  0.51100000000E-03 0. -1.
         23    2    1    2    0    0 -0.35527136788E-14  0.00000000000E+00  0.00000000000E+00  0.91188000000E+02  0.91188000000E+02 0.  0.
    9900012    2    3    3    0    0  0.26286245899E+02 -0.25345884766E+02  0.47327651413E+01  0.54367086596E+02  0.40000005512E+02 0.  0.
        -12    1    3    3    0    0 -0.26286245899E+02  0.25345884766E+02 -0.47327651413E+01  0.36820913404E+02  0.00000000000E+00 0.  1.
         11    1    4    4    0    0  0.19293838888E+01 -0.25776635376E+02  0.80382264111E+01  0.27069734716E+02  0.51100000000E-03 0. -1.
        -11    1    4    4    0    0  0.42077122212E+01 -0.33836209041E+01  0.25492339004E+01  0.59709568998E+01  0.51100000000E-03 0.  1.
        -12    1    4    4    0    0  0.20149149789E+02  0.38143715145E+01 -0.58546951702E+01  0.21326394980E+02  0.00000000000E+00 0.  1.
</event>
<event>
 8    1  0.1238315E-006  0.9118800E+02  0.7816164E-02  0.1184000E+00
        -11   -1    0    0    0    0  0.00000000000E+00  0.00000000000E+00  0.45593999997E+02  0.45594000000E+02  0.51100000000E-03 0.  1.
         11   -1    0    0    0    0 -0.00000000000E+00 -0.00000000000E+00 -0.45593999997E+02  0.45594000000E+02  0.51100000000E-03 0. -1.
         23    2    1    2    0    0 -0.22204460493E-15  0.00000000000E+00  0.17763568394E-14  0.91188000000E+02  0.91188000000E+02 0.  0.
    9900012    2    3    3    0    0  0.11230625932E+01  0.34044250531E+02 -0.13982399956E+02  0.54367085124E+02  0.40000002157E+02 0.  0.
        -12    1    3    3    0    0 -0.11230625932E+01 -0.34044250531E+02  0.13982399956E+02  0.36820914876E+02  0.00000000000E+00 0.  1.
         11    1    4    4    0    0 -0.10640187114E+02  0.20985605507E+02 -0.16251756788E+02  0.28595958093E+02  0.51100000000E-03 0. -1.
        -11    1    4    4    0    0 -0.17299447212E+00  0.95323228602E+01 -0.55893137536E+01  0.11051494682E+02  0.51100000000E-03 0.  1.
        -12    1    4    4    0    0  0.11936244179E+02  0.35263221639E+01  0.78586705858E+01  0.14719632349E+02  0.00000000000E+00 0.  1.
</event>
<event>
 8    1  0.1238315E-006  0.9118800E+02  0.7816164E-02  0.1184000E+00
        -11   -1    0    0    0    0  0.00000000000E+00  0.00000000000E+00  0.45593999997E+02  0.45594000000E+02  0.51100000000E-03 0.  1.
         11   -1    0    0    0    0 -0.00000000000E+00 -0.00000000000E+00 -0.45593999997E+02  0.45594000000E+02  0.51100000000E-03 0. -1.
         23    2    1    2    0    0 -0.35527136788E-14  0.00000000000E+00  0.35527136788E-14  0.91188000000E+02  0.91188000000E+02 0.  0.
    9900012    2    3    3    0    0  0.25988469081E+02  0.20258027694E+02  0.16431418408E+02  0.54367085805E+02  0.40000003710E+02 0.  0.
         12    1    3    3    0    0 -0.25988469081E+02 -0.20258027694E+02 -0.16431418408E+02  0.36820914195E+02  0.00000000000E+00 0. -1.
         11    1    4    4    0    0  0.35233891308E+01  0.14900960764E+02 -0.12041645595E+01  0.15359131330E+02  0.51100000000E-03 0. -1.
        -11    1    4    4    0    0  0.58290617619E+01 -0.95006861628E+01  0.10168492478E+01  0.11192630667E+02  0.51100000000E-03 0.  1.
        -12    1    4    4    0    0  0.16636018189E+02  0.14857753092E+02  0.16618733720E+02  0.27815323808E+02  0.00000000000E+00 0.  1.
</event>
<event>
 8    1  0.1238315E-006  0.9118800E+02  0.7816164E-02  0.1184000E+00
        -11   -1    0    0    0    0  0.00000000000E+00  0.00000000000E+00  0.45593999997E+02  0.45594000000E+02  0.51100000000E-03 0.  1.
         11   -1    0    0    0    0 -0.00000000000E+00 -0.00000000000E+00 -0.45593999997E+02  0.45594000000E+02  0.51100000000E-03 0. -1.
         23    2    1    2    0    0  0.00000000000E+00  0.00000000000E+00  0.35527136788E-14  0.91188000000E+02  0.91188000000E+02 0.  0.
    9900012    2    3    3    0    0 -0.49296507577E+01  0.28542915277E+02 -0.22732819141E+02  0.54367074764E+02  0.39999978540E+02 0.  0.
         12    1    3    3    0    0  0.49296507577E+01 -0.28542915277E+02  0.22732819141E+02  0.36820925236E+02  0.00000000000E+00 0. -1.
         11    1    4    4    0    0 -0.67297260722E+01  0.12968353565E+02 -0.15015175788E+02  0.20950487140E+02  0.51100000000E-03 0. -1.
        -11    1    4    4    0    0  0.46797196267E+01 -0.41292940869E+01 -0.11559031888E+02  0.13136288056E+02  0.51100000000E-03 0.  1.
        -12    1    4    4    0    0 -0.28796443122E+01  0.19703855799E+02  0.38413885345E+01  0.20280299568E+02  0.00000000000E+00 0.  1.
</event>
<event>
 8    1  0.1238315E-006  0.9118800E+02  0.7816164E-02  0.1184000E+00
        -11   -1    0    0    0    0  0.00000000000E+00  0.00000000000E+00  0.45593999997E+02  0.45594000000E+02  0.51100000000E-03 0.  1.
         11   -1    0    0    0    0 -0.00000000000E+00 -0.00000000000E+00 -0.45593999997E+02  0.45594000000E+02  0.51100000000E-03 0. -1.
         23    2    1    2    0    0 -0.35527136788E-14 -0.35527136788E-14  0.35527136788E-14  0.91188000000E+02  0.91188000000E+02 0.  0.
    9900012    2    3    3    0    0  0.15753497015E+02  0.20646441260E+02 -0.26102348840E+02  0.54367070899E+02  0.39999969728E+02 0.  0.
        -12    1    3    3    0    0 -0.15753497015E+02 -0.20646441260E+02  0.26102348840E+02  0.36820929101E+02  0.00000000000E+00 0.  1.
         11    1    4    4    0    0  0.29596998436E+01 -0.37264173567E+01 -0.44153847479E+01  0.64916586643E+01  0.51100000000E-03 0. -1.
        -11    1    4    4    0    0  0.17708726928E+02  0.68426620129E+00 -0.47644176912E+01  0.18351209928E+02  0.51100000000E-03 0.  1.
         12    1    4    4    0    0 -0.49149297559E+01  0.23688592416E+02 -0.16922546401E+02  0.29524202306E+02  0.00000000000E+00 0. -1.
</event>
<event>
 8    1  0.1238315E-006  0.9118800E+02  0.7816164E-02  0.1184000E+00
        -11   -1    0    0    0    0  0.00000000000E+00  0.00000000000E+00  0.45593999997E+02  0.45594000000E+02  0.51100000000E-03 0.  1.
         11   -1    0    0    0    0 -0.00000000000E+00 -0.00000000000E+00 -0.45593999997E+02  0.45594000000E+02  0.51100000000E-03 0. -1.
         23    2    1    2    0    0  0.00000000000E+00  0.35527136788E-14  0.00000000000E+00  0.91188000000E+02  0.91188000000E+02 0.  0.
    9900012    2    3    3    0    0  0.11039256429E+02  0.27820516433E+02 -0.21445996221E+02  0.54367121806E+02  0.40000085780E+02 0.  0.
        -12    1    3    3    0    0 -0.11039256429E+02 -0.27820516433E+02  0.21445996221E+02  0.36820878194E+02  0.00000000000E+00 0.  1.
         11    1    4    4    0    0  0.12339212934E+02  0.23689444576E+02 -0.25012371860E+02  0.36593233069E+02  0.51100000000E-03 0. -1.
        -11    1    4    4    0    0 -0.13495243810E+01  0.89554404944E+01  0.73329989541E+01  0.11653068455E+02  0.51100000000E-03 0.  1.
         12    1    4    4    0    0  0.49567875940E-01 -0.48243686368E+01 -0.37666233149E+01  0.61208202811E+01  0.00000000000E+00 0. -1.
</event>
<event>
 8    1  0.1238315E-006  0.9118800E+02  0.7816164E-02  0.1184000E+00
        -11   -1    0    0    0    0  0.00000000000E+00  0.00000000000E+00  0.45593999997E+02  0.45594000000E+02  0.51100000000E-03 0. -1.
         11   -1    0    0    0    0 -0.00000000000E+00 -0.00000000000E+00 -0.45593999997E+02  0.45594000000E+02  0.51100000000E-03 0.  1.
         23    2    1    2    0    0  0.00000000000E+00 -0.44408920985E-15 -0.35527136788E-14  0.91188000000E+02  0.91188000000E+02 0.  0.
    9900012    2    3    3    0    0  0.22898908097E+02 -0.12497493417E+01 -0.28807252328E+02  0.54367086755E+02  0.40000005876E+02 0.  0.
        -12    1    3    3    0    0 -0.22898908097E+02  0.12497493417E+01  0.28807252328E+02  0.36820913245E+02  0.00000000000E+00 0.  1.
         11    1    4    4    0    0  0.24548137005E+02 -0.58873196253E+01 -0.26750925629E+01  0.25385580223E+02  0.51100000000E-03 0. -1.
        -11    1    4    4    0    0  0.45184697927E+01  0.44777321188E+01 -0.13376877133E+02  0.14812410212E+02  0.51100000000E-03 0.  1.
        -12    1    4    4    0    0 -0.61676987006E+01  0.15983816469E+00 -0.12755282633E+02  0.14169096320E+02  0.00000000000E+00 0.  1.
</event>
<event>
 8    1  0.1238315E-006  0.9118800E+02  0.7816164E-02  0.1184000E+00
        -11   -1    0    0    0    0  0.00000000000E+00  0.00000000000E+00  0.45593999997E+02  0.45594000000E+02  0.51100000000E-03 0.  1.
         11   -1    0    0    0    0 -0.00000000000E+00 -0.00000000000E+00 -0.45593999997E+02  0.45594000000E+02  0.51100000000E-03 0. -1.
         23    2    1    2    0    0  0.00000000000E+00  0.00000000000E+00  0.17763568394E-14  0.91188000000E+02  0.91188000000E+02 0.  0.
    9900012    2    3    3    0    0  0.30739082158E+02  0.17972828604E+02  0.93737894978E+01  0.54367059362E+02  0.39999943427E+02 0.  0.
        -12    1    3    3    0    0 -0.30739082158E+02 -0.17972828604E+02 -0.93737894978E+01  0.36820940638E+02  0.00000000000E+00 0.  1.
         11    1    4    4    0    0  0.72301470033E+00  0.21319345636E+01 -0.71503827452E+01  0.74963903917E+01  0.51100000000E-03 0. -1.
        -11    1    4    4    0    0  0.30020324902E+02  0.22303451494E+02  0.14087430017E+02  0.39963978037E+02  0.51100000000E-03 0.  1.
        -12    1    4    4    0    0 -0.42574440115E-02 -0.64625574540E+01  0.24367422257E+01  0.69066909332E+01  0.00000000000E+00 0.  1.
</event>
<event>
 8    1  0.1238315E-006  0.9118800E+02  0.7816164E-02  0.1184000E+00
        -11   -1    0    0    0    0  0.00000000000E+00  0.00000000000E+00  0.45593999997E+02  0.45594000000E+02  0.51100000000E-03 0. -1.
         11   -1    0    0    0    0 -0.00000000000E+00 -0.00000000000E+00 -0.45593999997E+02  0.45594000000E+02  0.51100000000E-03 0.  1.
         23    2    1    2    0    0  0.17763568394E-14 -0.71054273576E-14 -0.35527136788E-14  0.91188000000E+02  0.91188000000E+02 0.  0.
    9900012    2    3    3    0    0 -0.13576508767E+02  0.29743390725E+02  0.16934859964E+02  0.54367077088E+02  0.39999983837E+02 0.  0.
        -12    1    3    3    0    0  0.13576508767E+02 -0.29743390725E+02 -0.16934859964E+02  0.36820922912E+02  0.00000000000E+00 0.  1.
         11    1    4    4    0    0 -0.10372273896E+02  0.18411911560E+02  0.79925778260E+01  0.22593447139E+02  0.51100000000E-03 0. -1.
        -11    1    4    4    0    0 -0.13449064686E+02 -0.20676943580E+01  0.34932414916E+01  0.14048325070E+02  0.51100000000E-03 0.  1.
        -12    1    4    4    0    0  0.10244829816E+02  0.13399173523E+02  0.54490406469E+01  0.17725304878E+02  0.00000000000E+00 0.  1.
</event>
<event>
 8    1  0.1238315E-006  0.9118800E+02  0.7816164E-02  0.1184000E+00
        -11   -1    0    0    0    0  0.00000000000E+00  0.00000000000E+00  0.45593999997E+02  0.45594000000E+02  0.51100000000E-03 0. -1.
         11   -1    0    0    0    0 -0.00000000000E+00 -0.00000000000E+00 -0.45593999997E+02  0.45594000000E+02  0.51100000000E-03 0.  1.
         23    2    1    2    0    0  0.55511151231E-15  0.14155343564E-14  0.00000000000E+00  0.91188000000E+02  0.91188000000E+02 0.  0.
    9900012    2    3    3    0    0 -0.45028649387E+00 -0.20931174040E+00 -0.36817573769E+02  0.54367077856E+02  0.39999985588E+02 0.  0.
         12    1    3    3    0    0  0.45028649387E+00  0.20931174040E+00  0.36817573769E+02  0.36820922144E+02  0.00000000000E+00 0. -1.
         11    1    4    4    0    0 -0.82648451214E+00 -0.59817344876E+01 -0.32603458262E+01  0.68625126082E+01  0.51100000000E-03 0. -1.
        -11    1    4    4    0    0 -0.49271550976E+01 -0.42645208168E+01 -0.35408126771E+02  0.36002755962E+02  0.51100000000E-03 0.  1.
         12    1    4    4    0    0  0.53033531158E+01  0.10036943564E+02  0.18508988282E+01  0.11501809286E+02  0.00000000000E+00 0. -1.
</event>
<event>
 8    1  0.1238315E-006  0.9118800E+02  0.7816164E-02  0.1184000E+00
        -11   -1    0    0    0    0  0.00000000000E+00  0.00000000000E+00  0.45593999997E+02  0.45594000000E+02  0.51100000000E-03 0. -1.
         11   -1    0    0    0    0 -0.00000000000E+00 -0.00000000000E+00 -0.45593999997E+02  0.45594000000E+02  0.51100000000E-03 0.  1.
         23    2    1    2    0    0  0.00000000000E+00  0.00000000000E+00  0.00000000000E+00  0.91188000000E+02  0.91188000000E+02 0.  0.
    9900012    2    3    3    0    0  0.22947031698E+02  0.13091751862E+02  0.25647992548E+02  0.54367085395E+02  0.40000002775E+02 0.  0.
        -12    1    3    3    0    0 -0.22947031698E+02 -0.13091751862E+02 -0.25647992548E+02  0.36820914605E+02  0.00000000000E+00 0.  1.
         11    1    4    4    0    0  0.77609427743E+01  0.15218692079E+02  0.44740878348E+01  0.17659509720E+02  0.51100000000E-03 0. -1.
        -11    1    4    4    0    0 -0.73236563883E+01 -0.56919401548E-01  0.42321387190E+01  0.84587340135E+01  0.51100000000E-03 0.  1.
         12    1    4    4    0    0  0.22509745312E+02 -0.20700208156E+01  0.16941765995E+02  0.28248841661E+02  0.00000000000E+00 0. -1.
</event>
<event>
 8    1  0.1238315E-006  0.9118800E+02  0.7816164E-02  0.1184000E+00
        -11   -1    0    0    0    0  0.00000000000E+00  0.00000000000E+00  0.45593999997E+02  0.45594000000E+02  0.51100000000E-03 0. -1.
         11   -1    0    0    0    0 -0.00000000000E+00 -0.00000000000E+00 -0.45593999997E+02  0.45594000000E+02  0.51100000000E-03 0.  1.
         23    2    1    2    0    0  0.00000000000E+00  0.00000000000E+00 -0.17763568394E-14  0.91188000000E+02  0.91188000000E+02 0.  0.
    9900012    2    3    3    0    0  0.22753432855E+02  0.25276228775E+02  0.14112888363E+02  0.54367081139E+02  0.39999993074E+02 0.  0.
         12    1    3    3    0    0 -0.22753432855E+02 -0.25276228775E+02 -0.14112888363E+02  0.36820918861E+02  0.00000000000E+00 0. -1.
         11    1    4    4    0    0  0.81148378579E+01  0.22620937449E+01  0.21058142413E+02  0.22680675116E+02  0.51100000000E-03 0. -1.
        -11    1    4    4    0    0  0.44356202808E+01  0.13884311172E+02 -0.99771769449E+01  0.17663320301E+02  0.51100000000E-03 0.  1.
         12    1    4    4    0    0  0.10202974716E+02  0.91298238583E+01  0.30319228951E+01  0.14023085723E+02  0.00000000000E+00 0. -1.
</event>
<event>
 8    1  0.1238315E-006  0.9118800E+02  0.7816164E-02  0.1184000E+00
        -11   -1    0    0    0    0  0.00000000000E+00  0.00000000000E+00  0.45593999997E+02  0.45594000000E+02  0.51100000000E-03 0. -1.
         11   -1    0    0    0    0 -0.00000000000E+00 -0.00000000000E+00 -0.45593999997E+02  0.45594000000E+02  0.51100000000E-03 0.  1.
         23    2    1    2    0    0 -0.88817841970E-15  0.00000000000E+00  0.00000000000E+00  0.91188000000E+02  0.91188000000E+02 0.  0.
    9900012    2    3    3    0    0 -0.54125519157E+01 -0.28007319070E+02  0.23282491596E+02  0.54367081290E+02  0.39999993417E+02 0.  0.
         12    1    3    3    0    0  0.54125519157E+01  0.28007319070E+02 -0.23282491596E+02  0.36820918710E+02  0.00000000000E+00 0. -1.
         11    1    4    4    0    0  0.58151247250E+01  0.34748987760E+01  0.22147703893E+01  0.71271175948E+01  0.51100000000E-03 0. -1.
        -11    1    4    4    0    0 -0.12228469451E+01 -0.18825932436E+02  0.24322877771E+02  0.30781706744E+02  0.51100000000E-03 0.  1.
        -12    1    4    4    0    0 -0.10004829696E+02 -0.12656285410E+02 -0.32551565644E+01  0.16458256951E+02  0.00000000000E+00 0.  1.
</event>
<event>
 8    1  0.1238315E-006  0.9118800E+02  0.7816164E-02  0.1184000E+00
        -11   -1    0    0    0    0  0.00000000000E+00  0.00000000000E+00  0.45593999997E+02  0.45594000000E+02  0.51100000000E-03 0.  1.
         11   -1    0    0    0    0 -0.00000000000E+00 -0.00000000000E+00 -0.45593999997E+02  0.45594000000E+02  0.51100000000E-03 0. -1.
         23    2    1    2    0    0  0.00000000000E+00  0.00000000000E+00  0.35527136788E-14  0.91188000000E+02  0.91188000000E+02 0.  0.
    9900012    2    3    3    0    0 -0.21479864086E+02  0.77349627837E+01 -0.28888833073E+02  0.54367097150E+02  0.40000029572E+02 0.  0.
        -12    1    3    3    0    0  0.21479864086E+02 -0.77349627837E+01  0.28888833073E+02  0.36820902850E+02  0.00000000000E+00 0.  1.
         11    1    4    4    0    0 -0.40895189825E+01  0.76382599750E+01 -0.23687184028E+02  0.25222011585E+02  0.51100000000E-03 0. -1.
        -11    1    4    4    0    0 -0.18388056471E+02  0.77714917909E+01 -0.26373060168E+00  0.19964625204E+02  0.51100000000E-03 0.  1.
        -12    1    4    4    0    0  0.99771136742E+00 -0.76747889822E+01 -0.49379184428E+01  0.91804603611E+01  0.00000000000E+00 0.  1.
</event>
<event>
 8    1  0.1238315E-006  0.9118800E+02  0.7816164E-02  0.1184000E+00
        -11   -1    0    0    0    0  0.00000000000E+00  0.00000000000E+00  0.45593999997E+02  0.45594000000E+02  0.51100000000E-03 0. -1.
         11   -1    0    0    0    0 -0.00000000000E+00 -0.00000000000E+00 -0.45593999997E+02  0.45594000000E+02  0.51100000000E-03 0.  1.
         23    2    1    2    0    0  0.00000000000E+00 -0.35527136788E-14  0.44408920985E-15  0.91188000000E+02  0.91188000000E+02 0.  0.
    9900012    2    3    3    0    0 -0.30914479499E+02  0.19827808249E+02  0.26329157002E+01  0.54367091976E+02  0.40000017778E+02 0.  0.
         12    1    3    3    0    0  0.30914479499E+02 -0.19827808249E+02 -0.26329157002E+01  0.36820908024E+02  0.00000000000E+00 0. -1.
         11    1    4    4    0    0 -0.20057929196E+02  0.27756380884E+02 -0.50641351246E+01  0.34617664107E+02  0.51100000000E-03 0. -1.
        -11    1    4    4    0    0 -0.23735553504E+01 -0.70879654762E+01  0.83414404834E+01  0.11200564682E+02  0.51100000000E-03 0.  1.
         12    1    4    4    0    0 -0.84829949520E+01 -0.84060715926E+00 -0.64438965856E+00  0.85488631867E+01  0.00000000000E+00 0. -1.
</event>
<event>
 8    1  0.1238315E-006  0.9118800E+02  0.7816164E-02  0.1184000E+00
        -11   -1    0    0    0    0  0.00000000000E+00  0.00000000000E+00  0.45593999997E+02  0.45594000000E+02  0.51100000000E-03 0. -1.
         11   -1    0    0    0    0 -0.00000000000E+00 -0.00000000000E+00 -0.45593999997E+02  0.45594000000E+02  0.51100000000E-03 0.  1.
         23    2    1    2    0    0  0.17763568394E-14  0.00000000000E+00 -0.71054273576E-14  0.91188000000E+02  0.91188000000E+02 0.  0.
    9900012    2    3    3    0    0 -0.87863530898E+01  0.12912757069E+01  0.35733907781E+02  0.54367088022E+02  0.40000008764E+02 0.  0.
        -12    1    3    3    0    0  0.87863530898E+01 -0.12912757069E+01 -0.35733907781E+02  0.36820911978E+02  0.00000000000E+00 0.  1.
         11    1    4    4    0    0 -0.10552213332E+02  0.15490377099E+00  0.29648293431E+02  0.31470533917E+02  0.51100000000E-03 0. -1.
        -11    1    4    4    0    0  0.56079732015E+00  0.34561473519E+01  0.14067924384E+02  0.14497101259E+02  0.51100000000E-03 0.  1.
        -12    1    4    4    0    0  0.12050629222E+01 -0.23197754160E+01 -0.79823100348E+01  0.83994528464E+01  0.00000000000E+00 0.  1.
</event>
<event>
 8    1  0.1238315E-006  0.9118800E+02  0.7816164E-02  0.1184000E+00
        -11   -1    0    0    0    0  0.00000000000E+00  0.00000000000E+00  0.45593999997E+02  0.45594000000E+02  0.51100000000E-03 0. -1.
         11   -1    0    0    0    0 -0.00000000000E+00 -0.00000000000E+00 -0.45593999997E+02  0.45594000000E+02  0.51100000000E-03 0.  1.
         23    2    1    2    0    0  0.00000000000E+00 -0.35527136788E-14  0.00000000000E+00  0.91188000000E+02  0.91188000000E+02 0.  0.
    9900012    2    3    3    0    0 -0.25883804972E+02  0.24254173283E+02 -0.98764304573E+01  0.54367079859E+02  0.39999990154E+02 0.  0.
         12    1    3    3    0    0  0.25883804972E+02 -0.24254173283E+02  0.98764304573E+01  0.36820920141E+02  0.00000000000E+00 0. -1.
         11    1    4    4    0    0 -0.11738622594E+02  0.12399194746E+02  0.18529897450E+01  0.17174657551E+02  0.51100000000E-03 0. -1.
        -11    1    4    4    0    0  0.22799698582E+01  0.10579399164E+02 -0.16774522327E+02  0.19962628805E+02  0.51100000000E-03 0.  1.
         12    1    4    4    0    0 -0.16425152235E+02  0.12755793733E+01  0.50451021247E+01  0.17229793503E+02  0.00000000000E+00 0. -1.
</event>
<event>
 8    1  0.1238315E-006  0.9118800E+02  0.7816164E-02  0.1184000E+00
        -11   -1    0    0    0    0  0.00000000000E+00  0.00000000000E+00  0.45593999997E+02  0.45594000000E+02  0.51100000000E-03 0. -1.
         11   -1    0    0    0    0 -0.00000000000E+00 -0.00000000000E+00 -0.45593999997E+02  0.45594000000E+02  0.51100000000E-03 0.  1.
         23    2    1    2    0    0  0.00000000000E+00 -0.17763568394E-14  0.17763568394E-14  0.91188000000E+02  0.91188000000E+02 0.  0.
    9900012    2    3    3    0    0 -0.32367229663E+02  0.13754779592E+02  0.10906280071E+02  0.54367102908E+02  0.40000042699E+02 0.  0.
        -12    1    3    3    0    0  0.32367229663E+02 -0.13754779592E+02 -0.10906280071E+02  0.36820897092E+02  0.00000000000E+00 0.  1.
         11    1    4    4    0    0 -0.25831331691E+02  0.10387059591E+02 -0.73332653316E+01  0.28791066055E+02  0.51100000000E-03 0. -1.
        -11    1    4    4    0    0  0.34634850112E+01  0.51971769214E+01  0.12320232417E+02  0.13812838355E+02  0.51100000000E-03 0.  1.
         12    1    4    4    0    0 -0.99993829831E+01 -0.18294569202E+01  0.59193129856E+01  0.11763198497E+02  0.00000000000E+00 0. -1.
</event>
<event>
 8    1  0.1238315E-006  0.9118800E+02  0.7816164E-02  0.1184000E+00
        -11   -1    0    0    0    0  0.00000000000E+00  0.00000000000E+00  0.45593999997E+02  0.45594000000E+02  0.51100000000E-03 0.  1.
         11   -1    0    0    0    0 -0.00000000000E+00 -0.00000000000E+00 -0.45593999997E+02  0.45594000000E+02  0.51100000000E-03 0. -1.
         23    2    1    2    0    0  0.00000000000E+00 -0.35527136788E-14  0.88817841970E-15  0.91188000000E+02  0.91188000000E+02 0.  0.
    9900012    2    3    3    0    0 -0.26331517479E+02 -0.25348959965E+02  0.44565336048E+01  0.54367091866E+02  0.40000017528E+02 0.  0.
        -12    1    3    3    0    0  0.26331517479E+02  0.25348959965E+02 -0.44565336048E+01  0.36820908134E+02  0.00000000000E+00 0.  1.
         11    1    4    4    0    0 -0.77310650169E+01  0.76260100279E+01  0.57296965057E+01  0.12278225342E+02  0.51100000000E-03 0. -1.
        -11    1    4    4    0    0 -0.41301697158E+01 -0.30424238323E+01  0.61651301400E+01  0.80201916785E+01  0.51100000000E-03 0.  1.
         12    1    4    4    0    0 -0.14470282746E+02 -0.29932546160E+02 -0.74382930409E+01  0.34068674846E+02  0.00000000000E+00 0. -1.
</event>
<event>
 8    1  0.1238315E-006  0.9118800E+02  0.7816164E-02  0.1184000E+00
        -11   -1    0    0    0    0  0.00000000000E+00  0.00000000000E+00  0.45593999997E+02  0.45594000000E+02  0.51100000000E-03 0.  1.
         11   -1    0    0    0    0 -0.00000000000E+00 -0.00000000000E+00 -0.45593999997E+02  0.45594000000E+02  0.51100000000E-03 0. -1.
         23    2    1    2    0    0 -0.35527136788E-14  0.00000000000E+00  0.17763568394E-14  0.91188000000E+02  0.91188000000E+02 0.  0.
    9900012    2    3    3    0    0  0.23329054994E+02 -0.26477699083E+02 -0.10510194042E+02  0.54367115513E+02  0.40000071434E+02 0.  0.
        -12    1    3    3    0    0 -0.23329054994E+02  0.26477699083E+02  0.10510194042E+02  0.36820884487E+02  0.00000000000E+00 0.  1.
         11    1    4    4    0    0  0.38395232882E+01 -0.25036074660E+01  0.36570281771E+01  0.58637739361E+01  0.51100000000E-03 0. -1.
        -11    1    4    4    0    0 -0.86512957626E+01  0.82993489996E+00 -0.43966520578E+01  0.97398285348E+01  0.51100000000E-03 0.  1.
         12    1    4    4    0    0  0.28140827468E+02 -0.24804026517E+02 -0.97705701618E+01  0.38763513042E+02  0.00000000000E+00 0. -1.
</event>
<event>
 8    1  0.1238315E-006  0.9118800E+02  0.7816164E-02  0.1184000E+00
        -11   -1    0    0    0    0  0.00000000000E+00  0.00000000000E+00  0.45593999997E+02  0.45594000000E+02  0.51100000000E-03 0.  1.
         11   -1    0    0    0    0 -0.00000000000E+00 -0.00000000000E+00 -0.45593999997E+02  0.45594000000E+02  0.51100000000E-03 0. -1.
         23    2    1    2    0    0  0.00000000000E+00  0.00000000000E+00  0.35527136788E-14  0.91188000000E+02  0.91188000000E+02 0.  0.
    9900012    2    3    3    0    0 -0.18736126732E+02  0.30802237257E+02  0.74809499456E+01  0.54367015805E+02  0.39999844131E+02 0.  0.
         12    1    3    3    0    0  0.18736126732E+02 -0.30802237257E+02 -0.74809499456E+01  0.36820984195E+02  0.00000000000E+00 0. -1.
         11    1    4    4    0    0 -0.88826113992E+01  0.86549801064E+01  0.20250796732E+02  0.23746667860E+02  0.51100000000E-03 0. -1.
        -11    1    4    4    0    0 -0.11406701200E+02  0.13792200387E+02 -0.38637528310E+01  0.18310276076E+02  0.51100000000E-03 0.  1.
         12    1    4    4    0    0  0.15531858677E+01  0.83550567639E+01 -0.89060939558E+01  0.12310071869E+02  0.00000000000E+00 0. -1.
</event>
<event>
 8    1  0.1238315E-006  0.9118800E+02  0.7816164E-02  0.1184000E+00
        -11   -1    0    0    0    0  0.00000000000E+00  0.00000000000E+00  0.45593999997E+02  0.45594000000E+02  0.51100000000E-03 0.  1.
         11   -1    0    0    0    0 -0.00000000000E+00 -0.00000000000E+00 -0.45593999997E+02  0.45594000000E+02  0.51100000000E-03 0. -1.
         23    2    1    2    0    0  0.00000000000E+00  0.17763568394E-14  0.00000000000E+00  0.91188000000E+02  0.91188000000E+02 0.  0.
    9900012    2    3    3    0    0  0.31512514938E+02  0.12780826680E+02  0.14120671511E+02  0.54367061768E+02  0.39999948913E+02 0.  0.
         12    1    3    3    0    0 -0.31512514938E+02 -0.12780826680E+02 -0.14120671511E+02  0.36820938232E+02  0.00000000000E+00 0. -1.
         11    1    4    4    0    0  0.32722330600E+02  0.31293074575E+01  0.47910458194E+01  0.33218934440E+02  0.51100000000E-03 0. -1.
        -11    1    4    4    0    0  0.57996035789E+01  0.10201326125E+02  0.73396638061E+01  0.13840994236E+02  0.51100000000E-03 0.  1.
         12    1    4    4    0    0 -0.70094192408E+01 -0.54980690299E+00  0.19899618856E+01  0.73071330924E+01  0.00000000000E+00 0. -1.
</event>
<event>
 8    1  0.1238315E-006  0.9118800E+02  0.7816164E-02  0.1184000E+00
        -11   -1    0    0    0    0  0.00000000000E+00  0.00000000000E+00  0.45593999997E+02  0.45594000000E+02  0.51100000000E-03 0.  1.
         11   -1    0    0    0    0 -0.00000000000E+00 -0.00000000000E+00 -0.45593999997E+02  0.45594000000E+02  0.51100000000E-03 0. -1.
         23    2    1    2    0    0  0.00000000000E+00  0.17763568394E-14  0.00000000000E+00  0.91188000000E+02  0.91188000000E+02 0.  0.
    9900012    2    3    3    0    0 -0.24430904654E+02  0.87110895310E+01 -0.26134811743E+02  0.54367074321E+02  0.39999977529E+02 0.  0.
        -12    1    3    3    0    0  0.24430904654E+02 -0.87110895310E+01  0.26134811743E+02  0.36820925679E+02  0.00000000000E+00 0.  1.
         11    1    4    4    0    0 -0.70219881322E+01 -0.81655607413E+01 -0.22662034139E+01  0.11005470354E+02  0.51100000000E-03 0. -1.
        -11    1    4    4    0    0  0.30556045594E+01 -0.51017437344E+01 -0.58395957981E+01  0.83345898341E+01  0.51100000000E-03 0.  1.
        -12    1    4    4    0    0 -0.20464521081E+02  0.21978394007E+02 -0.18029012531E+02  0.35027014132E+02  0.00000000000E+00 0.  1.
</event>
<event>
 8    1  0.1238315E-006  0.9118800E+02  0.7816164E-02  0.1184000E+00
        -11   -1    0    0    0    0  0.00000000000E+00  0.00000000000E+00  0.45593999997E+02  0.45594000000E+02  0.51100000000E-03 0.  1.
         11   -1    0    0    0    0 -0.00000000000E+00 -0.00000000000E+00 -0.45593999997E+02  0.45594000000E+02  0.51100000000E-03 0. -1.
         23    2    1    2    0    0  0.00000000000E+00  0.00000000000E+00  0.00000000000E+00  0.91188000000E+02  0.91188000000E+02 0.  0.
    9900012    2    3    3    0    0 -0.27173035945E+02 -0.16465971514E+02  0.18608596709E+02  0.54367055256E+02  0.39999934067E+02 0.  0.
        -12    1    3    3    0    0  0.27173035945E+02  0.16465971514E+02 -0.18608596709E+02  0.36820944744E+02  0.00000000000E+00 0.  1.
         11    1    4    4    0    0 -0.47559998572E+01 -0.18820352288E+02  0.11462092080E+02  0.22543397038E+02  0.51100000000E-03 0. -1.
        -11    1    4    4    0    0 -0.94981911922E+01  0.82406538359E+01 -0.46078991493E+01  0.13392413763E+02  0.51100000000E-03 0.  1.
         12    1    4    4    0    0 -0.12918844895E+02 -0.58862730617E+01  0.11754403778E+02  0.18431244455E+02  0.00000000000E+00 0. -1.
</event>
<event>
 8    1  0.1238315E-006  0.9118800E+02  0.7816164E-02  0.1184000E+00
        -11   -1    0    0    0    0  0.00000000000E+00  0.00000000000E+00  0.45593999997E+02  0.45594000000E+02  0.51100000000E-03 0.  1.
         11   -1    0    0    0    0 -0.00000000000E+00 -0.00000000000E+00 -0.45593999997E+02  0.45594000000E+02  0.51100000000E-03 0. -1.
         23    2    1    2    0    0  0.00000000000E+00 -0.35527136788E-14  0.00000000000E+00  0.91188000000E+02  0.91188000000E+02 0.  0.
    9900012    2    3    3    0    0 -0.20311551713E+02  0.24043937928E+02  0.19107840142E+02  0.54367086935E+02  0.40000006285E+02 0.  0.
         12    1    3    3    0    0  0.20311551713E+02 -0.24043937928E+02 -0.19107840142E+02  0.36820913065E+02  0.00000000000E+00 0. -1.
         11    1    4    4    0    0  0.84026262062E+01  0.22258075804E+01 -0.22714492360E+01  0.89843101260E+01  0.51100000000E-03 0. -1.
        -11    1    4    4    0    0 -0.20001886599E+02  0.22729749265E+02  0.12054517373E+02  0.32588776573E+02  0.51100000000E-03 0.  1.
         12    1    4    4    0    0 -0.87122913197E+01 -0.91161891699E+00  0.93247720047E+01  0.12794000236E+02  0.00000000000E+00 0. -1.
</event>
<event>
 8    1  0.1238315E-006  0.9118800E+02  0.7816164E-02  0.1184000E+00
        -11   -1    0    0    0    0  0.00000000000E+00  0.00000000000E+00  0.45593999997E+02  0.45594000000E+02  0.51100000000E-03 0.  1.
         11   -1    0    0    0    0 -0.00000000000E+00 -0.00000000000E+00 -0.45593999997E+02  0.45594000000E+02  0.51100000000E-03 0. -1.
         23    2    1    2    0    0  0.00000000000E+00  0.35527136788E-14 -0.17763568394E-14  0.91188000000E+02  0.91188000000E+02 0.  0.
    9900012    2    3    3    0    0  0.18896339912E+02  0.30478555161E+02 -0.83525910777E+01  0.54367085231E+02  0.40000002400E+02 0.  0.
        -12    1    3    3    0    0 -0.18896339912E+02 -0.30478555161E+02  0.83525910777E+01  0.36820914769E+02  0.00000000000E+00 0.  1.
         11    1    4    4    0    0  0.30210300735E+01  0.67690669868E+01  0.96120065639E+00  0.74746770860E+01  0.51100000000E-03 0. -1.
        -11    1    4    4    0    0  0.41216790374E+01  0.29047934089E+02  0.24317285168E+01  0.29439497563E+02  0.51100000000E-03 0.  1.
         12    1    4    4    0    0  0.11753630801E+02 -0.53384459154E+01 -0.11745520251E+02  0.17452910581E+02  0.00000000000E+00 0. -1.
</event>
<event>
 8    1  0.1238315E-006  0.9118800E+02  0.7816164E-02  0.1184000E+00
        -11   -1    0    0    0    0  0.00000000000E+00  0.00000000000E+00  0.45593999997E+02  0.45594000000E+02  0.51100000000E-03 0.  1.
         11   -1    0    0    0    0 -0.00000000000E+00 -0.00000000000E+00 -0.45593999997E+02  0.45594000000E+02  0.51100000000E-03 0. -1.
         23    2    1    2    0    0 -0.44408920985E-15 -0.17763568394E-14  0.00000000000E+00  0.91188000000E+02  0.91188000000E+02 0.  0.
    9900012    2    3    3    0    0 -0.28943059272E+01 -0.83484159712E+01  0.35745017564E+02  0.54367091040E+02  0.40000015644E+02 0.  0.
         12    1    3    3    0    0  0.28943059272E+01  0.83484159712E+01 -0.35745017564E+02  0.36820908960E+02  0.00000000000E+00 0. -1.
         11    1    4    4    0    0  0.95851730476E+01 -0.11334728904E+02  0.50148065959E+01  0.15668436653E+02  0.51100000000E-03 0. -1.
        -11    1    4    4    0    0 -0.65083278280E+01 -0.42169128885E+01  0.27849195980E+02  0.28908794551E+02  0.51100000000E-03 0.  1.
         12    1    4    4    0    0 -0.59711511469E+01  0.72032258213E+01  0.28810149880E+01  0.97898598362E+01  0.00000000000E+00 0. -1.
</event>
<event>
 8    1  0.1238315E-006  0.9118800E+02  0.7816164E-02  0.1184000E+00
        -11   -1    0    0    0    0  0.00000000000E+00  0.00000000000E+00  0.45593999997E+02  0.45594000000E+02  0.51100000000E-03 0.  1.
         11   -1    0    0    0    0 -0.00000000000E+00 -0.00000000000E+00 -0.45593999997E+02  0.45594000000E+02  0.51100000000E-03 0. -1.
         23    2    1    2    0    0  0.71054273576E-14  0.88817841970E-15  0.00000000000E+00  0.91188000000E+02  0.91188000000E+02 0.  0.
    9900012    2    3    3    0    0 -0.34261779497E+02  0.37506716464E+01 -0.12955437856E+02  0.54367076028E+02  0.39999981422E+02 0.  0.
        -12    1    3    3    0    0  0.34261779497E+02 -0.37506716464E+01  0.12955437856E+02  0.36820923972E+02  0.00000000000E+00 0.  1.
         11    1    4    4    0    0 -0.11125399034E+02 -0.71380071201E+01 -0.52976418046E+01  0.14240458499E+02  0.51100000000E-03 0. -1.
        -11    1    4    4    0    0 -0.22317454241E+02 -0.27823207747E+01  0.31110338141E+01  0.22704374123E+02  0.51100000000E-03 0.  1.
        -12    1    4    4    0    0 -0.81892622187E+00  0.13670999541E+02 -0.10768829865E+02  0.17422243406E+02  0.00000000000E+00 0.  1.
</event>
<event>
 8    1  0.1238315E-006  0.9118800E+02  0.7816164E-02  0.1184000E+00
        -11   -1    0    0    0    0  0.00000000000E+00  0.00000000000E+00  0.45593999997E+02  0.45594000000E+02  0.51100000000E-03 0.  1.
         11   -1    0    0    0    0 -0.00000000000E+00 -0.00000000000E+00 -0.45593999997E+02  0.45594000000E+02  0.51100000000E-03 0. -1.
         23    2    1    2    0    0 -0.35527136788E-14  0.00000000000E+00 -0.88817841970E-15  0.91188000000E+02  0.91188000000E+02 0.  0.
    9900012    2    3    3    0    0 -0.29131981732E+02  0.22069164409E+02 -0.44787941140E+01  0.54367082385E+02  0.39999995912E+02 0.  0.
         12    1    3    3    0    0  0.29131981732E+02 -0.22069164409E+02  0.44787941140E+01  0.36820917615E+02  0.00000000000E+00 0. -1.
         11    1    4    4    0    0 -0.13292517997E+02  0.80672295883E+01 -0.77890723999E+01  0.17390827382E+02  0.51100000000E-03 0. -1.
        -11    1    4    4    0    0 -0.20843034126E+02  0.12165111684E+01  0.81582817751E+01  0.22415832190E+02  0.51100000000E-03 0.  1.
         12    1    4    4    0    0  0.50035703913E+01  0.12785423652E+02 -0.48480034891E+01  0.14560422812E+02  0.00000000000E+00 0. -1.
</event>
<event>
 8    1  0.1238315E-006  0.9118800E+02  0.7816164E-02  0.1184000E+00
        -11   -1    0    0    0    0  0.00000000000E+00  0.00000000000E+00  0.45593999997E+02  0.45594000000E+02  0.51100000000E-03 0. -1.
         11   -1    0    0    0    0 -0.00000000000E+00 -0.00000000000E+00 -0.45593999997E+02  0.45594000000E+02  0.51100000000E-03 0.  1.
         23    2    1    2    0    0  0.00000000000E+00 -0.17763568394E-14 -0.35527136788E-14  0.91188000000E+02  0.91188000000E+02 0.  0.
    9900012    2    3    3    0    0  0.29557150236E+02 -0.45201748363E+01  0.21487768537E+02  0.54367064280E+02  0.39999954638E+02 0.  0.
        -12    1    3    3    0    0 -0.29557150236E+02  0.45201748363E+01 -0.21487768537E+02  0.36820935720E+02  0.00000000000E+00 0.  1.
         11    1    4    4    0    0  0.18005168612E+02 -0.80664352400E+01  0.99183305302E+01  0.22082272415E+02  0.51100000000E-03 0. -1.
        -11    1    4    4    0    0  0.56289028680E+01 -0.12057001061E+02  0.35685262505E+01  0.13776436475E+02  0.51100000000E-03 0.  1.
        -12    1    4    4    0    0  0.59230787560E+01  0.15603261465E+02  0.80009117563E+01  0.18508355390E+02  0.00000000000E+00 0.  1.
</event>
<event>
 8    1  0.1238315E-006  0.9118800E+02  0.7816164E-02  0.1184000E+00
        -11   -1    0    0    0    0  0.00000000000E+00  0.00000000000E+00  0.45593999997E+02  0.45594000000E+02  0.51100000000E-03 0.  1.
         11   -1    0    0    0    0 -0.00000000000E+00 -0.00000000000E+00 -0.45593999997E+02  0.45594000000E+02  0.51100000000E-03 0. -1.
         23    2    1    2    0    0  0.00000000000E+00 -0.26645352591E-14  0.88817841970E-15  0.91188000000E+02  0.91188000000E+02 0.  0.
    9900012    2    3    3    0    0  0.35945594150E+02  0.76343403666E+01 -0.23255390574E+01  0.54367122450E+02  0.40000087250E+02 0.  0.
        -12    1    3    3    0    0 -0.35945594150E+02 -0.76343403666E+01  0.23255390574E+01  0.36820877550E+02  0.00000000000E+00 0.  1.
         11    1    4    4    0    0  0.25143308743E+02  0.16496181478E+02  0.16106023049E+01  0.30114847135E+02  0.51100000000E-03 0. -1.
        -11    1    4    4    0    0 -0.25816816589E+01 -0.34278899554E+01  0.55166511787E+01  0.69892024025E+01  0.51100000000E-03 0.  1.
        -12    1    4    4    0    0  0.13383967065E+02 -0.54339511558E+01 -0.94527925410E+01  0.17263072913E+02  0.00000000000E+00 0.  1.
</event>
<event>
 8    1  0.1238315E-006  0.9118800E+02  0.7816164E-02  0.1184000E+00
        -11   -1    0    0    0    0  0.00000000000E+00  0.00000000000E+00  0.45593999997E+02  0.45594000000E+02  0.51100000000E-03 0.  1.
         11   -1    0    0    0    0 -0.00000000000E+00 -0.00000000000E+00 -0.45593999997E+02  0.45594000000E+02  0.51100000000E-03 0. -1.
         23    2    1    2    0    0  0.22204460493E-14  0.00000000000E+00  0.00000000000E+00  0.91188000000E+02  0.91188000000E+02 0.  0.
    9900012    2    3    3    0    0  0.17493699438E+01  0.35461295552E+02  0.97578745787E+01  0.54367083475E+02  0.39999998399E+02 0.  0.
        -12    1    3    3    0    0 -0.17493699438E+01 -0.35461295552E+02 -0.97578745787E+01  0.36820916525E+02  0.00000000000E+00 0.  1.
         11    1    4    4    0    0 -0.11272764840E+02 -0.20381257193E+01  0.85861181309E+01  0.14316096130E+02  0.51100000000E-03 0. -1.
        -11    1    4    4    0    0  0.12351971706E+02  0.33029805106E+02  0.24653555030E+01  0.35349925154E+02  0.51100000000E-03 0.  1.
         12    1    4    4    0    0  0.67016307802E+00  0.44696161650E+01 -0.12935990552E+01  0.47010621916E+01  0.00000000000E+00 0. -1.
</event>
<event>
 8    1  0.1238315E-006  0.9118800E+02  0.7816164E-02  0.1184000E+00
        -11   -1    0    0    0    0  0.00000000000E+00  0.00000000000E+00  0.45593999997E+02  0.45594000000E+02  0.51100000000E-03 0. -1.
         11   -1    0    0    0    0 -0.00000000000E+00 -0.00000000000E+00 -0.45593999997E+02  0.45594000000E+02  0.51100000000E-03 0.  1.
         23    2    1    2    0    0  0.00000000000E+00 -0.71054273576E-14  0.00000000000E+00  0.91188000000E+02  0.91188000000E+02 0.  0.
    9900012    2    3    3    0    0  0.10596718888E+02 -0.33134938318E+02 -0.12065004587E+02  0.54367096641E+02  0.40000028412E+02 0.  0.
         12    1    3    3    0    0 -0.10596718888E+02  0.33134938318E+02  0.12065004587E+02  0.36820903359E+02  0.00000000000E+00 0. -1.
         11    1    4    4    0    0  0.10813337367E+02 -0.33299476163E+02 -0.38293191956E+01  0.35219981027E+02  0.51100000000E-03 0. -1.
        -11    1    4    4    0    0  0.82168071099E+01 -0.18491084607E+01 -0.54844692477E+01  0.10050598210E+02  0.51100000000E-03 0.  1.
         12    1    4    4    0    0 -0.84334255894E+01  0.20136463061E+01 -0.27512161441E+01  0.90965174044E+01  0.00000000000E+00 0. -1.
</event>
<event>
 8    1  0.1238315E-006  0.9118800E+02  0.7816164E-02  0.1184000E+00
        -11   -1    0    0    0    0  0.00000000000E+00  0.00000000000E+00  0.45593999997E+02  0.45594000000E+02  0.51100000000E-03 0.  1.
         11   -1    0    0    0    0 -0.00000000000E+00 -0.00000000000E+00 -0.45593999997E+02  0.45594000000E+02  0.51100000000E-03 0. -1.
         23    2    1    2    0    0  0.00000000000E+00 -0.35527136788E-14  0.00000000000E+00  0.91188000000E+02  0.91188000000E+02 0.  0.
    9900012    2    3    3    0    0 -0.16037498885E+02  0.27868378307E+02  0.17942495327E+02  0.54367068202E+02  0.39999963580E+02 0.  0.
         12    1    3    3    0    0  0.16037498885E+02 -0.27868378307E+02 -0.17942495327E+02  0.36820931798E+02  0.00000000000E+00 0. -1.
         11    1    4    4    0    0  0.68226968963E+01 -0.16256338914E+01  0.12068437274E+02  0.13958476170E+02  0.51100000000E-03 0. -1.
        -11    1    4    4    0    0 -0.21489538701E+02  0.20041014598E+02  0.37474674201E+00  0.29386782319E+02  0.51100000000E-03 0.  1.
        -12    1    4    4    0    0 -0.13706570802E+01  0.94529975997E+01  0.54993113106E+01  0.11021809713E+02  0.00000000000E+00 0.  1.
</event>
<event>
 8    1  0.1238315E-006  0.9118800E+02  0.7816164E-02  0.1184000E+00
        -11   -1    0    0    0    0  0.00000000000E+00  0.00000000000E+00  0.45593999997E+02  0.45594000000E+02  0.51100000000E-03 0.  1.
         11   -1    0    0    0    0 -0.00000000000E+00 -0.00000000000E+00 -0.45593999997E+02  0.45594000000E+02  0.51100000000E-03 0. -1.
         23    2    1    2    0    0  0.00000000000E+00  0.35527136788E-14  0.00000000000E+00  0.91188000000E+02  0.91188000000E+02 0.  0.
    9900012    2    3    3    0    0 -0.31147128270E+02  0.16498751317E+02  0.10650241411E+02  0.54367081535E+02  0.39999993976E+02 0.  0.
         12    1    3    3    0    0  0.31147128270E+02 -0.16498751317E+02 -0.10650241411E+02  0.36820918465E+02  0.00000000000E+00 0. -1.
         11    1    4    4    0    0  0.31169968282E+01 -0.22216925062E+01  0.69027323319E+01  0.78929906072E+01  0.51100000000E-03 0. -1.
        -11    1    4    4    0    0 -0.26567083161E+01  0.92817979397E-01  0.90249860191E+01  0.94083519896E+01  0.51100000000E-03 0.  1.
         12    1    4    4    0    0 -0.31607416782E+02  0.18627625844E+02 -0.52774769398E+01  0.37065738938E+02  0.00000000000E+00 0. -1.
</event>
<event>
 8    1  0.1238315E-006  0.9118800E+02  0.7816164E-02  0.1184000E+00
        -11   -1    0    0    0    0  0.00000000000E+00  0.00000000000E+00  0.45593999997E+02  0.45594000000E+02  0.51100000000E-03 0. -1.
         11   -1    0    0    0    0 -0.00000000000E+00 -0.00000000000E+00 -0.45593999997E+02  0.45594000000E+02  0.51100000000E-03 0.  1.
         23    2    1    2    0    0 -0.35527136788E-14 -0.35527136788E-14  0.00000000000E+00  0.91188000000E+02  0.91188000000E+02 0.  0.
    9900012    2    3    3    0    0  0.20795894746E+02  0.97464341411E+01 -0.28780485575E+02  0.54367101495E+02  0.40000039479E+02 0.  0.
         12    1    3    3    0    0 -0.20795894746E+02 -0.97464341411E+01  0.28780485575E+02  0.36820898505E+02  0.00000000000E+00 0. -1.
         11    1    4    4    0    0 -0.29667002470E+01  0.58383597578E+01 -0.48104615108E+01  0.81257796687E+01  0.51100000000E-03 0. -1.
        -11    1    4    4    0    0  0.23619087711E+02  0.12528507942E+02 -0.26096733579E+02  0.37361267635E+02  0.51100000000E-03 0.  1.
         12    1    4    4    0    0  0.14350728235E+00 -0.86204335587E+01  0.21267095154E+01  0.88800541914E+01  0.00000000000E+00 0. -1.
</event>
<event>
 8    1  0.1238315E-006  0.9118800E+02  0.7816164E-02  0.1184000E+00
        -11   -1    0    0    0    0  0.00000000000E+00  0.00000000000E+00  0.45593999997E+02  0.45594000000E+02  0.51100000000E-03 0. -1.
         11   -1    0    0    0    0 -0.00000000000E+00 -0.00000000000E+00 -0.45593999997E+02  0.45594000000E+02  0.51100000000E-03 0.  1.
         23    2    1    2    0    0  0.35527136788E-14  0.00000000000E+00 -0.35527136788E-14  0.91188000000E+02  0.91188000000E+02 0.  0.
    9900012    2    3    3    0    0 -0.23704298039E+02  0.18863826728E+02  0.20929487924E+02  0.54367066157E+02  0.39999958917E+02 0.  0.
         12    1    3    3    0    0  0.23704298039E+02 -0.18863826728E+02 -0.20929487924E+02  0.36820933843E+02  0.00000000000E+00 0. -1.
         11    1    4    4    0    0 -0.49674608184E+01 -0.12727514059E+01  0.34029091624E+01  0.61542955854E+01  0.51100000000E-03 0. -1.
        -11    1    4    4    0    0 -0.18610851114E+02  0.14515799237E+02 -0.57285981266E+01  0.24287631490E+02  0.51100000000E-03 0.  1.
        -12    1    4    4    0    0 -0.12598610631E+00  0.56207788974E+01  0.23255176889E+02  0.23925139081E+02  0.00000000000E+00 0.  1.
</event>
<event>
 8    1  0.1238315E-006  0.9118800E+02  0.7816164E-02  0.1184000E+00
        -11   -1    0    0    0    0  0.00000000000E+00  0.00000000000E+00  0.45593999997E+02  0.45594000000E+02  0.51100000000E-03 0.  1.
         11   -1    0    0    0    0 -0.00000000000E+00 -0.00000000000E+00 -0.45593999997E+02  0.45594000000E+02  0.51100000000E-03 0. -1.
         23    2    1    2    0    0  0.00000000000E+00 -0.35527136788E-14  0.00000000000E+00  0.91188000000E+02  0.91188000000E+02 0.  0.
    9900012    2    3    3    0    0  0.24178310839E+02  0.20903364994E+02 -0.18282183124E+02  0.54367087424E+02  0.40000007401E+02 0.  0.
        -12    1    3    3    0    0 -0.24178310839E+02 -0.20903364994E+02  0.18282183124E+02  0.36820912576E+02  0.00000000000E+00 0.  1.
         11    1    4    4    0    0  0.17861365488E+02  0.19355127691E+02 -0.77358872036E+01  0.27449832351E+02  0.51100000000E-03 0. -1.
        -11    1    4    4    0    0  0.14919354283E+02 -0.27145751424E+01 -0.64046678040E+01  0.16461343213E+02  0.51100000000E-03 0.  1.
         12    1    4    4    0    0 -0.86024089317E+01  0.42628124456E+01 -0.41416281165E+01  0.10455911860E+02  0.00000000000E+00 0. -1.
</event>
<event>
 8    1  0.1238315E-006  0.9118800E+02  0.7816164E-02  0.1184000E+00
        -11   -1    0    0    0    0  0.00000000000E+00  0.00000000000E+00  0.45593999997E+02  0.45594000000E+02  0.51100000000E-03 0.  1.
         11   -1    0    0    0    0 -0.00000000000E+00 -0.00000000000E+00 -0.45593999997E+02  0.45594000000E+02  0.51100000000E-03 0. -1.
         23    2    1    2    0    0 -0.71054273576E-14 -0.88817841970E-15  0.00000000000E+00  0.91188000000E+02  0.91188000000E+02 0.  0.
    9900012    2    3    3    0    0 -0.36091343359E+02  0.16776340830E+01  0.70979407666E+01  0.54367078166E+02  0.39999986294E+02 0.  0.
        -12    1    3    3    0    0  0.36091343359E+02 -0.16776340830E+01 -0.70979407666E+01  0.36820921834E+02  0.00000000000E+00 0.  1.
         11    1    4    4    0    0 -0.37871845006E+02  0.62611156084E+01  0.74785613321E+01  0.39107634711E+02  0.51100000000E-03 0. -1.
        -11    1    4    4    0    0 -0.14199954426E+01  0.26670239524E+01  0.48852019460E+01  0.57440928034E+01  0.51100000000E-03 0.  1.
         12    1    4    4    0    0  0.32004970889E+01 -0.72505054778E+01 -0.52658225115E+01  0.95153506516E+01  0.00000000000E+00 0. -1.
</event>
<event>
 8    1  0.1238315E-006  0.9118800E+02  0.7816164E-02  0.1184000E+00
        -11   -1    0    0    0    0  0.00000000000E+00  0.00000000000E+00  0.45593999997E+02  0.45594000000E+02  0.51100000000E-03 0. -1.
         11   -1    0    0    0    0 -0.00000000000E+00 -0.00000000000E+00 -0.45593999997E+02  0.45594000000E+02  0.51100000000E-03 0.  1.
         23    2    1    2    0    0 -0.17763568394E-14  0.00000000000E+00  0.00000000000E+00  0.91188000000E+02  0.91188000000E+02 0.  0.
    9900012    2    3    3    0    0  0.11144294284E+02 -0.24882649142E+02  0.24747515421E+02  0.54367067870E+02  0.39999962823E+02 0.  0.
        -12    1    3    3    0    0 -0.11144294284E+02  0.24882649142E+02 -0.24747515421E+02  0.36820932130E+02  0.00000000000E+00 0.  1.
         11    1    4    4    0    0 -0.89099570186E+01 -0.13756952672E+02  0.23955699295E+02  0.29026136668E+02  0.51100000000E-03 0. -1.
        -11    1    4    4    0    0  0.13110600245E+02 -0.33442098014E+01 -0.36366064287E+01  0.14010584733E+02  0.51100000000E-03 0.  1.
         12    1    4    4    0    0  0.69436510579E+01 -0.77814866683E+01  0.44284225540E+01  0.11330346469E+02  0.00000000000E+00 0. -1.
</event>
<event>
 8    1  0.1238315E-006  0.9118800E+02  0.7816164E-02  0.1184000E+00
        -11   -1    0    0    0    0  0.00000000000E+00  0.00000000000E+00  0.45593999997E+02  0.45594000000E+02  0.51100000000E-03 0.  1.
         11   -1    0    0    0    0 -0.00000000000E+00 -0.00000000000E+00 -0.45593999997E+02  0.45594000000E+02  0.51100000000E-03 0. -1.
         23    2    1    2    0    0  0.00000000000E+00 -0.88817841970E-15  0.88817841970E-15  0.91188000000E+02  0.91188000000E+02 0.  0.
    9900012    2    3    3    0    0  0.35925675657E+02 -0.71961439016E+01  0.36522789976E+01  0.54367111902E+02  0.40000063202E+02 0.  0.
         12    1    3    3    0    0 -0.35925675657E+02  0.71961439016E+01 -0.36522789976E+01  0.36820888098E+02  0.00000000000E+00 0. -1.
         11    1    4    4    0    0  0.13582880473E+02 -0.18459802551E+02 -0.74418454711E+00  0.22930607560E+02  0.51100000000E-03 0. -1.
        -11    1    4    4    0    0  0.15366627078E+02 -0.12355342285E+01 -0.23807636002E+01  0.15598968176E+02  0.51100000000E-03 0.  1.
         12    1    4    4    0    0  0.69761681062E+01  0.12499192877E+02  0.67772271450E+01  0.15837536166E+02  0.00000000000E+00 0. -1.
</event>
<event>
 8    1  0.1238315E-006  0.9118800E+02  0.7816164E-02  0.1184000E+00
        -11   -1    0    0    0    0  0.00000000000E+00  0.00000000000E+00  0.45593999997E+02  0.45594000000E+02  0.51100000000E-03 0. -1.
         11   -1    0    0    0    0 -0.00000000000E+00 -0.00000000000E+00 -0.45593999997E+02  0.45594000000E+02  0.51100000000E-03 0.  1.
         23    2    1    2    0    0  0.00000000000E+00 -0.17763568394E-14  0.00000000000E+00  0.91188000000E+02  0.91188000000E+02 0.  0.
    9900012    2    3    3    0    0 -0.19615887111E+02 -0.13550759326E+02 -0.28060182076E+02  0.54367083070E+02  0.39999997474E+02 0.  0.
        -12    1    3    3    0    0  0.19615887111E+02  0.13550759326E+02  0.28060182076E+02  0.36820916930E+02  0.00000000000E+00 0.  1.
         11    1    4    4    0    0 -0.12121692385E+02 -0.13484266220E+02 -0.12232123653E+02  0.21872030337E+02  0.51100000000E-03 0. -1.
        -11    1    4    4    0    0  0.44961344062E+01 -0.11135106313E+02 -0.57347784413E+01  0.13307648223E+02  0.51100000000E-03 0.  1.
        -12    1    4    4    0    0 -0.11990329132E+02  0.11068613206E+02 -0.10093279982E+02  0.19187404509E+02  0.00000000000E+00 0.  1.
</event>
<event>
 8    1  0.1238315E-006  0.9118800E+02  0.7816164E-02  0.1184000E+00
        -11   -1    0    0    0    0  0.00000000000E+00  0.00000000000E+00  0.45593999997E+02  0.45594000000E+02  0.51100000000E-03 0.  1.
         11   -1    0    0    0    0 -0.00000000000E+00 -0.00000000000E+00 -0.45593999997E+02  0.45594000000E+02  0.51100000000E-03 0. -1.
         23    2    1    2    0    0 -0.35527136788E-14 -0.44408920985E-15  0.00000000000E+00  0.91188000000E+02  0.91188000000E+02 0.  0.
    9900012    2    3    3    0    0 -0.17144499898E+02 -0.25399435900E+01 -0.32486838728E+02  0.54367083652E+02  0.39999998801E+02 0.  0.
        -12    1    3    3    0    0  0.17144499898E+02  0.25399435900E+01  0.32486838728E+02  0.36820916348E+02  0.00000000000E+00 0.  1.
         11    1    4    4    0    0 -0.17065021460E+02 -0.24150467591E+01 -0.15895779063E+02  0.23446176673E+02  0.51100000000E-03 0. -1.
        -11    1    4    4    0    0 -0.31038850656E+01 -0.30056980282E+01  0.63069880251E+01  0.76450259219E+01  0.51100000000E-03 0.  1.
         12    1    4    4    0    0  0.30244066279E+01  0.28808011973E+01 -0.22898047690E+02  0.23275881057E+02  0.00000000000E+00 0. -1.
</event>
<event>
 8    1  0.1238315E-006  0.9118800E+02  0.7816164E-02  0.1184000E+00
        -11   -1    0    0    0    0  0.00000000000E+00  0.00000000000E+00  0.45593999997E+02  0.45594000000E+02  0.51100000000E-03 0.  1.
         11   -1    0    0    0    0 -0.00000000000E+00 -0.00000000000E+00 -0.45593999997E+02  0.45594000000E+02  0.51100000000E-03 0. -1.
         23    2    1    2    0    0  0.00000000000E+00 -0.17763568394E-14 -0.17763568394E-14  0.91188000000E+02  0.91188000000E+02 0.  0.
    9900012    2    3    3    0    0 -0.29567201881E+02 -0.15041210016E+02 -0.15978718922E+02  0.54367124343E+02  0.40000091564E+02 0.  0.
        -12    1    3    3    0    0  0.29567201881E+02  0.15041210016E+02  0.15978718922E+02  0.36820875657E+02  0.00000000000E+00 0.  1.
         11    1    4    4    0    0  0.25798299395E+01  0.63888248799E+01 -0.22791434682E+01  0.72572102817E+01  0.51100000000E-03 0. -1.
        -11    1    4    4    0    0 -0.18789499626E+02 -0.24534135717E+02 -0.12531550610E+02  0.33346797035E+02  0.51100000000E-03 0.  1.
        -12    1    4    4    0    0 -0.13357532194E+02  0.31041008212E+01 -0.11680248436E+01  0.13763117026E+02  0.00000000000E+00 0.  1.
</event>
<event>
 8    1  0.1238315E-006  0.9118800E+02  0.7816164E-02  0.1184000E+00
        -11   -1    0    0    0    0  0.00000000000E+00  0.00000000000E+00  0.45593999997E+02  0.45594000000E+02  0.51100000000E-03 0.  1.
         11   -1    0    0    0    0 -0.00000000000E+00 -0.00000000000E+00 -0.45593999997E+02  0.45594000000E+02  0.51100000000E-03 0. -1.
         23    2    1    2    0    0  0.17763568394E-14  0.00000000000E+00  0.00000000000E+00  0.91188000000E+02  0.91188000000E+02 0.  0.
    9900012    2    3    3    0    0  0.15866580291E+02  0.32603122874E+02  0.64083745835E+01  0.54367092134E+02  0.40000018138E+02 0.  0.
         12    1    3    3    0    0 -0.15866580291E+02 -0.32603122874E+02 -0.64083745835E+01  0.36820907866E+02  0.00000000000E+00 0. -1.
         11    1    4    4    0    0  0.23980133124E+02  0.19578155173E+02 -0.63195673857E+00  0.30963693484E+02  0.51100000000E-03 0. -1.
        -11    1    4    4    0    0  0.30845540806E+01 -0.16040391511E+01  0.28845635221E+01  0.45175349969E+01  0.51100000000E-03 0.  1.
         12    1    4    4    0    0 -0.11198106913E+02  0.14629006852E+02  0.41557678000E+01  0.18885863653E+02  0.00000000000E+00 0. -1.
</event>
<event>
 8    1  0.1238315E-006  0.9118800E+02  0.7816164E-02  0.1184000E+00
        -11   -1    0    0    0    0  0.00000000000E+00  0.00000000000E+00  0.45593999997E+02  0.45594000000E+02  0.51100000000E-03 0.  1.
         11   -1    0    0    0    0 -0.00000000000E+00 -0.00000000000E+00 -0.45593999997E+02  0.45594000000E+02  0.51100000000E-03 0. -1.
         23    2    1    2    0    0  0.00000000000E+00 -0.44408920985E-15 -0.71054273576E-14  0.91188000000E+02  0.91188000000E+02 0.  0.
    9900012    2    3    3    0    0 -0.49389480397E+01 -0.28402882780E+01 -0.36377455131E+02  0.54367086281E+02  0.40000004796E+02 0.  0.
        -12    1    3    3    0    0  0.49389480397E+01  0.28402882780E+01  0.36377455131E+02  0.36820913719E+02  0.00000000000E+00 0.  1.
         11    1    4    4    0    0 -0.81594566716E+01 -0.40719613125E+01 -0.20607497489E+02  0.22535007325E+02  0.51100000000E-03 0. -1.
        -11    1    4    4    0    0  0.13781399253E+02 -0.23534829560E+01 -0.15218470417E+02  0.20665616117E+02  0.51100000000E-03 0.  1.
        -12    1    4    4    0    0 -0.10560890621E+02  0.35851559905E+01 -0.55148722517E+00  0.11166462840E+02  0.00000000000E+00 0.  1.
</event>
<event>
 8    1  0.1238315E-006  0.9118800E+02  0.7816164E-02  0.1184000E+00
        -11   -1    0    0    0    0  0.00000000000E+00  0.00000000000E+00  0.45593999997E+02  0.45594000000E+02  0.51100000000E-03 0. -1.
         11   -1    0    0    0    0 -0.00000000000E+00 -0.00000000000E+00 -0.45593999997E+02  0.45594000000E+02  0.51100000000E-03 0.  1.
         23    2    1    2    0    0  0.88817841970E-15  0.71054273576E-14 -0.17763568394E-14  0.91188000000E+02  0.91188000000E+02 0.  0.
    9900012    2    3    3    0    0  0.65878470481E+01  0.34383501951E+02 -0.11408567063E+02  0.54367077448E+02  0.39999984659E+02 0.  0.
        -12    1    3    3    0    0 -0.65878470481E+01 -0.34383501951E+02  0.11408567063E+02  0.36820922552E+02  0.00000000000E+00 0.  1.
         11    1    4    4    0    0 -0.90283598098E+01  0.24936255129E+02 -0.93864281408E+01  0.28132421407E+02  0.51100000000E-03 0. -1.
        -11    1    4    4    0    0  0.30057649095E+01  0.12152446661E+02 -0.40958738206E+01  0.13171665238E+02  0.51100000000E-03 0.  1.
        -12    1    4    4    0    0  0.12610441948E+02 -0.27051998386E+01  0.20737348987E+01  0.13062990803E+02  0.00000000000E+00 0.  1.
</event>
<event>
 8    1  0.1238315E-006  0.9118800E+02  0.7816164E-02  0.1184000E+00
        -11   -1    0    0    0    0  0.00000000000E+00  0.00000000000E+00  0.45593999997E+02  0.45594000000E+02  0.51100000000E-03 0. -1.
         11   -1    0    0    0    0 -0.00000000000E+00 -0.00000000000E+00 -0.45593999997E+02  0.45594000000E+02  0.51100000000E-03 0.  1.
         23    2    1    2    0    0  0.00000000000E+00 -0.88817841970E-15 -0.17763568394E-14  0.91188000000E+02  0.91188000000E+02 0.  0.
    9900012    2    3    3    0    0  0.32887207160E+02 -0.47789915875E+01  0.15854731811E+02  0.54367086429E+02  0.40000005132E+02 0.  0.
        -12    1    3    3    0    0 -0.32887207160E+02  0.47789915875E+01 -0.15854731811E+02  0.36820913571E+02  0.00000000000E+00 0.  1.
         11    1    4    4    0    0  0.15157388590E+02 -0.11989658193E+02  0.10110142681E+02  0.21810853210E+02  0.51100000000E-03 0. -1.
        -11    1    4    4    0    0  0.26296415981E+01 -0.18263627743E+01  0.13098161884E+02  0.13483785111E+02  0.51100000000E-03 0.  1.
        -12    1    4    4    0    0  0.15100176972E+02  0.90370293798E+01 -0.73535727537E+01  0.19072448108E+02  0.00000000000E+00 0.  1.
</event>
<event>
 8    1  0.1238315E-006  0.9118800E+02  0.7816164E-02  0.1184000E+00
        -11   -1    0    0    0    0  0.00000000000E+00  0.00000000000E+00  0.45593999997E+02  0.45594000000E+02  0.51100000000E-03 0.  1.
         11   -1    0    0    0    0 -0.00000000000E+00 -0.00000000000E+00 -0.45593999997E+02  0.45594000000E+02  0.51100000000E-03 0. -1.
         23    2    1    2    0    0  0.66613381478E-15  0.17763568394E-14  0.00000000000E+00  0.91188000000E+02  0.91188000000E+02 0.  0.
    9900012    2    3    3    0    0  0.19246128326E+01  0.14913688483E+02 -0.33610379858E+02  0.54367083758E+02  0.39999999042E+02 0.  0.
        -12    1    3    3    0    0 -0.19246128326E+01 -0.14913688483E+02  0.33610379858E+02  0.36820916242E+02  0.00000000000E+00 0.  1.
         11    1    4    4    0    0  0.87720159065E+01 -0.71935863320E+01 -0.10172086177E+02  0.15237036616E+02  0.51100000000E-03 0. -1.
        -11    1    4    4    0    0  0.51465289801E+01  0.13262535519E+02 -0.18692326623E+02  0.23490097569E+02  0.51100000000E-03 0.  1.
        -12    1    4    4    0    0 -0.11993932054E+02  0.88447392956E+01 -0.47459670573E+01  0.15639949573E+02  0.00000000000E+00 0.  1.
</event>
<event>
 8    1  0.1238315E-006  0.9118800E+02  0.7816164E-02  0.1184000E+00
        -11   -1    0    0    0    0  0.00000000000E+00  0.00000000000E+00  0.45593999997E+02  0.45594000000E+02  0.51100000000E-03 0. -1.
         11   -1    0    0    0    0 -0.00000000000E+00 -0.00000000000E+00 -0.45593999997E+02  0.45594000000E+02  0.51100000000E-03 0.  1.
         23    2    1    2    0    0  0.00000000000E+00  0.00000000000E+00  0.00000000000E+00  0.91188000000E+02  0.91188000000E+02 0.  0.
    9900012    2    3    3    0    0  0.13562725310E+02 -0.18627133999E+02 -0.28720401857E+02  0.54367093959E+02  0.40000022299E+02 0.  0.
         12    1    3    3    0    0 -0.13562725310E+02  0.18627133999E+02  0.28720401857E+02  0.36820906041E+02  0.00000000000E+00 0. -1.
         11    1    4    4    0    0  0.10429073837E+02 -0.16928130566E+02 -0.70530645154E+01  0.21096751050E+02  0.51100000000E-03 0.  1.
        -11    1    4    4    0    0  0.59543419454E+00 -0.93133601954E+01 -0.23282457801E+02  0.25083182843E+02  0.51100000000E-03 0. -1.
         12    1    4    4    0    0  0.25382172778E+01  0.76143567625E+01  0.16151204593E+01  0.81871600665E+01  0.00000000000E+00 0. -1.
</event>
<event>
 8    1  0.1238315E-006  0.9118800E+02  0.7816164E-02  0.1184000E+00
        -11   -1    0    0    0    0  0.00000000000E+00  0.00000000000E+00  0.45593999997E+02  0.45594000000E+02  0.51100000000E-03 0.  1.
         11   -1    0    0    0    0 -0.00000000000E+00 -0.00000000000E+00 -0.45593999997E+02  0.45594000000E+02  0.51100000000E-03 0. -1.
         23    2    1    2    0    0  0.00000000000E+00  0.00000000000E+00  0.17763568394E-14  0.91188000000E+02  0.91188000000E+02 0.  0.
    9900012    2    3    3    0    0 -0.35594221146E+02  0.12817500024E+01 -0.93375049576E+01  0.54367075774E+02  0.39999980841E+02 0.  0.
         12    1    3    3    0    0  0.35594221146E+02 -0.12817500024E+01  0.93375049576E+01  0.36820924226E+02  0.00000000000E+00 0. -1.
         11    1    4    4    0    0  0.41798659142E+01  0.27690131992E+01 -0.89185437818E+01  0.10231282256E+02  0.51100000000E-03 0. -1.
        -11    1    4    4    0    0 -0.89059234167E+01  0.18827461857E+01  0.78301831419E+01  0.12007163420E+02  0.51100000000E-03 0.  1.
         12    1    4    4    0    0 -0.30868163643E+02 -0.33700093824E+01 -0.82491443177E+01  0.32128630097E+02  0.00000000000E+00 0. -1.
</event>
<event>
 8    1  0.1238315E-006  0.9118800E+02  0.7816164E-02  0.1184000E+00
        -11   -1    0    0    0    0  0.00000000000E+00  0.00000000000E+00  0.45593999997E+02  0.45594000000E+02  0.51100000000E-03 0. -1.
         11   -1    0    0    0    0 -0.00000000000E+00 -0.00000000000E+00 -0.45593999997E+02  0.45594000000E+02  0.51100000000E-03 0.  1.
         23    2    1    2    0    0 -0.44408920985E-15  0.00000000000E+00 -0.35527136788E-14  0.91188000000E+02  0.91188000000E+02 0.  0.
    9900012    2    3    3    0    0 -0.28286963499E+01 -0.30468978188E+02 -0.20479895878E+02  0.54366996619E+02  0.39999800391E+02 0.  0.
         12    1    3    3    0    0  0.28286963499E+01  0.30468978188E+02  0.20479895878E+02  0.36821003381E+02  0.00000000000E+00 0. -1.
         11    1    4    4    0    0 -0.51396336058E+01 -0.29245514605E+02 -0.13985342401E+02  0.32822336304E+02  0.51100000000E-03 0.  1.
        -11    1    4    4    0    0  0.23150778182E+01 -0.50344599052E+01  0.61853377562E+01  0.83044431035E+01  0.51100000000E-03 0. -1.
        -12    1    4    4    0    0 -0.41405622773E-02  0.38109963228E+01 -0.12679891233E+02  0.13240217211E+02  0.00000000000E+00 0.  1.
</event>
<event>
 8    1  0.1238315E-006  0.9118800E+02  0.7816164E-02  0.1184000E+00
        -11   -1    0    0    0    0  0.00000000000E+00  0.00000000000E+00  0.45593999997E+02  0.45594000000E+02  0.51100000000E-03 0.  1.
         11   -1    0    0    0    0 -0.00000000000E+00 -0.00000000000E+00 -0.45593999997E+02  0.45594000000E+02  0.51100000000E-03 0. -1.
         23    2    1    2    0    0  0.00000000000E+00 -0.35527136788E-14  0.00000000000E+00  0.91188000000E+02  0.91188000000E+02 0.  0.
    9900012    2    3    3    0    0  0.22441489981E+02 -0.20695569489E+02  0.20587683145E+02  0.54367085205E+02  0.40000002343E+02 0.  0.
         12    1    3    3    0    0 -0.22441489981E+02  0.20695569489E+02 -0.20587683145E+02  0.36820914795E+02  0.00000000000E+00 0. -1.
         11    1    4    4    0    0 -0.72833180490E+01  0.30420488431E+01 -0.25979596921E+01  0.83096436620E+01  0.51100000000E-03 0. -1.
        -11    1    4    4    0    0  0.10485335037E+02 -0.13208246267E+02  0.15240418915E+02  0.22730384714E+02  0.51100000000E-03 0.  1.
         12    1    4    4    0    0  0.19239472993E+02 -0.10529372065E+02  0.79452239217E+01  0.23327056829E+02  0.00000000000E+00 0. -1.
</event>
<event>
 8    1  0.1238315E-006  0.9118800E+02  0.7816164E-02  0.1184000E+00
        -11   -1    0    0    0    0  0.00000000000E+00  0.00000000000E+00  0.45593999997E+02  0.45594000000E+02  0.51100000000E-03 0. -1.
         11   -1    0    0    0    0 -0.00000000000E+00 -0.00000000000E+00 -0.45593999997E+02  0.45594000000E+02  0.51100000000E-03 0.  1.
         23    2    1    2    0    0  0.71054273576E-14  0.00000000000E+00  0.88817841970E-15  0.91188000000E+02  0.91188000000E+02 0.  0.
    9900012    2    3    3    0    0  0.36380561715E+02  0.50349641021E+01 -0.26236689336E+01  0.54367085116E+02  0.40000002140E+02 0.  0.
        -12    1    3    3    0    0 -0.36380561715E+02 -0.50349641021E+01  0.26236689336E+01  0.36820914884E+02  0.00000000000E+00 0.  1.
         11    1    4    4    0    0  0.11146005990E+02  0.97025239648E+01 -0.61640057013E+01  0.16011476739E+02  0.51100000000E-03 0.  1.
        -11    1    4    4    0    0  0.22146456021E+01  0.33637981734E+01 -0.97776051666E+01  0.10574561757E+02  0.51100000000E-03 0. -1.
         12    1    4    4    0    0  0.23019910123E+02 -0.80313580362E+01  0.13317941934E+02  0.27781046621E+02  0.00000000000E+00 0. -1.
</event>
<event>
 8    1  0.1238315E-006  0.9118800E+02  0.7816164E-02  0.1184000E+00
        -11   -1    0    0    0    0  0.00000000000E+00  0.00000000000E+00  0.45593999997E+02  0.45594000000E+02  0.51100000000E-03 0.  1.
         11   -1    0    0    0    0 -0.00000000000E+00 -0.00000000000E+00 -0.45593999997E+02  0.45594000000E+02  0.51100000000E-03 0. -1.
         23    2    1    2    0    0  0.00000000000E+00 -0.13322676296E-14  0.00000000000E+00  0.91188000000E+02  0.91188000000E+02 0.  0.
    9900012    2    3    3    0    0 -0.29042093236E+02 -0.23959347313E+01 -0.22507682118E+02  0.54367089676E+02  0.40000012534E+02 0.  0.
        -12    1    3    3    0    0  0.29042093236E+02  0.23959347313E+01  0.22507682118E+02  0.36820910324E+02  0.00000000000E+00 0.  1.
         11    1    4    4    0    0 -0.58806807408E+01 -0.85759713493E+01 -0.77014912220E+01  0.12939963596E+02  0.51100000000E-03 0. -1.
        -11    1    4    4    0    0 -0.89197773429E+01 -0.88242295260E+01 -0.16433956679E+02  0.20676179216E+02  0.51100000000E-03 0.  1.
        -12    1    4    4    0    0 -0.14241635152E+02  0.15004266144E+02  0.16277657829E+01  0.20750946865E+02  0.00000000000E+00 0.  1.
</event>
<event>
 8    1  0.1238315E-006  0.9118800E+02  0.7816164E-02  0.1184000E+00
        -11   -1    0    0    0    0  0.00000000000E+00  0.00000000000E+00  0.45593999997E+02  0.45594000000E+02  0.51100000000E-03 0. -1.
         11   -1    0    0    0    0 -0.00000000000E+00 -0.00000000000E+00 -0.45593999997E+02  0.45594000000E+02  0.51100000000E-03 0.  1.
         23    2    1    2    0    0 -0.35527136788E-14 -0.17763568394E-14  0.00000000000E+00  0.91188000000E+02  0.91188000000E+02 0.  0.
    9900012    2    3    3    0    0  0.18685402457E+02  0.88990199381E+01 -0.30453942913E+02  0.54367089368E+02  0.40000011831E+02 0.  0.
         12    1    3    3    0    0 -0.18685402457E+02 -0.88990199381E+01  0.30453942913E+02  0.36820910632E+02  0.00000000000E+00 0. -1.
         11    1    4    4    0    0 -0.37791358204E+01  0.34793383525E+01 -0.16265532006E+02  0.17057408789E+02  0.51100000000E-03 0. -1.
        -11    1    4    4    0    0  0.19728354803E+02  0.14624308831E+02 -0.12513372482E+02  0.27561982570E+02  0.51100000000E-03 0.  1.
         12    1    4    4    0    0  0.27361834742E+01 -0.92046272459E+01 -0.16750384258E+01  0.97476980087E+01  0.00000000000E+00 0. -1.
</event>
<event>
 8    1  0.1238315E-006  0.9118800E+02  0.7816164E-02  0.1184000E+00
        -11   -1    0    0    0    0  0.00000000000E+00  0.00000000000E+00  0.45593999997E+02  0.45594000000E+02  0.51100000000E-03 0. -1.
         11   -1    0    0    0    0 -0.00000000000E+00 -0.00000000000E+00 -0.45593999997E+02  0.45594000000E+02  0.51100000000E-03 0.  1.
         23    2    1    2    0    0  0.35527136788E-14  0.00000000000E+00  0.35527136788E-14  0.91188000000E+02  0.91188000000E+02 0.  0.
    9900012    2    3    3    0    0 -0.24744366478E+02 -0.14403281591E+02  0.23152705192E+02  0.54367001226E+02  0.39999810894E+02 0.  0.
        -12    1    3    3    0    0  0.24744366478E+02  0.14403281591E+02 -0.23152705192E+02  0.36820998774E+02  0.00000000000E+00 0.  1.
         11    1    4    4    0    0 -0.25399661021E+02 -0.70653194473E+01  0.73737366444E+01  0.27375783299E+02  0.51100000000E-03 0. -1.
        -11    1    4    4    0    0  0.52274931437E+01 -0.13353974991E+02  0.10175586277E+02  0.17584023686E+02  0.51100000000E-03 0.  1.
         12    1    4    4    0    0 -0.45721986010E+01  0.60160128468E+01  0.56033822709E+01  0.94071942413E+01  0.00000000000E+00 0. -1.
</event>
<event>
 8    1  0.1238315E-006  0.9118800E+02  0.7816164E-02  0.1184000E+00
        -11   -1    0    0    0    0  0.00000000000E+00  0.00000000000E+00  0.45593999997E+02  0.45594000000E+02  0.51100000000E-03 0.  1.
         11   -1    0    0    0    0 -0.00000000000E+00 -0.00000000000E+00 -0.45593999997E+02  0.45594000000E+02  0.51100000000E-03 0. -1.
         23    2    1    2    0    0 -0.17763568394E-14  0.17763568394E-14  0.35527136788E-14  0.91188000000E+02  0.91188000000E+02 0.  0.
    9900012    2    3    3    0    0 -0.15219183497E+02  0.11207265339E+02  0.31599896479E+02  0.54367084745E+02  0.40000001294E+02 0.  0.
         12    1    3    3    0    0  0.15219183497E+02 -0.11207265339E+02 -0.31599896479E+02  0.36820915255E+02  0.00000000000E+00 0. -1.
         11    1    4    4    0    0 -0.70480343762E+01 -0.68688629054E+00 -0.32219956701E+01  0.77799651479E+01  0.51100000000E-03 0. -1.
        -11    1    4    4    0    0 -0.64680674391E+01  0.20315046814E+02  0.18881582822E+02  0.28478960542E+02  0.51100000000E-03 0.  1.
        -12    1    4    4    0    0 -0.17030816815E+01 -0.84208951839E+01  0.15940309327E+02  0.18108159055E+02  0.00000000000E+00 0.  1.
</event>
<event>
 8    1  0.1238315E-006  0.9118800E+02  0.7816164E-02  0.1184000E+00
        -11   -1    0    0    0    0  0.00000000000E+00  0.00000000000E+00  0.45593999997E+02  0.45594000000E+02  0.51100000000E-03 0. -1.
         11   -1    0    0    0    0 -0.00000000000E+00 -0.00000000000E+00 -0.45593999997E+02  0.45594000000E+02  0.51100000000E-03 0.  1.
         23    2    1    2    0    0  0.00000000000E+00  0.00000000000E+00  0.00000000000E+00  0.91188000000E+02  0.91188000000E+02 0.  0.
    9900012    2    3    3    0    0 -0.23166474624E+02  0.28429675512E+02 -0.32935398133E+01  0.54367090170E+02  0.40000013660E+02 0.  0.
         12    1    3    3    0    0  0.23166474624E+02 -0.28429675512E+02  0.32935398133E+01  0.36820909830E+02  0.00000000000E+00 0. -1.
         11    1    4    4    0    0 -0.65670059148E+01 -0.76098579331E+01  0.22261962241E-01  0.10051666544E+02  0.51100000000E-03 0. -1.
        -11    1    4    4    0    0 -0.19349808614E+02  0.20465085420E+02 -0.41972113426E+01  0.28475452551E+02  0.51100000000E-03 0.  1.
        -12    1    4    4    0    0  0.27503399041E+01  0.15574448024E+02  0.88140956711E+00  0.15839971076E+02  0.00000000000E+00 0.  1.
</event>
<event>
 8    1  0.1238315E-006  0.9118800E+02  0.7816164E-02  0.1184000E+00
        -11   -1    0    0    0    0  0.00000000000E+00  0.00000000000E+00  0.45593999997E+02  0.45594000000E+02  0.51100000000E-03 0.  1.
         11   -1    0    0    0    0 -0.00000000000E+00 -0.00000000000E+00 -0.45593999997E+02  0.45594000000E+02  0.51100000000E-03 0. -1.
         23    2    1    2    0    0  0.00000000000E+00  0.00000000000E+00  0.00000000000E+00  0.91188000000E+02  0.91188000000E+02 0.  0.
    9900012    2    3    3    0    0  0.11978573998E+02  0.19618576147E+02 -0.28764735884E+02  0.54367016912E+02  0.39999846654E+02 0.  0.
        -12    1    3    3    0    0 -0.11978573998E+02 -0.19618576147E+02  0.28764735884E+02  0.36820983088E+02  0.00000000000E+00 0.  1.
         11    1    4    4    0    0  0.17846764712E+02 -0.77710192716E+00 -0.21907780484E+02  0.28267680203E+02  0.51100000000E-03 0. -1.
        -11    1    4    4    0    0 -0.56282399970E+01  0.20444395122E+02 -0.20695932455E+01  0.21305717398E+02  0.51100000000E-03 0.  1.
         12    1    4    4    0    0 -0.23995071718E+00 -0.48717047562E-01 -0.47873621546E+01  0.47936193108E+01  0.00000000000E+00 0. -1.
</event>
<event>
 8    1  0.1238315E-006  0.9118800E+02  0.7816164E-02  0.1184000E+00
        -11   -1    0    0    0    0  0.00000000000E+00  0.00000000000E+00  0.45593999997E+02  0.45594000000E+02  0.51100000000E-03 0. -1.
         11   -1    0    0    0    0 -0.00000000000E+00 -0.00000000000E+00 -0.45593999997E+02  0.45594000000E+02  0.51100000000E-03 0.  1.
         23    2    1    2    0    0 -0.26645352591E-14  0.00000000000E+00  0.00000000000E+00  0.91188000000E+02  0.91188000000E+02 0.  0.
    9900012    2    3    3    0    0 -0.47452694081E+01  0.11436453815E+02 -0.34676655542E+02  0.54367075281E+02  0.39999979717E+02 0.  0.
         12    1    3    3    0    0  0.47452694081E+01 -0.11436453815E+02  0.34676655542E+02  0.36820924719E+02  0.00000000000E+00 0. -1.
         11    1    4    4    0    0  0.10178590714E+01  0.78021882564E+01  0.12835958675E+01  0.79723144250E+01  0.51100000000E-03 0. -1.
        -11    1    4    4    0    0  0.59517400897E+01  0.11161981049E+02 -0.27053953745E+02  0.29865187837E+02  0.51100000000E-03 0.  1.
        -12    1    4    4    0    0 -0.11714868569E+02 -0.75277154903E+01 -0.89062976648E+01  0.16529573019E+02  0.00000000000E+00 0.  1.
</event>
<event>
 8    1  0.1238315E-006  0.9118800E+02  0.7816164E-02  0.1184000E+00
        -11   -1    0    0    0    0  0.00000000000E+00  0.00000000000E+00  0.45593999997E+02  0.45594000000E+02  0.51100000000E-03 0.  1.
         11   -1    0    0    0    0 -0.00000000000E+00 -0.00000000000E+00 -0.45593999997E+02  0.45594000000E+02  0.51100000000E-03 0. -1.
         23    2    1    2    0    0  0.00000000000E+00  0.00000000000E+00  0.00000000000E+00  0.91188000000E+02  0.91188000000E+02 0.  0.
    9900012    2    3    3    0    0 -0.21057715413E+02 -0.23973498611E+02  0.18374313807E+02  0.54367198515E+02  0.40000260654E+02 0.  0.
         12    1    3    3    0    0  0.21057715413E+02  0.23973498611E+02 -0.18374313807E+02  0.36820801485E+02  0.00000000000E+00 0. -1.
         11    1    4    4    0    0  0.55151090351E+01  0.51828416320E+00  0.46225984821E+01  0.72148085998E+01  0.51100000000E-03 0. -1.
        -11    1    4    4    0    0 -0.20710894623E+02 -0.28082930235E+02  0.17802748467E+02  0.39173077233E+02  0.51100000000E-03 0.  1.
        -12    1    4    4    0    0 -0.58619298259E+01  0.35911474607E+01 -0.40510331416E+01  0.79793126824E+01  0.00000000000E+00 0.  1.
</event>
<event>
 8    1  0.1238315E-006  0.9118800E+02  0.7816164E-02  0.1184000E+00
        -11   -1    0    0    0    0  0.00000000000E+00  0.00000000000E+00  0.45593999997E+02  0.45594000000E+02  0.51100000000E-03 0.  1.
         11   -1    0    0    0    0 -0.00000000000E+00 -0.00000000000E+00 -0.45593999997E+02  0.45594000000E+02  0.51100000000E-03 0. -1.
         23    2    1    2    0    0  0.35527136788E-14  0.00000000000E+00  0.00000000000E+00  0.91188000000E+02  0.91188000000E+02 0.  0.
    9900012    2    3    3    0    0  0.28565152888E+02  0.50928804846E+01 -0.22668784006E+02  0.54367093446E+02  0.40000021129E+02 0.  0.
        -12    1    3    3    0    0 -0.28565152888E+02 -0.50928804846E+01  0.22668784006E+02  0.36820906554E+02  0.00000000000E+00 0.  1.
         11    1    4    4    0    0  0.63907344140E+00  0.23444517095E+01 -0.12904897330E+02  0.13131688545E+02  0.51100000000E-03 0. -1.
        -11    1    4    4    0    0  0.46877517090E+01 -0.11765011740E+02 -0.31183395676E+01  0.13042797217E+02  0.51100000000E-03 0.  1.
        -12    1    4    4    0    0  0.23238327738E+02  0.14513440515E+02 -0.66455471079E+01  0.28192607684E+02  0.00000000000E+00 0.  1.
</event>
<event>
 8    1  0.1238315E-006  0.9118800E+02  0.7816164E-02  0.1184000E+00
        -11   -1    0    0    0    0  0.00000000000E+00  0.00000000000E+00  0.45593999997E+02  0.45594000000E+02  0.51100000000E-03 0.  1.
         11   -1    0    0    0    0 -0.00000000000E+00 -0.00000000000E+00 -0.45593999997E+02  0.45594000000E+02  0.51100000000E-03 0. -1.
         23    2    1    2    0    0  0.22204460493E-14 -0.35527136788E-14  0.00000000000E+00  0.91188000000E+02  0.91188000000E+02 0.  0.
    9900012    2    3    3    0    0  0.36648673656E+01  0.22081472260E+02 -0.29236229792E+02  0.54367084715E+02  0.40000001224E+02 0.  0.
        -12    1    3    3    0    0 -0.36648673656E+01 -0.22081472260E+02  0.29236229792E+02  0.36820915285E+02  0.00000000000E+00 0.  1.
         11    1    4    4    0    0 -0.37225632130E+01  0.79381483971E+01 -0.14281250382E+02  0.16757857548E+02  0.51100000000E-03 0. -1.
        -11    1    4    4    0    0 -0.22490761173E+01 -0.15279795582E+01  0.78506788897E+01  0.83082022244E+01  0.51100000000E-03 0.  1.
         12    1    4    4    0    0  0.96365066959E+01  0.15671303421E+02 -0.22805658299E+02  0.29301024943E+02  0.00000000000E+00 0. -1.
</event>
<event>
 8    1  0.1238315E-006  0.9118800E+02  0.7816164E-02  0.1184000E+00
        -11   -1    0    0    0    0  0.00000000000E+00  0.00000000000E+00  0.45593999997E+02  0.45594000000E+02  0.51100000000E-03 0. -1.
         11   -1    0    0    0    0 -0.00000000000E+00 -0.00000000000E+00 -0.45593999997E+02  0.45594000000E+02  0.51100000000E-03 0.  1.
         23    2    1    2    0    0  0.00000000000E+00  0.00000000000E+00 -0.88817841970E-15  0.91188000000E+02  0.91188000000E+02 0.  0.
    9900012    2    3    3    0    0  0.36449020337E+02  0.15175464105E+01  0.49941951699E+01  0.54367136132E+02  0.40000118439E+02 0.  0.
         12    1    3    3    0    0 -0.36449020337E+02 -0.15175464105E+01 -0.49941951699E+01  0.36820863868E+02  0.00000000000E+00 0. -1.
         11    1    4    4    0    0  0.74745995570E+01 -0.41482315708E+01 -0.16158055595E+01  0.86999018138E+01  0.51100000000E-03 0. -1.
        -11    1    4    4    0    0  0.12184785132E+02  0.43001746019E+01 -0.13998347852E+02  0.19050307955E+02  0.51100000000E-03 0.  1.
         12    1    4    4    0    0  0.16789635647E+02  0.13656033794E+01  0.20608348581E+02  0.26616926363E+02  0.00000000000E+00 0. -1.
</event>
<event>
 8    1  0.1238315E-006  0.9118800E+02  0.7816164E-02  0.1184000E+00
        -11   -1    0    0    0    0  0.00000000000E+00  0.00000000000E+00  0.45593999997E+02  0.45594000000E+02  0.51100000000E-03 0.  1.
         11   -1    0    0    0    0 -0.00000000000E+00 -0.00000000000E+00 -0.45593999997E+02  0.45594000000E+02  0.51100000000E-03 0. -1.
         23    2    1    2    0    0  0.35527136788E-14  0.88817841970E-15  0.35527136788E-14  0.91188000000E+02  0.91188000000E+02 0.  0.
    9900012    2    3    3    0    0 -0.18996879868E+02 -0.74943466947E+01  0.30638788484E+02  0.54367054373E+02  0.39999932055E+02 0.  0.
         12    1    3    3    0    0  0.18996879868E+02  0.74943466947E+01 -0.30638788484E+02  0.36820945627E+02  0.00000000000E+00 0. -1.
         11    1    4    4    0    0 -0.11038809689E+02  0.79014322041E+01  0.37036053530E+01  0.14071412263E+02  0.51100000000E-03 0. -1.
        -11    1    4    4    0    0 -0.11841391067E+02 -0.13069577970E+02  0.30020420406E+02  0.34817496354E+02  0.51100000000E-03 0.  1.
        -12    1    4    4    0    0  0.38833208877E+01 -0.23262009288E+01 -0.30852372754E+01  0.54781457560E+01  0.00000000000E+00 0.  1.
</event>
<event>
 8    1  0.1238315E-006  0.9118800E+02  0.7816164E-02  0.1184000E+00
        -11   -1    0    0    0    0  0.00000000000E+00  0.00000000000E+00  0.45593999997E+02  0.45594000000E+02  0.51100000000E-03 0.  1.
         11   -1    0    0    0    0 -0.00000000000E+00 -0.00000000000E+00 -0.45593999997E+02  0.45594000000E+02  0.51100000000E-03 0. -1.
         23    2    1    2    0    0  0.35527136788E-14  0.00000000000E+00 -0.35527136788E-14  0.91188000000E+02  0.91188000000E+02 0.  0.
    9900012    2    3    3    0    0  0.24804523934E+02  0.18147585383E+02 -0.20277574853E+02  0.54367091473E+02  0.40000016631E+02 0.  0.
        -12    1    3    3    0    0 -0.24804523934E+02 -0.18147585383E+02  0.20277574853E+02  0.36820908527E+02  0.00000000000E+00 0.  1.
         11    1    4    4    0    0  0.12962613696E+02  0.11513842333E+02 -0.58248037770E+01  0.18290059005E+02  0.51100000000E-03 0. -1.
        -11    1    4    4    0    0  0.89202032920E+01  0.45361018969E+01  0.83247974064E+01  0.13017238544E+02  0.51100000000E-03 0.  1.
         12    1    4    4    0    0  0.29217069462E+01  0.20976411540E+01 -0.22777568482E+02  0.23059793924E+02  0.00000000000E+00 0. -1.
</event>
<event>
 8    1  0.1238315E-006  0.9118800E+02  0.7816164E-02  0.1184000E+00
        -11   -1    0    0    0    0  0.00000000000E+00  0.00000000000E+00  0.45593999997E+02  0.45594000000E+02  0.51100000000E-03 0. -1.
         11   -1    0    0    0    0 -0.00000000000E+00 -0.00000000000E+00 -0.45593999997E+02  0.45594000000E+02  0.51100000000E-03 0.  1.
         23    2    1    2    0    0 -0.88817841970E-15  0.00000000000E+00 -0.35527136788E-14  0.91188000000E+02  0.91188000000E+02 0.  0.
    9900012    2    3    3    0    0  0.19895493342E+01 -0.20029848092E+02  0.30832226561E+02  0.54367091322E+02  0.40000016288E+02 0.  0.
        -12    1    3    3    0    0 -0.19895493342E+01  0.20029848092E+02 -0.30832226561E+02  0.36820908678E+02  0.00000000000E+00 0.  1.
         11    1    4    4    0    0  0.90914566471E+01 -0.45533382213E+01 -0.23177803865E+01  0.10428786080E+02  0.51100000000E-03 0. -1.
        -11    1    4    4    0    0 -0.27368908382E+01  0.58170516647E+01  0.39825828192E+01  0.75623824092E+01  0.51100000000E-03 0.  1.
        -12    1    4    4    0    0 -0.43650164746E+01 -0.21293561535E+02  0.29167424129E+02  0.36375922833E+02  0.00000000000E+00 0.  1.
</event>
<event>
 8    1  0.1238315E-006  0.9118800E+02  0.7816164E-02  0.1184000E+00
        -11   -1    0    0    0    0  0.00000000000E+00  0.00000000000E+00  0.45593999997E+02  0.45594000000E+02  0.51100000000E-03 0.  1.
         11   -1    0    0    0    0 -0.00000000000E+00 -0.00000000000E+00 -0.45593999997E+02  0.45594000000E+02  0.51100000000E-03 0. -1.
         23    2    1    2    0    0  0.17763568394E-14  0.00000000000E+00  0.00000000000E+00  0.91188000000E+02  0.91188000000E+02 0.  0.
    9900012    2    3    3    0    0  0.15791963182E+02 -0.19408909338E+02  0.27012735447E+02  0.54367085574E+02  0.40000003182E+02 0.  0.
         12    1    3    3    0    0 -0.15791963182E+02  0.19408909338E+02 -0.27012735447E+02  0.36820914426E+02  0.00000000000E+00 0. -1.
         11    1    4    4    0    0 -0.88959541025E+00  0.20268711556E+01  0.55267303735E+01  0.59535145551E+01  0.51100000000E-03 0. -1.
        -11    1    4    4    0    0 -0.89914387041E+01 -0.34224485030E+01 -0.12157292439E+01  0.96972739252E+01  0.51100000000E-03 0.  1.
        -12    1    4    4    0    0  0.25672997296E+02 -0.18013331991E+02  0.22701734318E+02  0.38716297093E+02  0.00000000000E+00 0.  1.
</event>
<event>
 8    1  0.1238315E-006  0.9118800E+02  0.7816164E-02  0.1184000E+00
        -11   -1    0    0    0    0  0.00000000000E+00  0.00000000000E+00  0.45593999997E+02  0.45594000000E+02  0.51100000000E-03 0. -1.
         11   -1    0    0    0    0 -0.00000000000E+00 -0.00000000000E+00 -0.45593999997E+02  0.45594000000E+02  0.51100000000E-03 0.  1.
         23    2    1    2    0    0  0.00000000000E+00  0.35527136788E-14  0.00000000000E+00  0.91188000000E+02  0.91188000000E+02 0.  0.
    9900012    2    3    3    0    0 -0.26392743091E+02  0.23443177153E+02  0.10469056532E+02  0.54367345639E+02  0.40000596049E+02 0.  0.
        -12    1    3    3    0    0  0.26392743091E+02 -0.23443177153E+02 -0.10469056532E+02  0.36820654361E+02  0.00000000000E+00 0.  1.
         11    1    4    4    0    0 -0.28580611224E+02  0.21733311472E+01  0.18573790558E+01  0.28723240824E+02  0.51100000000E-03 0. -1.
        -11    1    4    4    0    0 -0.35795720613E+01  0.24857475468E+01  0.50207716169E+00  0.43868392660E+01  0.51100000000E-03 0.  1.
         12    1    4    4    0    0  0.57674401950E+01  0.18784098459E+02  0.81096003145E+01  0.21257265548E+02  0.00000000000E+00 0. -1.
</event>
<event>
 8    1  0.1238315E-006  0.9118800E+02  0.7816164E-02  0.1184000E+00
        -11   -1    0    0    0    0  0.00000000000E+00  0.00000000000E+00  0.45593999997E+02  0.45594000000E+02  0.51100000000E-03 0.  1.
         11   -1    0    0    0    0 -0.00000000000E+00 -0.00000000000E+00 -0.45593999997E+02  0.45594000000E+02  0.51100000000E-03 0. -1.
         23    2    1    2    0    0  0.00000000000E+00  0.88817841970E-15  0.00000000000E+00  0.91188000000E+02  0.91188000000E+02 0.  0.
    9900012    2    3    3    0    0 -0.26790942634E+02 -0.42242676318E+01 -0.24903422957E+02  0.54367088560E+02  0.40000009991E+02 0.  0.
        -12    1    3    3    0    0  0.26790942634E+02  0.42242676318E+01  0.24903422957E+02  0.36820911440E+02  0.00000000000E+00 0.  1.
         11    1    4    4    0    0 -0.82147475188E+01 -0.16016865991E+02 -0.54220971155E+01  0.18799500269E+02  0.51100000000E-03 0. -1.
        -11    1    4    4    0    0 -0.11343719638E+02 -0.21390967479E+01 -0.15584203897E+02  0.19393893923E+02  0.51100000000E-03 0.  1.
        -12    1    4    4    0    0 -0.72324754773E+01  0.13931695107E+02 -0.38971219445E+01  0.16173694369E+02  0.00000000000E+00 0.  1.
</event>
<event>
 8    1  0.1238315E-006  0.9118800E+02  0.7816164E-02  0.1184000E+00
        -11   -1    0    0    0    0  0.00000000000E+00  0.00000000000E+00  0.45593999997E+02  0.45594000000E+02  0.51100000000E-03 0.  1.
         11   -1    0    0    0    0 -0.00000000000E+00 -0.00000000000E+00 -0.45593999997E+02  0.45594000000E+02  0.51100000000E-03 0. -1.
         23    2    1    2    0    0  0.00000000000E+00  0.00000000000E+00  0.00000000000E+00  0.91188000000E+02  0.91188000000E+02 0.  0.
    9900012    2    3    3    0    0 -0.27488910236E+02 -0.12361281648E+02  0.21150339540E+02  0.54367104674E+02  0.40000046725E+02 0.  0.
         12    1    3    3    0    0  0.27488910236E+02  0.12361281648E+02 -0.21150339540E+02  0.36820895326E+02  0.00000000000E+00 0. -1.
         11    1    4    4    0    0 -0.35804079876E+01  0.61962078327E+01 -0.36331441085E+01  0.80257117589E+01  0.51100000000E-03 0. -1.
        -11    1    4    4    0    0  0.90091323452E+00 -0.79080100671E+01 -0.21098358153E+01  0.82340558236E+01  0.51100000000E-03 0.  1.
        -12    1    4    4    0    0 -0.24809415483E+02 -0.10649479413E+02  0.26893319464E+02  0.38107337091E+02  0.00000000000E+00 0.  1.
</event>
<event>
 8    1  0.1238315E-006  0.9118800E+02  0.7816164E-02  0.1184000E+00
        -11   -1    0    0    0    0  0.00000000000E+00  0.00000000000E+00  0.45593999997E+02  0.45594000000E+02  0.51100000000E-03 0. -1.
         11   -1    0    0    0    0 -0.00000000000E+00 -0.00000000000E+00 -0.45593999997E+02  0.45594000000E+02  0.51100000000E-03 0.  1.
         23    2    1    2    0    0  0.00000000000E+00  0.35527136788E-14  0.88817841970E-15  0.91188000000E+02  0.91188000000E+02 0.  0.
    9900012    2    3    3    0    0 -0.32817716689E+02  0.16443386471E+02  0.28965890361E+01  0.54367113056E+02  0.40000065834E+02 0.  0.
         12    1    3    3    0    0  0.32817716689E+02 -0.16443386471E+02 -0.28965890361E+01  0.36820886944E+02  0.00000000000E+00 0. -1.
         11    1    4    4    0    0 -0.44013188905E+00 -0.63659730292E+01 -0.19558131081E+01  0.66741691516E+01  0.51100000000E-03 0. -1.
        -11    1    4    4    0    0 -0.31738077577E+02  0.15066500441E+02 -0.46275133764E+01  0.35436124000E+02  0.51100000000E-03 0.  1.
         12    1    4    4    0    0 -0.63950722240E+00  0.77428590594E+01  0.94799155206E+01  0.12256819905E+02  0.00000000000E+00 0. -1.
</event>
<event>
 8    1  0.1238315E-006  0.9118800E+02  0.7816164E-02  0.1184000E+00
        -11   -1    0    0    0    0  0.00000000000E+00  0.00000000000E+00  0.45593999997E+02  0.45594000000E+02  0.51100000000E-03 0.  1.
         11   -1    0    0    0    0 -0.00000000000E+00 -0.00000000000E+00 -0.45593999997E+02  0.45594000000E+02  0.51100000000E-03 0. -1.
         23    2    1    2    0    0  0.00000000000E+00 -0.17763568394E-14 -0.35527136788E-14  0.91188000000E+02  0.91188000000E+02 0.  0.
    9900012    2    3    3    0    0 -0.23600038598E+02  0.10198937794E+02  0.26359059729E+02  0.54367079537E+02  0.39999989420E+02 0.  0.
         12    1    3    3    0    0  0.23600038598E+02 -0.10198937794E+02 -0.26359059729E+02  0.36820920463E+02  0.00000000000E+00 0. -1.
         11    1    4    4    0    0  0.10063886120E+02  0.33606824949E+01  0.11426423103E+02  0.15592919414E+02  0.51100000000E-03 0. -1.
        -11    1    4    4    0    0 -0.29253066229E+02  0.26271827548E+01  0.10331845067E+02  0.31135044497E+02  0.51100000000E-03 0.  1.
        -12    1    4    4    0    0 -0.44108584885E+01  0.42110725441E+01  0.46007915591E+01  0.76391156260E+01  0.00000000000E+00 0.  1.
</event>
<event>
 8    1  0.1238315E-006  0.9118800E+02  0.7816164E-02  0.1184000E+00
        -11   -1    0    0    0    0  0.00000000000E+00  0.00000000000E+00  0.45593999997E+02  0.45594000000E+02  0.51100000000E-03 0.  1.
         11   -1    0    0    0    0 -0.00000000000E+00 -0.00000000000E+00 -0.45593999997E+02  0.45594000000E+02  0.51100000000E-03 0. -1.
         23    2    1    2    0    0 -0.17763568394E-14  0.00000000000E+00  0.35527136788E-14  0.91188000000E+02  0.91188000000E+02 0.  0.
    9900012    2    3    3    0    0  0.66044535661E+01 -0.26882748679E+02 -0.24279249213E+02  0.54367042302E+02  0.39999904536E+02 0.  0.
        -12    1    3    3    0    0 -0.66044535661E+01  0.26882748679E+02  0.24279249213E+02  0.36820957698E+02  0.00000000000E+00 0.  1.
         11    1    4    4    0    0 -0.67504792756E+00  0.48327993762E+01 -0.60628745051E+01  0.77826786546E+01  0.51100000000E-03 0. -1.
        -11    1    4    4    0    0  0.11120237505E+02 -0.11448876973E+02  0.38084011867E+01  0.16408546126E+02  0.51100000000E-03 0.  1.
         12    1    4    4    0    0 -0.38407360111E+01 -0.20266671082E+02 -0.22024775895E+02  0.30175817522E+02  0.00000000000E+00 0. -1.
</event>
<event>
 8    1  0.1238315E-006  0.9118800E+02  0.7816164E-02  0.1184000E+00
        -11   -1    0    0    0    0  0.00000000000E+00  0.00000000000E+00  0.45593999997E+02  0.45594000000E+02  0.51100000000E-03 0. -1.
         11   -1    0    0    0    0 -0.00000000000E+00 -0.00000000000E+00 -0.45593999997E+02  0.45594000000E+02  0.51100000000E-03 0.  1.
         23    2    1    2    0    0  0.00000000000E+00  0.00000000000E+00  0.88817841970E-15  0.91188000000E+02  0.91188000000E+02 0.  0.
    9900012    2    3    3    0    0 -0.36526600127E+02  0.36733802802E+01 -0.28450661426E+01  0.54367073330E+02  0.39999975270E+02 0.  0.
         12    1    3    3    0    0  0.36526600127E+02 -0.36733802802E+01  0.28450661426E+01  0.36820926670E+02  0.00000000000E+00 0. -1.
         11    1    4    4    0    0  0.14313294964E+01  0.27311963904E+01 -0.54377085125E+01  0.62511448534E+01  0.51100000000E-03 0.  1.
        -11    1    4    4    0    0 -0.55558155741E+01 -0.10646253197E+02  0.62009305354E+01  0.13515225991E+02  0.51100000000E-03 0. -1.
         12    1    4    4    0    0 -0.32402114049E+02  0.11588437087E+02 -0.36082881655E+01  0.34600702485E+02  0.00000000000E+00 0. -1.
</event>
<event>
 8    1  0.1238315E-006  0.9118800E+02  0.7816164E-02  0.1184000E+00
        -11   -1    0    0    0    0  0.00000000000E+00  0.00000000000E+00  0.45593999997E+02  0.45594000000E+02  0.51100000000E-03 0.  1.
         11   -1    0    0    0    0 -0.00000000000E+00 -0.00000000000E+00 -0.45593999997E+02  0.45594000000E+02  0.51100000000E-03 0. -1.
         23    2    1    2    0    0  0.35527136788E-14 -0.35527136788E-14  0.00000000000E+00  0.91188000000E+02  0.91188000000E+02 0.  0.
    9900012    2    3    3    0    0  0.91170561790E+01 -0.28551471963E+02 -0.21388491973E+02  0.54367151917E+02  0.40000154426E+02 0.  0.
        -12    1    3    3    0    0 -0.91170561790E+01  0.28551471963E+02  0.21388491973E+02  0.36820848083E+02  0.00000000000E+00 0.  1.
         11    1    4    4    0    0 -0.21978549422E+01 -0.10741594517E+02 -0.17618635909E+02  0.20751596341E+02  0.51100000000E-03 0. -1.
        -11    1    4    4    0    0  0.18606187309E+02 -0.16742509625E+02  0.62074426579E+00  0.25037714720E+02  0.51100000000E-03 0.  1.
        -12    1    4    4    0    0 -0.72912761875E+01 -0.10673678217E+01 -0.43906003296E+01  0.85778408567E+01  0.00000000000E+00 0.  1.
</event>
<event>
 8    1  0.1238315E-006  0.9118800E+02  0.7816164E-02  0.1184000E+00
        -11   -1    0    0    0    0  0.00000000000E+00  0.00000000000E+00  0.45593999997E+02  0.45594000000E+02  0.51100000000E-03 0.  1.
         11   -1    0    0    0    0 -0.00000000000E+00 -0.00000000000E+00 -0.45593999997E+02  0.45594000000E+02  0.51100000000E-03 0. -1.
         23    2    1    2    0    0 -0.35527136788E-14 -0.88817841970E-15  0.00000000000E+00  0.91188000000E+02  0.91188000000E+02 0.  0.
    9900012    2    3    3    0    0 -0.31773664246E+02 -0.47123978486E+01 -0.18000193228E+02  0.54367090324E+02  0.40000014013E+02 0.  0.
        -12    1    3    3    0    0  0.31773664246E+02  0.47123978486E+01  0.18000193228E+02  0.36820909676E+02  0.00000000000E+00 0.  1.
         11    1    4    4    0    0 -0.18373606005E+01  0.93048862483E+01  0.57147547909E+00  0.95017570246E+01  0.51100000000E-03 0. -1.
        -11    1    4    4    0    0 -0.18486449008E+02 -0.78571786134E+01  0.23591916000E+01  0.20224980543E+02  0.51100000000E-03 0.  1.
        -12    1    4    4    0    0 -0.11449854637E+02 -0.61601054835E+01 -0.20930860307E+02  0.24640352757E+02  0.00000000000E+00 0.  1.
</event>
<event>
 8    1  0.1238315E-006  0.9118800E+02  0.7816164E-02  0.1184000E+00
        -11   -1    0    0    0    0  0.00000000000E+00  0.00000000000E+00  0.45593999997E+02  0.45594000000E+02  0.51100000000E-03 0.  1.
         11   -1    0    0    0    0 -0.00000000000E+00 -0.00000000000E+00 -0.45593999997E+02  0.45594000000E+02  0.51100000000E-03 0. -1.
         23    2    1    2    0    0 -0.88817841970E-15  0.00000000000E+00  0.00000000000E+00  0.91188000000E+02  0.91188000000E+02 0.  0.
    9900012    2    3    3    0    0 -0.33767383384E+01 -0.13716213331E+02  0.34003547733E+02  0.54367107448E+02  0.40000053049E+02 0.  0.
         12    1    3    3    0    0  0.33767383384E+01  0.13716213331E+02 -0.34003547733E+02  0.36820892552E+02  0.00000000000E+00 0. -1.
         11    1    4    4    0    0  0.39008404669E+01  0.65135013651E+01 -0.25945400784E+01  0.80233343979E+01  0.51100000000E-03 0. -1.
        -11    1    4    4    0    0 -0.12391911786E+02 -0.14069040656E+02  0.32062121826E+02  0.37141311755E+02  0.51100000000E-03 0.  1.
        -12    1    4    4    0    0  0.51143329806E+01 -0.61606740396E+01  0.45359659854E+01  0.92024612946E+01  0.00000000000E+00 0.  1.
</event>
<event>
 8    1  0.1238315E-006  0.9118800E+02  0.7816164E-02  0.1184000E+00
        -11   -1    0    0    0    0  0.00000000000E+00  0.00000000000E+00  0.45593999997E+02  0.45594000000E+02  0.51100000000E-03 0.  1.
         11   -1    0    0    0    0 -0.00000000000E+00 -0.00000000000E+00 -0.45593999997E+02  0.45594000000E+02  0.51100000000E-03 0. -1.
         23    2    1    2    0    0  0.71054273576E-14 -0.88817841970E-15  0.00000000000E+00  0.91188000000E+02  0.91188000000E+02 0.  0.
    9900012    2    3    3    0    0  0.32760517880E+02 -0.25471744270E+01  0.16614404216E+02  0.54367108420E+02  0.40000055264E+02 0.  0.
         12    1    3    3    0    0 -0.32760517880E+02  0.25471744270E+01 -0.16614404216E+02  0.36820891580E+02  0.00000000000E+00 0. -1.
         11    1    4    4    0    0  0.17427375767E+02  0.41646421496E+01  0.37169925312E+01  0.18299554751E+02  0.51100000000E-03 0. -1.
        -11    1    4    4    0    0  0.64549382822E+01  0.90007555920E+01 -0.35691332347E+01  0.11636947270E+02  0.51100000000E-03 0.  1.
        -12    1    4    4    0    0  0.88782038311E+01 -0.15712572169E+02  0.16466544920E+02  0.24430606399E+02  0.00000000000E+00 0.  1.
</event>
<event>
 8    1  0.1238315E-006  0.9118800E+02  0.7816164E-02  0.1184000E+00
        -11   -1    0    0    0    0  0.00000000000E+00  0.00000000000E+00  0.45593999997E+02  0.45594000000E+02  0.51100000000E-03 0.  1.
         11   -1    0    0    0    0 -0.00000000000E+00 -0.00000000000E+00 -0.45593999997E+02  0.45594000000E+02  0.51100000000E-03 0. -1.
         23    2    1    2    0    0  0.00000000000E+00  0.00000000000E+00  0.00000000000E+00  0.91188000000E+02  0.91188000000E+02 0.  0.
    9900012    2    3    3    0    0  0.23165117203E+02 -0.90543564010E+01  0.27150975308E+02  0.54367089025E+02  0.40000011050E+02 0.  0.
         12    1    3    3    0    0 -0.23165117203E+02  0.90543564010E+01 -0.27150975308E+02  0.36820910975E+02  0.00000000000E+00 0. -1.
         11    1    4    4    0    0  0.14934910455E+01 -0.81493915236E+01 -0.41086223776E+01  0.92479119703E+01  0.51100000000E-03 0. -1.
        -11    1    4    4    0    0  0.37194207831E+01  0.10418014609E+02  0.13431131176E+02  0.17400126560E+02  0.51100000000E-03 0.  1.
        -12    1    4    4    0    0  0.17952205374E+02 -0.11322979487E+02  0.17828466510E+02  0.27719050495E+02  0.00000000000E+00 0.  1.
</event>
<event>
 8    1  0.1238315E-006  0.9118800E+02  0.7816164E-02  0.1184000E+00
        -11   -1    0    0    0    0  0.00000000000E+00  0.00000000000E+00  0.45593999997E+02  0.45594000000E+02  0.51100000000E-03 0. -1.
         11   -1    0    0    0    0 -0.00000000000E+00 -0.00000000000E+00 -0.45593999997E+02  0.45594000000E+02  0.51100000000E-03 0.  1.
         23    2    1    2    0    0  0.00000000000E+00  0.00000000000E+00  0.44408920985E-15  0.91188000000E+02  0.91188000000E+02 0.  0.
    9900012    2    3    3    0    0 -0.23754495329E+02 -0.27862469724E+02  0.38969686865E+01  0.54367087024E+02  0.40000006488E+02 0.  0.
        -12    1    3    3    0    0  0.23754495329E+02  0.27862469724E+02 -0.38969686865E+01  0.36820912976E+02  0.00000000000E+00 0.  1.
         11    1    4    4    0    0  0.34822730015E+01 -0.17594597490E+02  0.32151100846E+01  0.18221773218E+02  0.51100000000E-03 0. -1.
        -11    1    4    4    0    0 -0.43406784928E+01  0.64589118383E+01  0.29237875526E+00  0.77874589893E+01  0.51100000000E-03 0.  1.
         12    1    4    4    0    0 -0.22896089838E+02 -0.16726784073E+02  0.38947984664E+00  0.28357854817E+02  0.00000000000E+00 0. -1.
</event>
<event>
 8    1  0.1238315E-006  0.9118800E+02  0.7816164E-02  0.1184000E+00
        -11   -1    0    0    0    0  0.00000000000E+00  0.00000000000E+00  0.45593999997E+02  0.45594000000E+02  0.51100000000E-03 0. -1.
         11   -1    0    0    0    0 -0.00000000000E+00 -0.00000000000E+00 -0.45593999997E+02  0.45594000000E+02  0.51100000000E-03 0.  1.
         23    2    1    2    0    0  0.17763568394E-14  0.00000000000E+00  0.00000000000E+00  0.91188000000E+02  0.91188000000E+02 0.  0.
    9900012    2    3    3    0    0 -0.81476530622E+01  0.21031458760E+02  0.29104530003E+02  0.54367079660E+02  0.39999989700E+02 0.  0.
        -12    1    3    3    0    0  0.81476530622E+01 -0.21031458760E+02 -0.29104530003E+02  0.36820920340E+02  0.00000000000E+00 0.  1.
         11    1    4    4    0    0 -0.26400994811E+00  0.14314856457E+02  0.41246300979E+01  0.14899576851E+02  0.51100000000E-03 0. -1.
        -11    1    4    4    0    0  0.92747725287E+01  0.24910805958E+00  0.10757038125E+01  0.93402676213E+01  0.51100000000E-03 0.  1.
         12    1    4    4    0    0 -0.17158415643E+02  0.64674942436E+01  0.23904196093E+02  0.30127235187E+02  0.00000000000E+00 0. -1.
</event>
<event>
 8    1  0.1238315E-006  0.9118800E+02  0.7816164E-02  0.1184000E+00
        -11   -1    0    0    0    0  0.00000000000E+00  0.00000000000E+00  0.45593999997E+02  0.45594000000E+02  0.51100000000E-03 0.  1.
         11   -1    0    0    0    0 -0.00000000000E+00 -0.00000000000E+00 -0.45593999997E+02  0.45594000000E+02  0.51100000000E-03 0. -1.
         23    2    1    2    0    0  0.00000000000E+00 -0.35527136788E-14 -0.35527136788E-14  0.91188000000E+02  0.91188000000E+02 0.  0.
    9900012    2    3    3    0    0  0.86856298076E+01 -0.16240085015E+02 -0.31884146587E+02  0.54367091130E+02  0.40000015849E+02 0.  0.
        -12    1    3    3    0    0 -0.86856298076E+01  0.16240085015E+02  0.31884146587E+02  0.36820908870E+02  0.00000000000E+00 0.  1.
         11    1    4    4    0    0 -0.27689525602E+01 -0.44046607845E+01  0.78919442534E+00  0.52622203497E+01  0.51100000000E-03 0. -1.
        -11    1    4    4    0    0  0.58897200341E+00  0.35565112656E+01 -0.29834453353E+02  0.30051460323E+02  0.51100000000E-03 0.  1.
        -12    1    4    4    0    0  0.10865610364E+02 -0.15391935496E+02 -0.28388876592E+01  0.19053410457E+02  0.00000000000E+00 0.  1.
</event>
<event>
 8    1  0.1238315E-006  0.9118800E+02  0.7816164E-02  0.1184000E+00
        -11   -1    0    0    0    0  0.00000000000E+00  0.00000000000E+00  0.45593999997E+02  0.45594000000E+02  0.51100000000E-03 0. -1.
         11   -1    0    0    0    0 -0.00000000000E+00 -0.00000000000E+00 -0.45593999997E+02  0.45594000000E+02  0.51100000000E-03 0.  1.
         23    2    1    2    0    0  0.00000000000E+00  0.88817841970E-15  0.26645352591E-14  0.91188000000E+02  0.91188000000E+02 0.  0.
    9900012    2    3    3    0    0  0.36491238440E+02  0.47709111736E+01 -0.11861943654E+01  0.54367093800E+02  0.40000021936E+02 0.  0.
         12    1    3    3    0    0 -0.36491238440E+02 -0.47709111736E+01  0.11861943654E+01  0.36820906200E+02  0.00000000000E+00 0. -1.
         11    1    4    4    0    0  0.63985722761E+01 -0.16329104476E+01 -0.16849561534E+02  0.18097398925E+02  0.51100000000E-03 0. -1.
        -11    1    4    4    0    0  0.25005191888E+02  0.12761659902E+01  0.95174669163E+01  0.26785637901E+02  0.51100000000E-03 0.  1.
         12    1    4    4    0    0  0.50874742758E+01  0.51276556310E+01  0.61459002521E+01  0.94840569740E+01  0.00000000000E+00 0. -1.
</event>
<event>
 8    1  0.1238315E-006  0.9118800E+02  0.7816164E-02  0.1184000E+00
        -11   -1    0    0    0    0  0.00000000000E+00  0.00000000000E+00  0.45593999997E+02  0.45594000000E+02  0.51100000000E-03 0.  1.
         11   -1    0    0    0    0 -0.00000000000E+00 -0.00000000000E+00 -0.45593999997E+02  0.45594000000E+02  0.51100000000E-03 0. -1.
         23    2    1    2    0    0  0.88817841970E-15 -0.97144514655E-15  0.00000000000E+00  0.91188000000E+02  0.91188000000E+02 0.  0.
    9900012    2    3    3    0    0 -0.54477812781E+01  0.24684519319E+00  0.36414826250E+02  0.54367097999E+02  0.40000031508E+02 0.  0.
         12    1    3    3    0    0  0.54477812781E+01 -0.24684519319E+00 -0.36414826250E+02  0.36820902001E+02  0.00000000000E+00 0. -1.
         11    1    4    4    0    0  0.30953028433E+01  0.11353820478E+02 -0.31775527590E+01  0.12189625956E+02  0.51100000000E-03 0. -1.
        -11    1    4    4    0    0 -0.43638632284E+01 -0.82645870317E+01  0.28361965027E+02  0.29862145963E+02  0.51100000000E-03 0.  1.
         12    1    4    4    0    0 -0.41792208931E+01 -0.28423882531E+01  0.11230413982E+02  0.12315326080E+02  0.00000000000E+00 0. -1.
</event>
<event>
 8    1  0.1238315E-006  0.9118800E+02  0.7816164E-02  0.1184000E+00
        -11   -1    0    0    0    0  0.00000000000E+00  0.00000000000E+00  0.45593999997E+02  0.45594000000E+02  0.51100000000E-03 0.  1.
         11   -1    0    0    0    0 -0.00000000000E+00 -0.00000000000E+00 -0.45593999997E+02  0.45594000000E+02  0.51100000000E-03 0. -1.
         23    2    1    2    0    0  0.00000000000E+00  0.17763568394E-14  0.00000000000E+00  0.91188000000E+02  0.91188000000E+02 0.  0.
    9900012    2    3    3    0    0 -0.35307841629E+02  0.95273241642E+01  0.42856290225E+01  0.54367079285E+02  0.39999988846E+02 0.  0.
         12    1    3    3    0    0  0.35307841629E+02 -0.95273241642E+01 -0.42856290225E+01  0.36820920715E+02  0.00000000000E+00 0. -1.
         11    1    4    4    0    0 -0.14994466583E+02 -0.33562161880E+01  0.78955126678E+01  0.17275338948E+02  0.51100000000E-03 0.  1.
        -11    1    4    4    0    0  0.56517406498E+01  0.62285118533E+01 -0.57714624167E+01  0.10200309356E+02  0.51100000000E-03 0. -1.
         12    1    4    4    0    0 -0.25965115695E+02  0.66550284990E+01  0.21615787713E+01  0.26891430981E+02  0.00000000000E+00 0. -1.
</event>
<event>
 8    1  0.1238315E-006  0.9118800E+02  0.7816164E-02  0.1184000E+00
        -11   -1    0    0    0    0  0.00000000000E+00  0.00000000000E+00  0.45593999997E+02  0.45594000000E+02  0.51100000000E-03 0.  1.
         11   -1    0    0    0    0 -0.00000000000E+00 -0.00000000000E+00 -0.45593999997E+02  0.45594000000E+02  0.51100000000E-03 0. -1.
         23    2    1    2    0    0  0.17763568394E-14 -0.17763568394E-14  0.00000000000E+00  0.91188000000E+02  0.91188000000E+02 0.  0.
    9900012    2    3    3    0    0 -0.86015064415E+01  0.13856985913E+02 -0.33011787549E+02  0.54367080826E+02  0.39999992358E+02 0.  0.
        -12    1    3    3    0    0  0.86015064415E+01 -0.13856985913E+02  0.33011787549E+02  0.36820919174E+02  0.00000000000E+00 0.  1.
         11    1    4    4    0    0 -0.35687442147E+01 -0.85831527091E+01 -0.13133461326E+02  0.16090191185E+02  0.51100000000E-03 0. -1.
        -11    1    4    4    0    0  0.18794562975E+01 -0.42433005943E+01 -0.54720059830E+01  0.71750125886E+01  0.51100000000E-03 0.  1.
         12    1    4    4    0    0 -0.69122185243E+01  0.26683439216E+02 -0.14406320240E+02  0.31101877053E+02  0.00000000000E+00 0. -1.
</event>
<event>
 8    1  0.1238315E-006  0.9118800E+02  0.7816164E-02  0.1184000E+00
        -11   -1    0    0    0    0  0.00000000000E+00  0.00000000000E+00  0.45593999997E+02  0.45594000000E+02  0.51100000000E-03 0. -1.
         11   -1    0    0    0    0 -0.00000000000E+00 -0.00000000000E+00 -0.45593999997E+02  0.45594000000E+02  0.51100000000E-03 0.  1.
         23    2    1    2    0    0  0.00000000000E+00  0.00000000000E+00 -0.35527136788E-14  0.91188000000E+02  0.91188000000E+02 0.  0.
    9900012    2    3    3    0    0  0.21005518339E+02 -0.17284779790E+02 -0.24815031004E+02  0.54367066052E+02  0.39999958678E+02 0.  0.
         12    1    3    3    0    0 -0.21005518339E+02  0.17284779790E+02  0.24815031004E+02  0.36820933948E+02  0.00000000000E+00 0. -1.
         11    1    4    4    0    0 -0.52489079824E+01  0.44556499441E+01 -0.29866766194E+00  0.68915204466E+01  0.51100000000E-03 0. -1.
        -11    1    4    4    0    0  0.26220500249E+02 -0.19572525546E+02 -0.28203852589E+02  0.43197866738E+02  0.51100000000E-03 0.  1.
        -12    1    4    4    0    0  0.33926072073E-01 -0.21679041883E+01  0.36874892467E+01  0.42776788674E+01  0.00000000000E+00 0.  1.
</event>
<event>
 8    1  0.1238315E-006  0.9118800E+02  0.7816164E-02  0.1184000E+00
        -11   -1    0    0    0    0  0.00000000000E+00  0.00000000000E+00  0.45593999997E+02  0.45594000000E+02  0.51100000000E-03 0. -1.
         11   -1    0    0    0    0 -0.00000000000E+00 -0.00000000000E+00 -0.45593999997E+02  0.45594000000E+02  0.51100000000E-03 0.  1.
         23    2    1    2    0    0  0.35527136788E-14 -0.35527136788E-14  0.00000000000E+00  0.91188000000E+02  0.91188000000E+02 0.  0.
    9900012    2    3    3    0    0 -0.28432733780E+02  0.18304649599E+02 -0.14570069122E+02  0.54367252297E+02  0.40000383260E+02 0.  0.
         12    1    3    3    0    0  0.28432733780E+02 -0.18304649599E+02  0.14570069122E+02  0.36820747703E+02  0.00000000000E+00 0. -1.
         11    1    4    4    0    0 -0.88489221977E+01  0.43300700416E+01 -0.24188745617E+02  0.26117969780E+02  0.51100000000E-03 0. -1.
        -11    1    4    4    0    0 -0.90347716207E+01  0.77114979654E+01 -0.11386627432E+01  0.11932763813E+02  0.51100000000E-03 0.  1.
         12    1    4    4    0    0 -0.10549039962E+02  0.62630815921E+01  0.10757339238E+02  0.16316518705E+02  0.00000000000E+00 0. -1.
</event>
<event>
 8    1  0.1238315E-006  0.9118800E+02  0.7816164E-02  0.1184000E+00
        -11   -1    0    0    0    0  0.00000000000E+00  0.00000000000E+00  0.45593999997E+02  0.45594000000E+02  0.51100000000E-03 0.  1.
         11   -1    0    0    0    0 -0.00000000000E+00 -0.00000000000E+00 -0.45593999997E+02  0.45594000000E+02  0.51100000000E-03 0. -1.
         23    2    1    2    0    0  0.00000000000E+00 -0.35527136788E-14  0.00000000000E+00  0.91188000000E+02  0.91188000000E+02 0.  0.
    9900012    2    3    3    0    0  0.22568657259E+02  0.24084071189E+02  0.16321616572E+02  0.54367055647E+02  0.39999934958E+02 0.  0.
         12    1    3    3    0    0 -0.22568657259E+02 -0.24084071189E+02 -0.16321616572E+02  0.36820944353E+02  0.00000000000E+00 0. -1.
         11    1    4    4    0    0  0.26003112688E+02  0.27786227345E+02  0.40937156177E+01  0.38275250585E+02  0.51100000000E-03 0. -1.
        -11    1    4    4    0    0  0.11213018929E+01  0.14284973593E+01  0.76039100533E+01  0.78177599733E+01  0.51100000000E-03 0.  1.
         12    1    4    4    0    0 -0.45557573217E+01 -0.51306535153E+01  0.46239909011E+01  0.82740450883E+01  0.00000000000E+00 0. -1.
</event>
<event>
 8    1  0.1238315E-006  0.9118800E+02  0.7816164E-02  0.1184000E+00
        -11   -1    0    0    0    0  0.00000000000E+00  0.00000000000E+00  0.45593999997E+02  0.45594000000E+02  0.51100000000E-03 0. -1.
         11   -1    0    0    0    0 -0.00000000000E+00 -0.00000000000E+00 -0.45593999997E+02  0.45594000000E+02  0.51100000000E-03 0.  1.
         23    2    1    2    0    0  0.00000000000E+00  0.17763568394E-14  0.00000000000E+00  0.91188000000E+02  0.91188000000E+02 0.  0.
    9900012    2    3    3    0    0  0.17853853562E+02  0.15062560845E+02 -0.28462934001E+02  0.54367089661E+02  0.40000012501E+02 0.  0.
         12    1    3    3    0    0 -0.17853853562E+02 -0.15062560845E+02  0.28462934001E+02  0.36820910339E+02  0.00000000000E+00 0. -1.
         11    1    4    4    0    0  0.10992910294E+02 -0.18545505555E+01  0.72396621781E+01  0.13292710153E+02  0.51100000000E-03 0. -1.
        -11    1    4    4    0    0  0.89569805998E+01  0.14529695947E+02 -0.31200988057E+02  0.35564606307E+02  0.51100000000E-03 0.  1.
         12    1    4    4    0    0 -0.20960373317E+01  0.23874154535E+01 -0.45016081217E+01  0.55097732009E+01  0.00000000000E+00 0. -1.
</event>
<event>
 8    1  0.1238315E-006  0.9118800E+02  0.7816164E-02  0.1184000E+00
        -11   -1    0    0    0    0  0.00000000000E+00  0.00000000000E+00  0.45593999997E+02  0.45594000000E+02  0.51100000000E-03 0.  1.
         11   -1    0    0    0    0 -0.00000000000E+00 -0.00000000000E+00 -0.45593999997E+02  0.45594000000E+02  0.51100000000E-03 0. -1.
         23    2    1    2    0    0  0.00000000000E+00  0.35527136788E-14  0.00000000000E+00  0.91188000000E+02  0.91188000000E+02 0.  0.
    9900012    2    3    3    0    0  0.69035232820E+01 -0.18493284861E+02 -0.31082495620E+02  0.54367058232E+02  0.39999940852E+02 0.  0.
        -12    1    3    3    0    0 -0.69035232820E+01  0.18493284861E+02  0.31082495620E+02  0.36820941768E+02  0.00000000000E+00 0.  1.
         11    1    4    4    0    0 -0.43833930315E+01 -0.21143186514E+02 -0.33744516937E+02  0.40061713567E+02  0.51100000000E-03 0. -1.
        -11    1    4    4    0    0  0.43519719970E+01  0.31380272255E+01  0.46226394251E+01  0.70820668344E+01  0.51100000000E-03 0.  1.
         12    1    4    4    0    0  0.69349443165E+01 -0.48812557305E+00 -0.19606181089E+01  0.72232778306E+01  0.00000000000E+00 0. -1.
</event>
<event>
 8    1  0.1238315E-006  0.9118800E+02  0.7816164E-02  0.1184000E+00
        -11   -1    0    0    0    0  0.00000000000E+00  0.00000000000E+00  0.45593999997E+02  0.45594000000E+02  0.51100000000E-03 0. -1.
         11   -1    0    0    0    0 -0.00000000000E+00 -0.00000000000E+00 -0.45593999997E+02  0.45594000000E+02  0.51100000000E-03 0.  1.
         23    2    1    2    0    0  0.00000000000E+00 -0.35527136788E-14  0.17763568394E-14  0.91188000000E+02  0.91188000000E+02 0.  0.
    9900012    2    3    3    0    0  0.24870732840E+02 -0.24024822154E+02  0.12650466051E+02  0.54367085795E+02  0.40000003688E+02 0.  0.
         12    1    3    3    0    0 -0.24870732840E+02  0.24024822154E+02 -0.12650466051E+02  0.36820914205E+02  0.00000000000E+00 0. -1.
         11    1    4    4    0    0  0.22423129680E+02 -0.19592345995E+02  0.12080845250E+02  0.32134149879E+02  0.51100000000E-03 0. -1.
        -11    1    4    4    0    0 -0.56394031833E+01  0.55660253532E+01 -0.36154207009E+01  0.87094645991E+01  0.51100000000E-03 0.  1.
        -12    1    4    4    0    0  0.80870063441E+01 -0.99985015121E+01  0.41850415014E+01  0.13523471317E+02  0.00000000000E+00 0.  1.
</event>
<event>
 8    1  0.1238315E-006  0.9118800E+02  0.7816164E-02  0.1184000E+00
        -11   -1    0    0    0    0  0.00000000000E+00  0.00000000000E+00  0.45593999997E+02  0.45594000000E+02  0.51100000000E-03 0.  1.
         11   -1    0    0    0    0 -0.00000000000E+00 -0.00000000000E+00 -0.45593999997E+02  0.45594000000E+02  0.51100000000E-03 0. -1.
         23    2    1    2    0    0 -0.17763568394E-14  0.35527136788E-14 -0.35527136788E-14  0.91188000000E+02  0.91188000000E+02 0.  0.
    9900012    2    3    3    0    0  0.94338178054E+01 -0.27822590923E+02  0.22196943175E+02  0.54366840725E+02  0.39999444996E+02 0.  0.
         12    1    3    3    0    0 -0.94338178054E+01  0.27822590923E+02 -0.22196943175E+02  0.36821159275E+02  0.00000000000E+00 0. -1.
         11    1    4    4    0    0  0.85073430082E+01  0.65545516303E+01  0.69763512238E+01  0.12806502598E+02  0.51100000000E-03 0. -1.
        -11    1    4    4    0    0  0.43501557573E+01 -0.67846068575E+00  0.37964548774E+01  0.58135388458E+01  0.51100000000E-03 0.  1.
        -12    1    4    4    0    0 -0.34236809601E+01 -0.33698681868E+02  0.11424137074E+02  0.35746799281E+02  0.00000000000E+00 0.  1.
</event>
<event>
 8    1  0.1238315E-006  0.9118800E+02  0.7816164E-02  0.1184000E+00
        -11   -1    0    0    0    0  0.00000000000E+00  0.00000000000E+00  0.45593999997E+02  0.45594000000E+02  0.51100000000E-03 0.  1.
         11   -1    0    0    0    0 -0.00000000000E+00 -0.00000000000E+00 -0.45593999997E+02  0.45594000000E+02  0.51100000000E-03 0. -1.
         23    2    1    2    0    0  0.35527136788E-14  0.35527136788E-14 -0.11102230246E-15  0.91188000000E+02  0.91188000000E+02 0.  0.
    9900012    2    3    3    0    0  0.29529018705E+02  0.21977868924E+02 -0.88915122004E+00  0.54367078528E+02  0.39999987121E+02 0.  0.
         12    1    3    3    0    0 -0.29529018705E+02 -0.21977868924E+02  0.88915122004E+00  0.36820921472E+02  0.00000000000E+00 0. -1.
         11    1    4    4    0    0  0.98627041785E+01 -0.41817964903E+01 -0.18348761639E+01  0.10868630383E+02  0.51100000000E-03 0. -1.
        -11    1    4    4    0    0  0.14054952403E+02 -0.22864473134E+01  0.25220737013E+01  0.14461341030E+02  0.51100000000E-03 0.  1.
         12    1    4    4    0    0  0.56113621234E+01  0.28446112728E+02 -0.15763487574E+01  0.29037107115E+02  0.00000000000E+00 0. -1.
</event>
<event>
 8    1  0.1238315E-006  0.9118800E+02  0.7816164E-02  0.1184000E+00
        -11   -1    0    0    0    0  0.00000000000E+00  0.00000000000E+00  0.45593999997E+02  0.45594000000E+02  0.51100000000E-03 0. -1.
         11   -1    0    0    0    0 -0.00000000000E+00 -0.00000000000E+00 -0.45593999997E+02  0.45594000000E+02  0.51100000000E-03 0.  1.
         23    2    1    2    0    0  0.17763568394E-14  0.35527136788E-14 -0.35527136788E-14  0.91188000000E+02  0.91188000000E+02 0.  0.
    9900012    2    3    3    0    0  0.78617506335E+01 -0.18000793492E+02  0.31143932397E+02  0.54367079120E+02  0.39999988469E+02 0.  0.
        -12    1    3    3    0    0 -0.78617506335E+01  0.18000793492E+02 -0.31143932397E+02  0.36820920880E+02  0.00000000000E+00 0.  1.
         11    1    4    4    0    0  0.90162400629E+01  0.38761482592E+01  0.18664732512E+02  0.21087658718E+02  0.51100000000E-03 0. -1.
        -11    1    4    4    0    0  0.29737365283E+01  0.35398625602E+01  0.41593041380E+01  0.62188059190E+01  0.51100000000E-03 0.  1.
        -12    1    4    4    0    0 -0.41282259578E+01 -0.25416804311E+02  0.83198957465E+01  0.27060614483E+02  0.00000000000E+00 0.  1.
</event>
<event>
 8    1  0.1238315E-006  0.9118800E+02  0.7816164E-02  0.1184000E+00
        -11   -1    0    0    0    0  0.00000000000E+00  0.00000000000E+00  0.45593999997E+02  0.45594000000E+02  0.51100000000E-03 0. -1.
         11   -1    0    0    0    0 -0.00000000000E+00 -0.00000000000E+00 -0.45593999997E+02  0.45594000000E+02  0.51100000000E-03 0.  1.
         23    2    1    2    0    0 -0.52735593670E-15  0.00000000000E+00  0.88817841970E-15  0.91188000000E+02  0.91188000000E+02 0.  0.
    9900012    2    3    3    0    0 -0.10391562791E+00 -0.36396199934E+02 -0.55757814817E+01  0.54367034406E+02  0.39999886536E+02 0.  0.
         12    1    3    3    0    0  0.10391562791E+00  0.36396199934E+02  0.55757814817E+01  0.36820965594E+02  0.00000000000E+00 0. -1.
         11    1    4    4    0    0 -0.45251277454E+00 -0.24198968973E+02  0.81409889768E+01  0.25535672478E+02  0.51100000000E-03 0. -1.
        -11    1    4    4    0    0  0.11187771817E+02 -0.45201916929E+01 -0.61160880721E+01  0.13527930541E+02  0.51100000000E-03 0.  1.
         12    1    4    4    0    0 -0.10839174670E+02 -0.76770392689E+01 -0.76006823865E+01  0.15303431387E+02  0.00000000000E+00 0. -1.
</event>
<event>
 8    1  0.1238315E-006  0.9118800E+02  0.7816164E-02  0.1184000E+00
        -11   -1    0    0    0    0  0.00000000000E+00  0.00000000000E+00  0.45593999997E+02  0.45594000000E+02  0.51100000000E-03 0. -1.
         11   -1    0    0    0    0 -0.00000000000E+00 -0.00000000000E+00 -0.45593999997E+02  0.45594000000E+02  0.51100000000E-03 0.  1.
         23    2    1    2    0    0  0.00000000000E+00  0.00000000000E+00  0.00000000000E+00  0.91188000000E+02  0.91188000000E+02 0.  0.
    9900012    2    3    3    0    0 -0.22464136972E+02  0.27745817997E+02  0.90173202767E+01  0.54367082966E+02  0.39999997238E+02 0.  0.
        -12    1    3    3    0    0  0.22464136972E+02 -0.27745817997E+02 -0.90173202767E+01  0.36820917034E+02  0.00000000000E+00 0.  1.
         11    1    4    4    0    0 -0.45954284558E+01  0.16780058529E+02  0.20496572442E+01  0.17518259674E+02  0.51100000000E-03 0. -1.
        -11    1    4    4    0    0  0.77744233513E+01  0.18261495610E+01 -0.19162749899E+01  0.82127091001E+01  0.51100000000E-03 0.  1.
        -12    1    4    4    0    0 -0.25643131868E+02  0.91396099074E+01  0.88839380224E+01  0.28636114192E+02  0.00000000000E+00 0.  1.
</event>
<event>
 8    1  0.1238315E-006  0.9118800E+02  0.7816164E-02  0.1184000E+00
        -11   -1    0    0    0    0  0.00000000000E+00  0.00000000000E+00  0.45593999997E+02  0.45594000000E+02  0.51100000000E-03 0.  1.
         11   -1    0    0    0    0 -0.00000000000E+00 -0.00000000000E+00 -0.45593999997E+02  0.45594000000E+02  0.51100000000E-03 0. -1.
         23    2    1    2    0    0 -0.71054273576E-14  0.00000000000E+00  0.00000000000E+00  0.91188000000E+02  0.91188000000E+02 0.  0.
    9900012    2    3    3    0    0  0.32048340930E+02  0.14872539998E+02  0.10367773771E+02  0.54367091058E+02  0.40000015685E+02 0.  0.
         12    1    3    3    0    0 -0.32048340930E+02 -0.14872539998E+02 -0.10367773771E+02  0.36820908942E+02  0.00000000000E+00 0. -1.
         11    1    4    4    0    0 -0.83138805181E+00 -0.34386813228E+01 -0.39154780662E+01  0.52769976388E+01  0.51100000000E-03 0. -1.
        -11    1    4    4    0    0  0.36458293349E+02  0.10155373684E+02  0.96806890804E+01  0.39064747663E+02  0.51100000000E-03 0.  1.
        -12    1    4    4    0    0 -0.35785643678E+01  0.81558476373E+01  0.46025627562E+01  0.10025345757E+02  0.00000000000E+00 0.  1.
</event>
<event>
 8    1  0.1238315E-006  0.9118800E+02  0.7816164E-02  0.1184000E+00
        -11   -1    0    0    0    0  0.00000000000E+00  0.00000000000E+00  0.45593999997E+02  0.45594000000E+02  0.51100000000E-03 0.  1.
         11   -1    0    0    0    0 -0.00000000000E+00 -0.00000000000E+00 -0.45593999997E+02  0.45594000000E+02  0.51100000000E-03 0. -1.
         23    2    1    2    0    0  0.00000000000E+00  0.00000000000E+00  0.00000000000E+00  0.91188000000E+02  0.91188000000E+02 0.  0.
    9900012    2    3    3    0    0  0.34745388278E+02 -0.12017130947E+02  0.20312753894E+01  0.54367088516E+02  0.40000009889E+02 0.  0.
         12    1    3    3    0    0 -0.34745388278E+02  0.12017130947E+02 -0.20312753894E+01  0.36820911484E+02  0.00000000000E+00 0. -1.
         11    1    4    4    0    0 -0.27834728707E+01  0.80231556131E+01  0.45446611310E+01  0.96318581940E+01  0.51100000000E-03 0. -1.
        -11    1    4    4    0    0  0.34953443137E+02 -0.15237990688E+02  0.11857645130E+01  0.38148991927E+02  0.51100000000E-03 0.  1.
        -12    1    4    4    0    0  0.25754180124E+01 -0.48022958720E+01 -0.36991502546E+01  0.65862383944E+01  0.00000000000E+00 0.  1.
</event>
<event>
 8    1  0.1238315E-006  0.9118800E+02  0.7816164E-02  0.1184000E+00
        -11   -1    0    0    0    0  0.00000000000E+00  0.00000000000E+00  0.45593999997E+02  0.45594000000E+02  0.51100000000E-03 0.  1.
         11   -1    0    0    0    0 -0.00000000000E+00 -0.00000000000E+00 -0.45593999997E+02  0.45594000000E+02  0.51100000000E-03 0. -1.
         23    2    1    2    0    0  0.88817841970E-15  0.35527136788E-14 -0.71054273576E-14  0.91188000000E+02  0.91188000000E+02 0.  0.
    9900012    2    3    3    0    0  0.58250688692E+01  0.20304937401E+02 -0.30158914184E+02  0.54367054670E+02  0.39999932732E+02 0.  0.
        -12    1    3    3    0    0 -0.58250688692E+01 -0.20304937401E+02  0.30158914184E+02  0.36820945330E+02  0.00000000000E+00 0.  1.
         11    1    4    4    0    0 -0.44752555146E+01  0.15422052306E+02 -0.14695114612E+02  0.21767269075E+02  0.51100000000E-03 0. -1.
        -11    1    4    4    0    0  0.40820549430E+01  0.54124998580E+01  0.67256141123E+01  0.95494613837E+01  0.51100000000E-03 0.  1.
        -12    1    4    4    0    0  0.62182694409E+01 -0.52961476252E+00 -0.22189413684E+02  0.23050324212E+02  0.00000000000E+00 0.  1.
</event>
<event>
 8    1  0.1238315E-006  0.9118800E+02  0.7816164E-02  0.1184000E+00
        -11   -1    0    0    0    0  0.00000000000E+00  0.00000000000E+00  0.45593999997E+02  0.45594000000E+02  0.51100000000E-03 0.  1.
         11   -1    0    0    0    0 -0.00000000000E+00 -0.00000000000E+00 -0.45593999997E+02  0.45594000000E+02  0.51100000000E-03 0. -1.
         23    2    1    2    0    0  0.00000000000E+00  0.00000000000E+00  0.17763568394E-14  0.91188000000E+02  0.91188000000E+02 0.  0.
    9900012    2    3    3    0    0  0.27862777468E+02  0.22891559973E+02  0.74445904684E+01  0.54367084565E+02  0.40000000883E+02 0.  0.
        -12    1    3    3    0    0 -0.27862777468E+02 -0.22891559973E+02 -0.74445904684E+01  0.36820915435E+02  0.00000000000E+00 0.  1.
         11    1    4    4    0    0  0.15310246713E+02  0.18906012243E+02  0.96232941386E+01  0.26161971326E+02  0.51100000000E-03 0. -1.
        -11    1    4    4    0    0 -0.18348268268E+01 -0.29836058682E+01  0.83555405826E+01  0.90599973593E+01  0.51100000000E-03 0.  1.
         12    1    4    4    0    0  0.14387357582E+02  0.69691535988E+01 -0.10534244253E+02  0.19145115880E+02  0.00000000000E+00 0. -1.
</event>
<event>
 8    1  0.1238315E-006  0.9118800E+02  0.7816164E-02  0.1184000E+00
        -11   -1    0    0    0    0  0.00000000000E+00  0.00000000000E+00  0.45593999997E+02  0.45594000000E+02  0.51100000000E-03 0.  1.
         11   -1    0    0    0    0 -0.00000000000E+00 -0.00000000000E+00 -0.45593999997E+02  0.45594000000E+02  0.51100000000E-03 0. -1.
         23    2    1    2    0    0  0.00000000000E+00  0.00000000000E+00  0.00000000000E+00  0.91188000000E+02  0.91188000000E+02 0.  0.
    9900012    2    3    3    0    0 -0.22176951929E+02  0.13007714378E+02 -0.26358314680E+02  0.54367101274E+02  0.40000038975E+02 0.  0.
        -12    1    3    3    0    0  0.22176951929E+02 -0.13007714378E+02  0.26358314680E+02  0.36820898726E+02  0.00000000000E+00 0.  1.
         11    1    4    4    0    0 -0.95849779214E+01 -0.73328557239E+01 -0.14559841781E+02  0.18911149298E+02  0.51100000000E-03 0. -1.
        -11    1    4    4    0    0  0.63327378421E+01  0.28919296663E+01  0.39490953120E+00  0.69730036261E+01  0.51100000000E-03 0.  1.
         12    1    4    4    0    0 -0.18924711849E+02  0.17448640436E+02 -0.12193382430E+02  0.28482948350E+02  0.00000000000E+00 0. -1.
</event>
<event>
 8    1  0.1238315E-006  0.9118800E+02  0.7816164E-02  0.1184000E+00
        -11   -1    0    0    0    0  0.00000000000E+00  0.00000000000E+00  0.45593999997E+02  0.45594000000E+02  0.51100000000E-03 0.  1.
         11   -1    0    0    0    0 -0.00000000000E+00 -0.00000000000E+00 -0.45593999997E+02  0.45594000000E+02  0.51100000000E-03 0. -1.
         23    2    1    2    0    0  0.00000000000E+00  0.00000000000E+00  0.00000000000E+00  0.91188000000E+02  0.91188000000E+02 0.  0.
    9900012    2    3    3    0    0  0.19276330011E+02 -0.29569220338E+02 -0.10481674857E+02  0.54367065765E+02  0.39999958025E+02 0.  0.
        -12    1    3    3    0    0 -0.19276330011E+02  0.29569220338E+02  0.10481674857E+02  0.36820934235E+02  0.00000000000E+00 0.  1.
         11    1    4    4    0    0  0.55647401170E+01  0.51240448866E+01 -0.45611250741E+01  0.88332344457E+01  0.51100000000E-03 0. -1.
        -11    1    4    4    0    0  0.18573314125E+01 -0.80493032779E+01 -0.13112822801E+02  0.15497970361E+02  0.51100000000E-03 0.  1.
        -12    1    4    4    0    0  0.11854258482E+02 -0.26643961947E+02  0.71922730177E+01  0.30035860959E+02  0.00000000000E+00 0.  1.
</event>
<event>
 8    1  0.1238315E-006  0.9118800E+02  0.7816164E-02  0.1184000E+00
        -11   -1    0    0    0    0  0.00000000000E+00  0.00000000000E+00  0.45593999997E+02  0.45594000000E+02  0.51100000000E-03 0.  1.
         11   -1    0    0    0    0 -0.00000000000E+00 -0.00000000000E+00 -0.45593999997E+02  0.45594000000E+02  0.51100000000E-03 0. -1.
         23    2    1    2    0    0  0.00000000000E+00  0.00000000000E+00  0.00000000000E+00  0.91188000000E+02  0.91188000000E+02 0.  0.
    9900012    2    3    3    0    0 -0.20097223684E+02 -0.15013355329E+02  0.26953280100E+02  0.54367101774E+02  0.40000040114E+02 0.  0.
         12    1    3    3    0    0  0.20097223684E+02  0.15013355329E+02 -0.26953280100E+02  0.36820898226E+02  0.00000000000E+00 0. -1.
         11    1    4    4    0    0 -0.14861652672E+02 -0.22614838589E+02  0.12615295969E+02  0.29857081860E+02  0.51100000000E-03 0. -1.
        -11    1    4    4    0    0  0.19942495707E+01 -0.41543543814E+01  0.81987165548E+01  0.94050329656E+01  0.51100000000E-03 0.  1.
         12    1    4    4    0    0 -0.72298205830E+01  0.11755837642E+02  0.61392675765E+01  0.15104986948E+02  0.00000000000E+00 0. -1.
</event>
<event>
 8    1  0.1238315E-006  0.9118800E+02  0.7816164E-02  0.1184000E+00
        -11   -1    0    0    0    0  0.00000000000E+00  0.00000000000E+00  0.45593999997E+02  0.45594000000E+02  0.51100000000E-03 0.  1.
         11   -1    0    0    0    0 -0.00000000000E+00 -0.00000000000E+00 -0.45593999997E+02  0.45594000000E+02  0.51100000000E-03 0. -1.
         23    2    1    2    0    0  0.35527136788E-14 -0.35527136788E-14  0.71054273576E-14  0.91188000000E+02  0.91188000000E+02 0.  0.
    9900012    2    3    3    0    0 -0.16100842764E+02 -0.21393325007E+02 -0.25275865475E+02  0.54367070245E+02  0.39999968236E+02 0.  0.
        -12    1    3    3    0    0  0.16100842764E+02  0.21393325007E+02  0.25275865475E+02  0.36820929755E+02  0.00000000000E+00 0.  1.
         11    1    4    4    0    0 -0.77568909062E+01 -0.15475957588E+02 -0.22178708371E+02  0.28134848943E+02  0.51100000000E-03 0. -1.
        -11    1    4    4    0    0  0.70783573329E+00  0.52041326422E+01  0.69586377537E+01  0.87181802936E+01  0.51100000000E-03 0.  1.
        -12    1    4    4    0    0 -0.90517875911E+01 -0.11121500061E+02 -0.10055794858E+02  0.17514041008E+02  0.00000000000E+00 0.  1.
</event>
<event>
 8    1  0.1238315E-006  0.9118800E+02  0.7816164E-02  0.1184000E+00
        -11   -1    0    0    0    0  0.00000000000E+00  0.00000000000E+00  0.45593999997E+02  0.45594000000E+02  0.51100000000E-03 0. -1.
         11   -1    0    0    0    0 -0.00000000000E+00 -0.00000000000E+00 -0.45593999997E+02  0.45594000000E+02  0.51100000000E-03 0.  1.
         23    2    1    2    0    0  0.00000000000E+00 -0.17763568394E-14  0.35527136788E-14  0.91188000000E+02  0.91188000000E+02 0.  0.
    9900012    2    3    3    0    0  0.23123367938E+02  0.81826769028E+01 -0.27461487861E+02  0.54367086627E+02  0.40000005583E+02 0.  0.
         12    1    3    3    0    0 -0.23123367938E+02 -0.81826769028E+01  0.27461487861E+02  0.36820913373E+02  0.00000000000E+00 0. -1.
         11    1    4    4    0    0 -0.49823951637E+01  0.12270405323E+02 -0.62386133489E+01  0.14639241959E+02  0.51100000000E-03 0. -1.
        -11    1    4    4    0    0  0.42543401199E+01 -0.82227546437E+01 -0.44102435025E+01  0.10254918420E+02  0.51100000000E-03 0.  1.
         12    1    4    4    0    0  0.23851422982E+02  0.41350262233E+01 -0.16812631010E+02  0.29472926248E+02  0.00000000000E+00 0. -1.
</event>
<event>
 8    1  0.1238315E-006  0.9118800E+02  0.7816164E-02  0.1184000E+00
        -11   -1    0    0    0    0  0.00000000000E+00  0.00000000000E+00  0.45593999997E+02  0.45594000000E+02  0.51100000000E-03 0.  1.
         11   -1    0    0    0    0 -0.00000000000E+00 -0.00000000000E+00 -0.45593999997E+02  0.45594000000E+02  0.51100000000E-03 0. -1.
         23    2    1    2    0    0 -0.71054273576E-14  0.00000000000E+00 -0.44408920985E-15  0.91188000000E+02  0.91188000000E+02 0.  0.
    9900012    2    3    3    0    0 -0.27491432418E+02  0.24464987094E+02  0.12107478946E+01  0.54367077138E+02  0.39999983952E+02 0.  0.
        -12    1    3    3    0    0  0.27491432418E+02 -0.24464987094E+02 -0.12107478946E+01  0.36820922862E+02  0.00000000000E+00 0.  1.
         11    1    4    4    0    0 -0.89687259626E+01 -0.45033451876E+01  0.14152172453E+01  0.10135137068E+02  0.51100000000E-03 0. -1.
        -11    1    4    4    0    0 -0.17185131705E+02  0.18367550636E+02  0.12119586974E+02  0.27920960885E+02  0.51100000000E-03 0.  1.
         12    1    4    4    0    0 -0.13375747512E+01  0.10600781645E+02 -0.12324056324E+02  0.16310979185E+02  0.00000000000E+00 0. -1.
</event>
<event>
 8    1  0.1238315E-006  0.9118800E+02  0.7816164E-02  0.1184000E+00
        -11   -1    0    0    0    0  0.00000000000E+00  0.00000000000E+00  0.45593999997E+02  0.45594000000E+02  0.51100000000E-03 0.  1.
         11   -1    0    0    0    0 -0.00000000000E+00 -0.00000000000E+00 -0.45593999997E+02  0.45594000000E+02  0.51100000000E-03 0. -1.
         23    2    1    2    0    0  0.00000000000E+00  0.00000000000E+00 -0.35527136788E-14  0.91188000000E+02  0.91188000000E+02 0.  0.
    9900012    2    3    3    0    0  0.22963864739E+02 -0.50913960202E+01 -0.28328750808E+02  0.54367088557E+02  0.40000009983E+02 0.  0.
        -12    1    3    3    0    0 -0.22963864739E+02  0.50913960202E+01  0.28328750808E+02  0.36820911443E+02  0.00000000000E+00 0.  1.
         11    1    4    4    0    0 -0.14565850978E+01 -0.13961002962E+02 -0.92399952138E+01  0.16805021739E+02  0.51100000000E-03 0. -1.
        -11    1    4    4    0    0  0.26940893576E+02  0.10914213340E+02 -0.16613837616E+02  0.33480612301E+02  0.51100000000E-03 0.  1.
        -12    1    4    4    0    0 -0.25204437394E+01 -0.20446063985E+01 -0.24749179785E+01  0.40814545163E+01  0.00000000000E+00 0.  1.
</event>
<event>
 8    1  0.1238315E-006  0.9118800E+02  0.7816164E-02  0.1184000E+00
        -11   -1    0    0    0    0  0.00000000000E+00  0.00000000000E+00  0.45593999997E+02  0.45594000000E+02  0.51100000000E-03 0. -1.
         11   -1    0    0    0    0 -0.00000000000E+00 -0.00000000000E+00 -0.45593999997E+02  0.45594000000E+02  0.51100000000E-03 0.  1.
         23    2    1    2    0    0  0.00000000000E+00  0.00000000000E+00  0.17763568394E-14  0.91188000000E+02  0.91188000000E+02 0.  0.
    9900012    2    3    3    0    0  0.89140397151E+01  0.34426833444E+02  0.95452853485E+01  0.54367089671E+02  0.40000012524E+02 0.  0.
        -12    1    3    3    0    0 -0.89140397151E+01 -0.34426833444E+02 -0.95452853485E+01  0.36820910329E+02  0.00000000000E+00 0.  1.
         11    1    4    4    0    0 -0.61879150346E+01  0.31161309352E+01  0.11118070881E+02  0.13100078811E+02  0.51100000000E-03 0. -1.
        -11    1    4    4    0    0  0.56443034075E+01  0.10523883998E+02 -0.11303405035E+02  0.16443152405E+02  0.51100000000E-03 0.  1.
        -12    1    4    4    0    0  0.94576513422E+01  0.20786818511E+02  0.97306195028E+01  0.24823858456E+02  0.00000000000E+00 0.  1.
</event>
<event>
 8    1  0.1238315E-006  0.9118800E+02  0.7816164E-02  0.1184000E+00
        -11   -1    0    0    0    0  0.00000000000E+00  0.00000000000E+00  0.45593999997E+02  0.45594000000E+02  0.51100000000E-03 0.  1.
         11   -1    0    0    0    0 -0.00000000000E+00 -0.00000000000E+00 -0.45593999997E+02  0.45594000000E+02  0.51100000000E-03 0. -1.
         23    2    1    2    0    0  0.00000000000E+00  0.71054273576E-14 -0.88817841970E-15  0.91188000000E+02  0.91188000000E+02 0.  0.
    9900012    2    3    3    0    0  0.10877838369E+02 -0.34908133180E+02  0.43444817983E+01  0.54367086760E+02  0.40000005888E+02 0.  0.
         12    1    3    3    0    0 -0.10877838369E+02  0.34908133180E+02 -0.43444817983E+01  0.36820913240E+02  0.00000000000E+00 0. -1.
         11    1    4    4    0    0 -0.82969965299E+01 -0.39230026119E+01  0.72915682234E+01  0.11721649557E+02  0.51100000000E-03 0. -1.
        -11    1    4    4    0    0 -0.21109718498E+01 -0.59361503592E+01 -0.71232230208E+01  0.95096997693E+01  0.51100000000E-03 0.  1.
        -12    1    4    4    0    0  0.21285806749E+02 -0.25048980209E+02  0.41761365957E+01  0.33135737434E+02  0.00000000000E+00 0.  1.
</event>
<event>
 8    1  0.1238315E-006  0.9118800E+02  0.7816164E-02  0.1184000E+00
        -11   -1    0    0    0    0  0.00000000000E+00  0.00000000000E+00  0.45593999997E+02  0.45594000000E+02  0.51100000000E-03 0.  1.
         11   -1    0    0    0    0 -0.00000000000E+00 -0.00000000000E+00 -0.45593999997E+02  0.45594000000E+02  0.51100000000E-03 0. -1.
         23    2    1    2    0    0  0.35527136788E-14 -0.17763568394E-14  0.71054273576E-14  0.91188000000E+02  0.91188000000E+02 0.  0.
    9900012    2    3    3    0    0  0.15026788180E+02  0.13588646120E+02 -0.30746111600E+02  0.54367095001E+02  0.40000024675E+02 0.  0.
        -12    1    3    3    0    0 -0.15026788180E+02 -0.13588646120E+02  0.30746111600E+02  0.36820904999E+02  0.00000000000E+00 0.  1.
         11    1    4    4    0    0  0.26734266697E+02  0.55707113723E+01 -0.17458746195E+02  0.32412368935E+02  0.51100000000E-03 0. -1.
        -11    1    4    4    0    0 -0.23599385387E+01  0.31135684733E+01  0.11475203538E+01  0.40719064046E+01  0.51100000000E-03 0.  1.
        -12    1    4    4    0    0 -0.93475399778E+01  0.49043662747E+01 -0.14434885759E+02  0.17882819662E+02  0.00000000000E+00 0.  1.
</event>
<event>
 8    1  0.1238315E-006  0.9118800E+02  0.7816164E-02  0.1184000E+00
        -11   -1    0    0    0    0  0.00000000000E+00  0.00000000000E+00  0.45593999997E+02  0.45594000000E+02  0.51100000000E-03 0. -1.
         11   -1    0    0    0    0 -0.00000000000E+00 -0.00000000000E+00 -0.45593999997E+02  0.45594000000E+02  0.51100000000E-03 0.  1.
         23    2    1    2    0    0  0.71054273576E-14  0.00000000000E+00  0.00000000000E+00  0.91188000000E+02  0.91188000000E+02 0.  0.
    9900012    2    3    3    0    0  0.19818986510E+02  0.28695253044E+02  0.11814034229E+02  0.54367066032E+02  0.39999958634E+02 0.  0.
        -12    1    3    3    0    0 -0.19818986510E+02 -0.28695253044E+02 -0.11814034229E+02  0.36820933968E+02  0.00000000000E+00 0.  1.
         11    1    4    4    0    0 -0.19513145944E+01  0.11555860070E+02  0.16730208779E+02  0.20426586025E+02  0.51100000000E-03 0. -1.
        -11    1    4    4    0    0 -0.13024491089E+01  0.52486851146E+01 -0.58506720819E+01  0.79671471170E+01  0.51100000000E-03 0.  1.
         12    1    4    4    0    0  0.23072750213E+02  0.11890707859E+02  0.93449753163E+00  0.25973332890E+02  0.00000000000E+00 0. -1.
</event>
<event>
 8    1  0.1238315E-006  0.9118800E+02  0.7816164E-02  0.1184000E+00
        -11   -1    0    0    0    0  0.00000000000E+00  0.00000000000E+00  0.45593999997E+02  0.45594000000E+02  0.51100000000E-03 0.  1.
         11   -1    0    0    0    0 -0.00000000000E+00 -0.00000000000E+00 -0.45593999997E+02  0.45594000000E+02  0.51100000000E-03 0. -1.
         23    2    1    2    0    0  0.00000000000E+00  0.00000000000E+00  0.17763568394E-14  0.91188000000E+02  0.91188000000E+02 0.  0.
    9900012    2    3    3    0    0 -0.15583514602E+02  0.32906449832E+02 -0.54863707140E+01  0.54367073456E+02  0.39999975558E+02 0.  0.
        -12    1    3    3    0    0  0.15583514602E+02 -0.32906449832E+02  0.54863707140E+01  0.36820926544E+02  0.00000000000E+00 0.  1.
         11    1    4    4    0    0 -0.10935479651E+02  0.36283758502E+00 -0.88442475419E+01  0.14069011378E+02  0.51100000000E-03 0. -1.
        -11    1    4    4    0    0 -0.29002044633E+01  0.16491125484E+02 -0.98591332437E+01  0.19431184067E+02  0.51100000000E-03 0.  1.
        -12    1    4    4    0    0 -0.17478304874E+01  0.16052486763E+02  0.13217010072E+02  0.20866878011E+02  0.00000000000E+00 0.  1.
</event>
<event>
 8    1  0.1238315E-006  0.9118800E+02  0.7816164E-02  0.1184000E+00
        -11   -1    0    0    0    0  0.00000000000E+00  0.00000000000E+00  0.45593999997E+02  0.45594000000E+02  0.51100000000E-03 0.  1.
         11   -1    0    0    0    0 -0.00000000000E+00 -0.00000000000E+00 -0.45593999997E+02  0.45594000000E+02  0.51100000000E-03 0. -1.
         23    2    1    2    0    0  0.35527136788E-14 -0.26645352591E-14  0.35527136788E-14  0.91188000000E+02  0.91188000000E+02 0.  0.
    9900012    2    3    3    0    0  0.16750137760E+02  0.79160067910E+01 -0.31820580283E+02  0.54367087354E+02  0.40000007241E+02 0.  0.
        -12    1    3    3    0    0 -0.16750137760E+02 -0.79160067910E+01  0.31820580283E+02  0.36820912646E+02  0.00000000000E+00 0.  1.
         11    1    4    4    0    0 -0.40807724001E+01 -0.14713288406E+01 -0.27987895075E+02  0.28322072363E+02  0.51100000000E-03 0. -1.
        -11    1    4    4    0    0  0.10896890490E+02 -0.78135679506E+00  0.11410647536E+01  0.10984296510E+02  0.51100000000E-03 0.  1.
         12    1    4    4    0    0  0.99340196708E+01  0.10168692427E+02 -0.49737499619E+01  0.15060718481E+02  0.00000000000E+00 0. -1.
</event>
<event>
 8    1  0.1238315E-006  0.9118800E+02  0.7816164E-02  0.1184000E+00
        -11   -1    0    0    0    0  0.00000000000E+00  0.00000000000E+00  0.45593999997E+02  0.45594000000E+02  0.51100000000E-03 0.  1.
         11   -1    0    0    0    0 -0.00000000000E+00 -0.00000000000E+00 -0.45593999997E+02  0.45594000000E+02  0.51100000000E-03 0. -1.
         23    2    1    2    0    0  0.17763568394E-14  0.00000000000E+00  0.00000000000E+00  0.91188000000E+02  0.91188000000E+02 0.  0.
    9900012    2    3    3    0    0 -0.11817434583E+02  0.17067551917E+02  0.30410955413E+02  0.54367091569E+02  0.40000016849E+02 0.  0.
         12    1    3    3    0    0  0.11817434583E+02 -0.17067551917E+02 -0.30410955413E+02  0.36820908431E+02  0.00000000000E+00 0. -1.
         11    1    4    4    0    0 -0.15580693613E+01  0.95630343365E+00 -0.53461089992E+01  0.56500423082E+01  0.51100000000E-03 0. -1.
        -11    1    4    4    0    0 -0.16777679628E+02  0.16177854431E+02  0.35143413312E+02  0.42169574424E+02  0.51100000000E-03 0.  1.
        -12    1    4    4    0    0  0.65183144065E+01 -0.66605948240E-01  0.61365110117E+00  0.65474748360E+01  0.00000000000E+00 0.  1.
</event>
<event>
 8    1  0.1238315E-006  0.9118800E+02  0.7816164E-02  0.1184000E+00
        -11   -1    0    0    0    0  0.00000000000E+00  0.00000000000E+00  0.45593999997E+02  0.45594000000E+02  0.51100000000E-03 0.  1.
         11   -1    0    0    0    0 -0.00000000000E+00 -0.00000000000E+00 -0.45593999997E+02  0.45594000000E+02  0.51100000000E-03 0. -1.
         23    2    1    2    0    0  0.00000000000E+00 -0.17763568394E-14  0.00000000000E+00  0.91188000000E+02  0.91188000000E+02 0.  0.
    9900012    2    3    3    0    0 -0.11887607992E+02 -0.85751772957E+01  0.33777672770E+02  0.54367081120E+02  0.39999993030E+02 0.  0.
         12    1    3    3    0    0  0.11887607992E+02  0.85751772957E+01 -0.33777672770E+02  0.36820918880E+02  0.00000000000E+00 0. -1.
         11    1    4    4    0    0  0.57795260451E+01  0.21060901753E+01  0.23585356791E+02  0.24374322397E+02  0.51100000000E-03 0. -1.
        -11    1    4    4    0    0 -0.80766651440E+01  0.51428740649E+01  0.21302280223E+01  0.98091561913E+01  0.51100000000E-03 0.  1.
        -12    1    4    4    0    0 -0.95904688928E+01 -0.15824141536E+02  0.80620879566E+01  0.20183602532E+02  0.00000000000E+00 0.  1.
</event>
<event>
 8    1  0.1238315E-006  0.9118800E+02  0.7816164E-02  0.1184000E+00
        -11   -1    0    0    0    0  0.00000000000E+00  0.00000000000E+00  0.45593999997E+02  0.45594000000E+02  0.51100000000E-03 0.  1.
         11   -1    0    0    0    0 -0.00000000000E+00 -0.00000000000E+00 -0.45593999997E+02  0.45594000000E+02  0.51100000000E-03 0. -1.
         23    2    1    2    0    0  0.00000000000E+00 -0.44408920985E-15  0.00000000000E+00  0.91188000000E+02  0.91188000000E+02 0.  0.
    9900012    2    3    3    0    0 -0.17955444151E+02 -0.21704389583E+01  0.32072898200E+02  0.54367087751E+02  0.40000008146E+02 0.  0.
         12    1    3    3    0    0  0.17955444151E+02  0.21704389583E+01 -0.32072898200E+02  0.36820912249E+02  0.00000000000E+00 0. -1.
         11    1    4    4    0    0 -0.11529380238E+02  0.39853053009E+01  0.73816371585E+00  0.12221053676E+02  0.51100000000E-03 0. -1.
        -11    1    4    4    0    0  0.56249560809E+01 -0.92783814776E+01  0.26772067064E+02  0.28887230205E+02  0.51100000000E-03 0.  1.
        -12    1    4    4    0    0 -0.12051019993E+02  0.31226372184E+01  0.45626674195E+01  0.13258803870E+02  0.00000000000E+00 0.  1.
</event>
<event>
 8    1  0.1238315E-006  0.9118800E+02  0.7816164E-02  0.1184000E+00
        -11   -1    0    0    0    0  0.00000000000E+00  0.00000000000E+00  0.45593999997E+02  0.45594000000E+02  0.51100000000E-03 0.  1.
         11   -1    0    0    0    0 -0.00000000000E+00 -0.00000000000E+00 -0.45593999997E+02  0.45594000000E+02  0.51100000000E-03 0. -1.
         23    2    1    2    0    0  0.00000000000E+00 -0.35527136788E-14  0.00000000000E+00  0.91188000000E+02  0.91188000000E+02 0.  0.
    9900012    2    3    3    0    0 -0.21777269924E+02 -0.23868067514E+02 -0.17659183639E+02  0.54367069824E+02  0.39999967278E+02 0.  0.
        -12    1    3    3    0    0  0.21777269924E+02  0.23868067514E+02  0.17659183639E+02  0.36820930176E+02  0.00000000000E+00 0.  1.
         11    1    4    4    0    0  0.11496581956E+01 -0.20110976764E+01 -0.19123609166E+02  0.19263401974E+02  0.51100000000E-03 0. -1.
        -11    1    4    4    0    0 -0.19020520726E+02 -0.89489647746E+01  0.39551705073E+01  0.21389426201E+02  0.51100000000E-03 0.  1.
         12    1    4    4    0    0 -0.39064073938E+01 -0.12908005063E+02 -0.24907449808E+01  0.13714241649E+02  0.00000000000E+00 0. -1.
</event>
<event>
 8    1  0.1238315E-006  0.9118800E+02  0.7816164E-02  0.1184000E+00
        -11   -1    0    0    0    0  0.00000000000E+00  0.00000000000E+00  0.45593999997E+02  0.45594000000E+02  0.51100000000E-03 0. -1.
         11   -1    0    0    0    0 -0.00000000000E+00 -0.00000000000E+00 -0.45593999997E+02  0.45594000000E+02  0.51100000000E-03 0.  1.
         23    2    1    2    0    0  0.17763568394E-14  0.17763568394E-14  0.00000000000E+00  0.91188000000E+02  0.91188000000E+02 0.  0.
    9900012    2    3    3    0    0 -0.99181857998E+01  0.40890365304E+01 -0.35223415900E+02  0.54367086691E+02  0.40000005728E+02 0.  0.
         12    1    3    3    0    0  0.99181857998E+01 -0.40890365304E+01  0.35223415900E+02  0.36820913309E+02  0.00000000000E+00 0. -1.
         11    1    4    4    0    0  0.56008334416E+01 -0.27365402839E+01 -0.21579716253E+02  0.22462015532E+02  0.51100000000E-03 0. -1.
        -11    1    4    4    0    0 -0.16921126658E+02  0.13655051200E+02 -0.11575562587E+02  0.24632876408E+02  0.51100000000E-03 0.  1.
        -12    1    4    4    0    0  0.14021074163E+01 -0.68294743858E+01 -0.20681370595E+01  0.72721947505E+01  0.00000000000E+00 0.  1.
</event>
<event>
 8    1  0.1238315E-006  0.9118800E+02  0.7816164E-02  0.1184000E+00
        -11   -1    0    0    0    0  0.00000000000E+00  0.00000000000E+00  0.45593999997E+02  0.45594000000E+02  0.51100000000E-03 0.  1.
         11   -1    0    0    0    0 -0.00000000000E+00 -0.00000000000E+00 -0.45593999997E+02  0.45594000000E+02  0.51100000000E-03 0. -1.
         23    2    1    2    0    0  0.00000000000E+00  0.00000000000E+00  0.00000000000E+00  0.91188000000E+02  0.91188000000E+02 0.  0.
    9900012    2    3    3    0    0 -0.10839745785E+02 -0.32063506068E+02 -0.14498717939E+02  0.54367063945E+02  0.39999953876E+02 0.  0.
        -12    1    3    3    0    0  0.10839745785E+02  0.32063506068E+02  0.14498717939E+02  0.36820936055E+02  0.00000000000E+00 0.  1.
         11    1    4    4    0    0  0.39942041966E+01 -0.49141823449E+01  0.65857685269E+01  0.91364764890E+01  0.51100000000E-03 0. -1.
        -11    1    4    4    0    0 -0.13581301970E+02 -0.28097357586E+01 -0.14707367247E+01  0.13946664297E+02  0.51100000000E-03 0.  1.
         12    1    4    4    0    0 -0.12526480113E+01 -0.24339587964E+02 -0.19613749742E+02  0.31283923159E+02  0.00000000000E+00 0. -1.
</event>
<event>
 8    1  0.1238315E-006  0.9118800E+02  0.7816164E-02  0.1184000E+00
        -11   -1    0    0    0    0  0.00000000000E+00  0.00000000000E+00  0.45593999997E+02  0.45594000000E+02  0.51100000000E-03 0. -1.
         11   -1    0    0    0    0 -0.00000000000E+00 -0.00000000000E+00 -0.45593999997E+02  0.45594000000E+02  0.51100000000E-03 0.  1.
         23    2    1    2    0    0  0.00000000000E+00  0.00000000000E+00  0.00000000000E+00  0.91188000000E+02  0.91188000000E+02 0.  0.
    9900012    2    3    3    0    0 -0.24698955527E+02 -0.25579793922E+02 -0.95609669645E+01  0.54367131589E+02  0.40000108084E+02 0.  0.
         12    1    3    3    0    0  0.24698955527E+02  0.25579793922E+02  0.95609669645E+01  0.36820868411E+02  0.00000000000E+00 0. -1.
         11    1    4    4    0    0 -0.13247024166E+02 -0.21187279832E+02 -0.18963183253E+01  0.25059539090E+02  0.51100000000E-03 0. -1.
        -11    1    4    4    0    0 -0.12742411199E+02 -0.99875413778E+01  0.36705951748E+01  0.16601002835E+02  0.51100000000E-03 0.  1.
         12    1    4    4    0    0  0.12904798373E+01  0.55950272884E+01 -0.11335243814E+02  0.12706589664E+02  0.00000000000E+00 0. -1.
</event>
<event>
 8    1  0.1238315E-006  0.9118800E+02  0.7816164E-02  0.1184000E+00
        -11   -1    0    0    0    0  0.00000000000E+00  0.00000000000E+00  0.45593999997E+02  0.45594000000E+02  0.51100000000E-03 0. -1.
         11   -1    0    0    0    0 -0.00000000000E+00 -0.00000000000E+00 -0.45593999997E+02  0.45594000000E+02  0.51100000000E-03 0.  1.
         23    2    1    2    0    0  0.71054273576E-14  0.00000000000E+00  0.00000000000E+00  0.91188000000E+02  0.91188000000E+02 0.  0.
    9900012    2    3    3    0    0 -0.29698747460E+02  0.66929505215E+01 -0.20711566052E+02  0.54367079918E+02  0.39999990288E+02 0.  0.
        -12    1    3    3    0    0  0.29698747460E+02 -0.66929505215E+01  0.20711566052E+02  0.36820920082E+02  0.00000000000E+00 0.  1.
         11    1    4    4    0    0 -0.31975056245E+02  0.76031533581E+01 -0.14274479839E+02  0.35832568116E+02  0.51100000000E-03 0. -1.
        -11    1    4    4    0    0 -0.16451638729E+01  0.33981314050E+01 -0.10679839718E+02  0.11327525674E+02  0.51100000000E-03 0.  1.
         12    1    4    4    0    0  0.39214726577E+01 -0.43083342415E+01  0.42427535055E+01  0.72069861281E+01  0.00000000000E+00 0. -1.
</event>
<event>
 8    1  0.1238315E-006  0.9118800E+02  0.7816164E-02  0.1184000E+00
        -11   -1    0    0    0    0  0.00000000000E+00  0.00000000000E+00  0.45593999997E+02  0.45594000000E+02  0.51100000000E-03 0.  1.
         11   -1    0    0    0    0 -0.00000000000E+00 -0.00000000000E+00 -0.45593999997E+02  0.45594000000E+02  0.51100000000E-03 0. -1.
         23    2    1    2    0    0  0.00000000000E+00 -0.17763568394E-14  0.14210854715E-13  0.91188000000E+02  0.91188000000E+02 0.  0.
    9900012    2    3    3    0    0  0.42322163960E+01 -0.48984329716E+01 -0.36247397648E+02  0.54367080165E+02  0.39999990853E+02 0.  0.
        -12    1    3    3    0    0 -0.42322163960E+01  0.48984329716E+01  0.36247397648E+02  0.36820919835E+02  0.00000000000E+00 0.  1.
         11    1    4    4    0    0  0.68050351269E+01  0.34940804051E+01 -0.20380944192E+02  0.21769244070E+02  0.51100000000E-03 0. -1.
        -11    1    4    4    0    0  0.38114667571E+01 -0.15992947485E+02 -0.36213469000E+01  0.16834957729E+02  0.51100000000E-03 0.  1.
        -12    1    4    4    0    0 -0.63842854879E+01  0.76004341082E+01 -0.12245106556E+02  0.15762878366E+02  0.00000000000E+00 0.  1.
</event>
<event>
 8    1  0.1238315E-006  0.9118800E+02  0.7816164E-02  0.1184000E+00
        -11   -1    0    0    0    0  0.00000000000E+00  0.00000000000E+00  0.45593999997E+02  0.45594000000E+02  0.51100000000E-03 0.  1.
         11   -1    0    0    0    0 -0.00000000000E+00 -0.00000000000E+00 -0.45593999997E+02  0.45594000000E+02  0.51100000000E-03 0. -1.
         23    2    1    2    0    0  0.35527136788E-14  0.00000000000E+00  0.26645352591E-14  0.91188000000E+02  0.91188000000E+02 0.  0.
    9900012    2    3    3    0    0 -0.26303011426E+02 -0.25293907390E+02  0.49141722526E+01  0.54367092215E+02  0.40000018323E+02 0.  0.
         12    1    3    3    0    0  0.26303011426E+02  0.25293907390E+02 -0.49141722526E+01  0.36820907785E+02  0.00000000000E+00 0. -1.
         11    1    4    4    0    0  0.37397490181E+01 -0.75382619974E+01 -0.77864100467E+01  0.11464697917E+02  0.51100000000E-03 0. -1.
        -11    1    4    4    0    0 -0.30847478293E+01 -0.12002123180E+02 -0.36489700718E+00  0.12397571539E+02  0.51100000000E-03 0.  1.
         12    1    4    4    0    0 -0.26958012615E+02 -0.57535222132E+01  0.13065479307E+02  0.30504822758E+02  0.00000000000E+00 0. -1.
</event>
<event>
 8    1  0.1238315E-006  0.9118800E+02  0.7816164E-02  0.1184000E+00
        -11   -1    0    0    0    0  0.00000000000E+00  0.00000000000E+00  0.45593999997E+02  0.45594000000E+02  0.51100000000E-03 0. -1.
         11   -1    0    0    0    0 -0.00000000000E+00 -0.00000000000E+00 -0.45593999997E+02  0.45594000000E+02  0.51100000000E-03 0.  1.
         23    2    1    2    0    0 -0.11102230246E-15 -0.35527136788E-14  0.71054273576E-14  0.91188000000E+02  0.91188000000E+02 0.  0.
    9900012    2    3    3    0    0 -0.37064696371E+00 -0.23845507346E+02 -0.28054127738E+02  0.54367086338E+02  0.40000004924E+02 0.  0.
         12    1    3    3    0    0  0.37064696371E+00  0.23845507346E+02  0.28054127738E+02  0.36820913662E+02  0.00000000000E+00 0. -1.
         11    1    4    4    0    0 -0.29123912228E+00  0.20585176442E+01 -0.85031741261E+01  0.87536441325E+01  0.51100000000E-03 0. -1.
        -11    1    4    4    0    0  0.19067744935E+01  0.62418965813E+01 -0.10140988936E+02  0.12059714705E+02  0.51100000000E-03 0.  1.
        -12    1    4    4    0    0 -0.19861823349E+01 -0.32145921572E+02 -0.94099646760E+01  0.33553727500E+02  0.00000000000E+00 0.  1.
</event>
<event>
 8    1  0.1238315E-006  0.9118800E+02  0.7816164E-02  0.1184000E+00
        -11   -1    0    0    0    0  0.00000000000E+00  0.00000000000E+00  0.45593999997E+02  0.45594000000E+02  0.51100000000E-03 0.  1.
         11   -1    0    0    0    0 -0.00000000000E+00 -0.00000000000E+00 -0.45593999997E+02  0.45594000000E+02  0.51100000000E-03 0. -1.
         23    2    1    2    0    0  0.11102230246E-15  0.00000000000E+00  0.00000000000E+00  0.91188000000E+02  0.91188000000E+02 0.  0.
    9900012    2    3    3    0    0  0.78992819962E+00  0.36545175100E+02 -0.44278278415E+01  0.54367089242E+02  0.40000011544E+02 0.  0.
        -12    1    3    3    0    0 -0.78992819962E+00 -0.36545175100E+02  0.44278278415E+01  0.36820910758E+02  0.00000000000E+00 0.  1.
         11    1    4    4    0    0  0.13088331753E+01  0.28659942496E+02 -0.14944867753E+02  0.32348947751E+02  0.51100000000E-03 0. -1.
        -11    1    4    4    0    0 -0.58957022917E+00  0.13434880656E+02  0.92595648940E+01  0.16327374363E+02  0.51100000000E-03 0.  1.
        -12    1    4    4    0    0  0.70665253528E-01 -0.55496480523E+01  0.12574750174E+01  0.56907671277E+01  0.00000000000E+00 0.  1.
</event>
<event>
 8    1  0.1238315E-006  0.9118800E+02  0.7816164E-02  0.1184000E+00
        -11   -1    0    0    0    0  0.00000000000E+00  0.00000000000E+00  0.45593999997E+02  0.45594000000E+02  0.51100000000E-03 0. -1.
         11   -1    0    0    0    0 -0.00000000000E+00 -0.00000000000E+00 -0.45593999997E+02  0.45594000000E+02  0.51100000000E-03 0.  1.
         23    2    1    2    0    0  0.00000000000E+00  0.00000000000E+00  0.00000000000E+00  0.91188000000E+02  0.91188000000E+02 0.  0.
    9900012    2    3    3    0    0  0.12300024931E+02  0.33171918510E+02  0.10203513527E+02  0.54367102683E+02  0.40000042187E+02 0.  0.
        -12    1    3    3    0    0 -0.12300024931E+02 -0.33171918510E+02 -0.10203513527E+02  0.36820897317E+02  0.00000000000E+00 0.  1.
         11    1    4    4    0    0  0.88976558580E+01  0.59624216769E+01  0.24358829122E+01  0.10984183076E+02  0.51100000000E-03 0. -1.
        -11    1    4    4    0    0  0.55125369366E+01  0.11523628047E+02 -0.12361887985E+02  0.17776342190E+02  0.51100000000E-03 0.  1.
        -12    1    4    4    0    0 -0.21101678640E+01  0.15685868786E+02  0.20129518600E+02  0.25606577418E+02  0.00000000000E+00 0.  1.
</event>
<event>
 8    1  0.1238315E-006  0.9118800E+02  0.7816164E-02  0.1184000E+00
        -11   -1    0    0    0    0  0.00000000000E+00  0.00000000000E+00  0.45593999997E+02  0.45594000000E+02  0.51100000000E-03 0.  1.
         11   -1    0    0    0    0 -0.00000000000E+00 -0.00000000000E+00 -0.45593999997E+02  0.45594000000E+02  0.51100000000E-03 0. -1.
         23    2    1    2    0    0  0.00000000000E+00  0.00000000000E+00  0.00000000000E+00  0.91188000000E+02  0.91188000000E+02 0.  0.
    9900012    2    3    3    0    0 -0.11090988528E+02  0.85795781535E+01  0.34046440336E+02  0.54367091709E+02  0.40000017168E+02 0.  0.
         12    1    3    3    0    0  0.11090988528E+02 -0.85795781535E+01 -0.34046440336E+02  0.36820908291E+02  0.00000000000E+00 0. -1.
         11    1    4    4    0    0 -0.10180955840E+02 -0.67523628751E+01  0.26311227870E-02  0.12216639202E+02  0.51100000000E-03 0. -1.
        -11    1    4    4    0    0 -0.75936244304E+01  0.30721381893E+01  0.42086498630E+01  0.92094461818E+01  0.51100000000E-03 0.  1.
        -12    1    4    4    0    0  0.66835917416E+01  0.12259802839E+02  0.29835159350E+02  0.32941006325E+02  0.00000000000E+00 0.  1.
</event>
<event>
 8    1  0.1238315E-006  0.9118800E+02  0.7816164E-02  0.1184000E+00
        -11   -1    0    0    0    0  0.00000000000E+00  0.00000000000E+00  0.45593999997E+02  0.45594000000E+02  0.51100000000E-03 0.  1.
         11   -1    0    0    0    0 -0.00000000000E+00 -0.00000000000E+00 -0.45593999997E+02  0.45594000000E+02  0.51100000000E-03 0. -1.
         23    2    1    2    0    0 -0.44408920985E-15  0.00000000000E+00  0.35527136788E-14  0.91188000000E+02  0.91188000000E+02 0.  0.
    9900012    2    3    3    0    0 -0.38163401095E+01 -0.30936050657E+02 -0.19600431537E+02  0.54367073904E+02  0.39999976580E+02 0.  0.
         12    1    3    3    0    0  0.38163401095E+01  0.30936050657E+02  0.19600431537E+02  0.36820926096E+02  0.00000000000E+00 0. -1.
         11    1    4    4    0    0 -0.15066842774E+02 -0.31642081853E+01 -0.29787300915E+01  0.15681033060E+02  0.51100000000E-03 0. -1.
        -11    1    4    4    0    0  0.50657588033E+01 -0.26423507752E+02 -0.81526886966E+01  0.28112808601E+02  0.51100000000E-03 0.  1.
        -12    1    4    4    0    0  0.61847438608E+01 -0.13483347199E+01 -0.84690127486E+01  0.10573232244E+02  0.00000000000E+00 0.  1.
</event>
<event>
 8    1  0.1238315E-006  0.9118800E+02  0.7816164E-02  0.1184000E+00
        -11   -1    0    0    0    0  0.00000000000E+00  0.00000000000E+00  0.45593999997E+02  0.45594000000E+02  0.51100000000E-03 0. -1.
         11   -1    0    0    0    0 -0.00000000000E+00 -0.00000000000E+00 -0.45593999997E+02  0.45594000000E+02  0.51100000000E-03 0.  1.
         23    2    1    2    0    0  0.00000000000E+00  0.88817841970E-15  0.17763568394E-14  0.91188000000E+02  0.91188000000E+02 0.  0.
    9900012    2    3    3    0    0 -0.33799913045E+02  0.61710666604E+01  0.13238718278E+02  0.54367084107E+02  0.39999999839E+02 0.  0.
        -12    1    3    3    0    0  0.33799913045E+02 -0.61710666604E+01 -0.13238718278E+02  0.36820915893E+02  0.00000000000E+00 0.  1.
         11    1    4    4    0    0 -0.40324581383E+01  0.79558615661E+01  0.13389045963E+02  0.16087977000E+02  0.51100000000E-03 0. -1.
        -11    1    4    4    0    0 -0.18687447699E+02 -0.12585380166E+02  0.21634533111E+01  0.22633891091E+02  0.51100000000E-03 0.  1.
        -12    1    4    4    0    0 -0.11080007208E+02  0.10800585261E+02 -0.23137809964E+01  0.15645216016E+02  0.00000000000E+00 0.  1.
</event>
<event>
 8    1  0.1238315E-006  0.9118800E+02  0.7816164E-02  0.1184000E+00
        -11   -1    0    0    0    0  0.00000000000E+00  0.00000000000E+00  0.45593999997E+02  0.45594000000E+02  0.51100000000E-03 0. -1.
         11   -1    0    0    0    0 -0.00000000000E+00 -0.00000000000E+00 -0.45593999997E+02  0.45594000000E+02  0.51100000000E-03 0.  1.
         23    2    1    2    0    0  0.00000000000E+00  0.17763568394E-14  0.71054273576E-14  0.91188000000E+02  0.91188000000E+02 0.  0.
    9900012    2    3    3    0    0  0.20014323994E+02  0.11405612369E+02 -0.28724872798E+02  0.54367089152E+02  0.40000011339E+02 0.  0.
         12    1    3    3    0    0 -0.20014323994E+02 -0.11405612369E+02  0.28724872798E+02  0.36820910848E+02  0.00000000000E+00 0. -1.
         11    1    4    4    0    0  0.77352419666E+01  0.19213472428E+02 -0.10717349563E+02  0.23320657643E+02  0.51100000000E-03 0. -1.
        -11    1    4    4    0    0  0.53850659569E+01 -0.60223532478E+01 -0.21606300486E+02  0.23067290586E+02  0.51100000000E-03 0.  1.
         12    1    4    4    0    0  0.68940160707E+01 -0.17855068112E+01  0.35987772510E+01  0.79791409223E+01  0.00000000000E+00 0. -1.
</event>
<event>
 8    1  0.1238315E-006  0.9118800E+02  0.7816164E-02  0.1184000E+00
        -11   -1    0    0    0    0  0.00000000000E+00  0.00000000000E+00  0.45593999997E+02  0.45594000000E+02  0.51100000000E-03 0.  1.
         11   -1    0    0    0    0 -0.00000000000E+00 -0.00000000000E+00 -0.45593999997E+02  0.45594000000E+02  0.51100000000E-03 0. -1.
         23    2    1    2    0    0  0.00000000000E+00  0.00000000000E+00 -0.88817841970E-15  0.91188000000E+02  0.91188000000E+02 0.  0.
    9900012    2    3    3    0    0 -0.98285282651E+01  0.35118633515E+02  0.50857550606E+01  0.54367037324E+02  0.39999893188E+02 0.  0.
        -12    1    3    3    0    0  0.98285282651E+01 -0.35118633515E+02 -0.50857550606E+01  0.36820962676E+02  0.00000000000E+00 0.  1.
         11    1    4    4    0    0 -0.60941402532E+01 -0.30515987569E+01 -0.19236062553E+00  0.68181964822E+01  0.51100000000E-03 0. -1.
        -11    1    4    4    0    0 -0.52538648232E+01  0.22313988147E+01  0.97530394923E+01  0.11300620153E+02  0.51100000000E-03 0.  1.
        -12    1    4    4    0    0  0.15194768113E+01  0.35938833457E+02 -0.44749238062E+01  0.36248220689E+02  0.00000000000E+00 0.  1.
</event>
<event>
 8    1  0.1238315E-006  0.9118800E+02  0.7816164E-02  0.1184000E+00
        -11   -1    0    0    0    0  0.00000000000E+00  0.00000000000E+00  0.45593999997E+02  0.45594000000E+02  0.51100000000E-03 0.  1.
         11   -1    0    0    0    0 -0.00000000000E+00 -0.00000000000E+00 -0.45593999997E+02  0.45594000000E+02  0.51100000000E-03 0. -1.
         23    2    1    2    0    0 -0.88817841970E-15  0.00000000000E+00  0.00000000000E+00  0.91188000000E+02  0.91188000000E+02 0.  0.
    9900012    2    3    3    0    0 -0.34803376768E+01 -0.26666026033E+02 -0.25151337695E+02  0.54367089058E+02  0.40000011126E+02 0.  0.
        -12    1    3    3    0    0  0.34803376768E+01  0.26666026033E+02  0.25151337695E+02  0.36820910942E+02  0.00000000000E+00 0.  1.
         11    1    4    4    0    0 -0.14908123153E+02 -0.15628368303E+02 -0.10192000937E+02  0.23882523215E+02  0.51100000000E-03 0. -1.
        -11    1    4    4    0    0 -0.10309132069E+01 -0.42085188911E+01  0.45937109324E+01  0.63147916584E+01  0.51100000000E-03 0.  1.
         12    1    4    4    0    0  0.12458698683E+02 -0.68291388393E+01 -0.19553047690E+02  0.24169774185E+02  0.00000000000E+00 0. -1.
</event>
<event>
 8    1  0.1238315E-006  0.9118800E+02  0.7816164E-02  0.1184000E+00
        -11   -1    0    0    0    0  0.00000000000E+00  0.00000000000E+00  0.45593999997E+02  0.45594000000E+02  0.51100000000E-03 0.  1.
         11   -1    0    0    0    0 -0.00000000000E+00 -0.00000000000E+00 -0.45593999997E+02  0.45594000000E+02  0.51100000000E-03 0. -1.
         23    2    1    2    0    0 -0.35527136788E-14  0.88817841970E-15  0.00000000000E+00  0.91188000000E+02  0.91188000000E+02 0.  0.
    9900012    2    3    3    0    0  0.30897333719E+02 -0.30849509806E+01  0.19789346925E+02  0.54367076530E+02  0.39999982566E+02 0.  0.
         12    1    3    3    0    0 -0.30897333719E+02  0.30849509806E+01 -0.19789346925E+02  0.36820923470E+02  0.00000000000E+00 0. -1.
         11    1    4    4    0    0  0.12891849466E+01  0.21109945720E+01 -0.17477189896E+01  0.30286660162E+01  0.51100000000E-03 0. -1.
        -11    1    4    4    0    0  0.22312865990E+02 -0.18761624277E+02  0.66165840422E+01  0.29893840818E+02  0.51100000000E-03 0.  1.
        -12    1    4    4    0    0  0.72952827818E+01  0.13565678725E+02  0.14920481872E+02  0.21444569696E+02  0.00000000000E+00 0.  1.
</event>
<event>
 8    1  0.1238315E-006  0.9118800E+02  0.7816164E-02  0.1184000E+00
        -11   -1    0    0    0    0  0.00000000000E+00  0.00000000000E+00  0.45593999997E+02  0.45594000000E+02  0.51100000000E-03 0.  1.
         11   -1    0    0    0    0 -0.00000000000E+00 -0.00000000000E+00 -0.45593999997E+02  0.45594000000E+02  0.51100000000E-03 0. -1.
         23    2    1    2    0    0  0.00000000000E+00  0.35527136788E-14 -0.71054273576E-14  0.91188000000E+02  0.91188000000E+02 0.  0.
    9900012    2    3    3    0    0  0.67309021851E+01 -0.14152177990E+02  0.33319524445E+02  0.54367083454E+02  0.39999998350E+02 0.  0.
         12    1    3    3    0    0 -0.67309021851E+01  0.14152177990E+02 -0.33319524445E+02  0.36820916546E+02  0.00000000000E+00 0. -1.
         11    1    4    4    0    0 -0.60668382405E+01 -0.63021757975E+01 -0.96975954000E+00  0.88013851095E+01  0.51100000000E-03 0. -1.
        -11    1    4    4    0    0  0.81561812098E+01  0.37832713906E+01 -0.73719709999E-01  0.89912106637E+01  0.51100000000E-03 0.  1.
        -12    1    4    4    0    0  0.46415592158E+01 -0.11633273583E+02  0.34363003695E+02  0.36574487681E+02  0.00000000000E+00 0.  1.
</event>
<event>
 8    1  0.1238315E-006  0.9118800E+02  0.7816164E-02  0.1184000E+00
        -11   -1    0    0    0    0  0.00000000000E+00  0.00000000000E+00  0.45593999997E+02  0.45594000000E+02  0.51100000000E-03 0.  1.
         11   -1    0    0    0    0 -0.00000000000E+00 -0.00000000000E+00 -0.45593999997E+02  0.45594000000E+02  0.51100000000E-03 0. -1.
         23    2    1    2    0    0  0.00000000000E+00  0.13322676296E-14  0.35527136788E-14  0.91188000000E+02  0.91188000000E+02 0.  0.
    9900012    2    3    3    0    0 -0.30938758008E+02 -0.24975152576E+01 -0.19807453730E+02  0.54367088105E+02  0.40000008952E+02 0.  0.
        -12    1    3    3    0    0  0.30938758008E+02  0.24975152576E+01  0.19807453730E+02  0.36820911895E+02  0.00000000000E+00 0.  1.
         11    1    4    4    0    0 -0.68985752003E+01  0.21861617281E+00  0.44970500230E+01  0.82378147585E+01  0.51100000000E-03 0. -1.
        -11    1    4    4    0    0 -0.41228790742E+01 -0.92706955047E+01  0.39983354055E+01  0.10905531316E+02  0.51100000000E-03 0.  1.
         12    1    4    4    0    0 -0.19917303734E+02  0.65545640743E+01 -0.28302839158E+02  0.35223742031E+02  0.00000000000E+00 0. -1.
</event>
<event>
 8    1  0.1238315E-006  0.9118800E+02  0.7816164E-02  0.1184000E+00
        -11   -1    0    0    0    0  0.00000000000E+00  0.00000000000E+00  0.45593999997E+02  0.45594000000E+02  0.51100000000E-03 0.  1.
         11   -1    0    0    0    0 -0.00000000000E+00 -0.00000000000E+00 -0.45593999997E+02  0.45594000000E+02  0.51100000000E-03 0. -1.
         23    2    1    2    0    0 -0.35527136788E-14  0.00000000000E+00  0.17763568394E-14  0.91188000000E+02  0.91188000000E+02 0.  0.
    9900012    2    3    3    0    0  0.26995927065E+02 -0.20226794062E+02  0.14760649465E+02  0.54367081370E+02  0.39999993599E+02 0.  0.
         12    1    3    3    0    0 -0.26995927065E+02  0.20226794062E+02 -0.14760649465E+02  0.36820918630E+02  0.00000000000E+00 0. -1.
         11    1    4    4    0    0 -0.72793117439E+01 -0.14205192564E+02  0.10116422109E+02  0.18897562589E+02  0.51100000000E-03 0. -1.
        -11    1    4    4    0    0  0.10629924383E+02  0.43436483057E+00  0.18750161360E+01  0.10802761266E+02  0.51100000000E-03 0.  1.
        -12    1    4    4    0    0  0.23645314426E+02 -0.64559663284E+01  0.27692112204E+01  0.24666757515E+02  0.00000000000E+00 0.  1.
</event>
<event>
 8    1  0.1238315E-006  0.9118800E+02  0.7816164E-02  0.1184000E+00
        -11   -1    0    0    0    0  0.00000000000E+00  0.00000000000E+00  0.45593999997E+02  0.45594000000E+02  0.51100000000E-03 0.  1.
         11   -1    0    0    0    0 -0.00000000000E+00 -0.00000000000E+00 -0.45593999997E+02  0.45594000000E+02  0.51100000000E-03 0. -1.
         23    2    1    2    0    0 -0.35527136788E-14  0.00000000000E+00  0.00000000000E+00  0.91188000000E+02  0.91188000000E+02 0.  0.
    9900012    2    3    3    0    0 -0.21974433019E+02 -0.14285736957E+02  0.25861529647E+02  0.54367126809E+02  0.40000097185E+02 0.  0.
         12    1    3    3    0    0  0.21974433019E+02  0.14285736957E+02 -0.25861529647E+02  0.36820873191E+02  0.00000000000E+00 0. -1.
         11    1    4    4    0    0 -0.66941647434E+01  0.28502288590E+01 -0.29350303066E+01  0.78453839499E+01  0.51100000000E-03 0. -1.
        -11    1    4    4    0    0 -0.50188874010E+01 -0.22524727811E+01  0.27883186065E+02  0.28420677856E+02  0.51100000000E-03 0.  1.
         12    1    4    4    0    0 -0.10261380875E+02 -0.14883493035E+02  0.91337388812E+00  0.18101065003E+02  0.00000000000E+00 0. -1.
</event>
<event>
 8    1  0.1238315E-006  0.9118800E+02  0.7816164E-02  0.1184000E+00
        -11   -1    0    0    0    0  0.00000000000E+00  0.00000000000E+00  0.45593999997E+02  0.45594000000E+02  0.51100000000E-03 0.  1.
         11   -1    0    0    0    0 -0.00000000000E+00 -0.00000000000E+00 -0.45593999997E+02  0.45594000000E+02  0.51100000000E-03 0. -1.
         23    2    1    2    0    0  0.88817841970E-15  0.00000000000E+00  0.00000000000E+00  0.91188000000E+02  0.91188000000E+02 0.  0.
    9900012    2    3    3    0    0  0.53828982868E+01 -0.34229177003E+02 -0.12456636545E+02  0.54367082761E+02  0.39999996771E+02 0.  0.
         12    1    3    3    0    0 -0.53828982868E+01  0.34229177003E+02  0.12456636545E+02  0.36820917239E+02  0.00000000000E+00 0. -1.
         11    1    4    4    0    0  0.15082849590E+02 -0.22762654734E+02 -0.10015461400E+02  0.29085052340E+02  0.51100000000E-03 0. -1.
        -11    1    4    4    0    0  0.23345749499E+01  0.44663275709E+01 -0.16364615992E+01  0.52987101255E+01  0.51100000000E-03 0.  1.
        -12    1    4    4    0    0 -0.12034526253E+02 -0.15932849840E+02 -0.80471354538E+00  0.19983320296E+02  0.00000000000E+00 0.  1.
</event>
<event>
 8    1  0.1238315E-006  0.9118800E+02  0.7816164E-02  0.1184000E+00
        -11   -1    0    0    0    0  0.00000000000E+00  0.00000000000E+00  0.45593999997E+02  0.45594000000E+02  0.51100000000E-03 0. -1.
         11   -1    0    0    0    0 -0.00000000000E+00 -0.00000000000E+00 -0.45593999997E+02  0.45594000000E+02  0.51100000000E-03 0.  1.
         23    2    1    2    0    0 -0.35527136788E-14  0.35527136788E-14  0.00000000000E+00  0.91188000000E+02  0.91188000000E+02 0.  0.
    9900012    2    3    3    0    0  0.27047269402E+02 -0.22032232669E+02 -0.11781763165E+02  0.54367027691E+02  0.39999871227E+02 0.  0.
         12    1    3    3    0    0 -0.27047269402E+02  0.22032232669E+02  0.11781763165E+02  0.36820972309E+02  0.00000000000E+00 0. -1.
         11    1    4    4    0    0  0.73724068780E+01  0.39836676214E+01 -0.44873840457E+01  0.95057144249E+01  0.51100000000E-03 0. -1.
        -11    1    4    4    0    0  0.27467969032E+02 -0.16813075506E+02 -0.53054634443E+01  0.32639190758E+02  0.51100000000E-03 0.  1.
         12    1    4    4    0    0 -0.77931065074E+01 -0.92028247847E+01 -0.19889156750E+01  0.12222122509E+02  0.00000000000E+00 0. -1.
</event>
<event>
 8    1  0.1238315E-006  0.9118800E+02  0.7816164E-02  0.1184000E+00
        -11   -1    0    0    0    0  0.00000000000E+00  0.00000000000E+00  0.45593999997E+02  0.45594000000E+02  0.51100000000E-03 0.  1.
         11   -1    0    0    0    0 -0.00000000000E+00 -0.00000000000E+00 -0.45593999997E+02  0.45594000000E+02  0.51100000000E-03 0. -1.
         23    2    1    2    0    0  0.00000000000E+00  0.00000000000E+00  0.00000000000E+00  0.91188000000E+02  0.91188000000E+02 0.  0.
    9900012    2    3    3    0    0 -0.29532609074E+02 -0.10958317015E+02 -0.19066199834E+02  0.54367086287E+02  0.40000004809E+02 0.  0.
        -12    1    3    3    0    0  0.29532609074E+02  0.10958317015E+02  0.19066199834E+02  0.36820913713E+02  0.00000000000E+00 0.  1.
         11    1    4    4    0    0 -0.29497124141E+01 -0.14920559277E+02 -0.12057566725E+02  0.19408987817E+02  0.51100000000E-03 0. -1.
        -11    1    4    4    0    0 -0.82706437822E+01 -0.86830005981E+01 -0.26651248592E+01  0.12284174320E+02  0.51100000000E-03 0.  1.
         12    1    4    4    0    0 -0.18312252878E+02  0.12645242861E+02 -0.43435082499E+01  0.22673924150E+02  0.00000000000E+00 0. -1.
</event>
<event>
 8    1  0.1238315E-006  0.9118800E+02  0.7816164E-02  0.1184000E+00
        -11   -1    0    0    0    0  0.00000000000E+00  0.00000000000E+00  0.45593999997E+02  0.45594000000E+02  0.51100000000E-03 0.  1.
         11   -1    0    0    0    0 -0.00000000000E+00 -0.00000000000E+00 -0.45593999997E+02  0.45594000000E+02  0.51100000000E-03 0. -1.
         23    2    1    2    0    0  0.00000000000E+00  0.44408920985E-15  0.00000000000E+00  0.91188000000E+02  0.91188000000E+02 0.  0.
    9900012    2    3    3    0    0 -0.15706404793E+02  0.34483656058E+01 -0.33123978556E+02  0.54367077521E+02  0.39999984824E+02 0.  0.
        -12    1    3    3    0    0  0.15706404793E+02 -0.34483656058E+01  0.33123978556E+02  0.36820922479E+02  0.00000000000E+00 0.  1.
         11    1    4    4    0    0 -0.15542562503E+02  0.14805946528E+01 -0.81578158626E+00  0.15634222384E+02  0.51100000000E-03 0. -1.
        -11    1    4    4    0    0 -0.90289269814E+01 -0.35564865251E+01 -0.91931543597E+01  0.13367281181E+02  0.51100000000E-03 0.  1.
         12    1    4    4    0    0  0.88650846908E+01  0.55242574780E+01 -0.23115042610E+02  0.25365573956E+02  0.00000000000E+00 0. -1.
</event>
<event>
 8    1  0.1238315E-006  0.9118800E+02  0.7816164E-02  0.1184000E+00
        -11   -1    0    0    0    0  0.00000000000E+00  0.00000000000E+00  0.45593999997E+02  0.45594000000E+02  0.51100000000E-03 0.  1.
         11   -1    0    0    0    0 -0.00000000000E+00 -0.00000000000E+00 -0.45593999997E+02  0.45594000000E+02  0.51100000000E-03 0. -1.
         23    2    1    2    0    0  0.00000000000E+00  0.17763568394E-14  0.00000000000E+00  0.91188000000E+02  0.91188000000E+02 0.  0.
    9900012    2    3    3    0    0  0.35899562670E+02  0.53013964818E+01  0.62367100778E+01  0.54367082614E+02  0.39999996435E+02 0.  0.
         12    1    3    3    0    0 -0.35899562670E+02 -0.53013964818E+01 -0.62367100778E+01  0.36820917386E+02  0.00000000000E+00 0. -1.
         11    1    4    4    0    0  0.10576357891E+01 -0.22674497780E+01  0.39852224954E+01  0.47055202217E+01  0.51100000000E-03 0. -1.
        -11    1    4    4    0    0  0.39063204072E+02  0.92379019754E+01  0.93692071134E+01  0.41219592277E+02  0.51100000000E-03 0.  1.
         12    1    4    4    0    0 -0.42212771913E+01 -0.16690557157E+01 -0.71177195310E+01  0.84419701155E+01  0.00000000000E+00 0. -1.
</event>
<event>
 8    1  0.1238315E-006  0.9118800E+02  0.7816164E-02  0.1184000E+00
        -11   -1    0    0    0    0  0.00000000000E+00  0.00000000000E+00  0.45593999997E+02  0.45594000000E+02  0.51100000000E-03 0. -1.
         11   -1    0    0    0    0 -0.00000000000E+00 -0.00000000000E+00 -0.45593999997E+02  0.45594000000E+02  0.51100000000E-03 0.  1.
         23    2    1    2    0    0  0.00000000000E+00 -0.17763568394E-14  0.00000000000E+00  0.91188000000E+02  0.91188000000E+02 0.  0.
    9900012    2    3    3    0    0  0.32191608685E+02  0.97316709831E+01  0.14992361999E+02  0.54367136238E+02  0.40000118682E+02 0.  0.
        -12    1    3    3    0    0 -0.32191608685E+02 -0.97316709831E+01 -0.14992361999E+02  0.36820863762E+02  0.00000000000E+00 0.  1.
         11    1    4    4    0    0  0.10907745063E+02  0.35892458999E+01  0.15028144296E+02  0.18913135904E+02  0.51100000000E-03 0. -1.
        -11    1    4    4    0    0  0.12243195436E+01 -0.86083691249E+01 -0.50497018890E+01  0.10054972241E+02  0.51100000000E-03 0.  1.
         12    1    4    4    0    0  0.20059544078E+02  0.14750794208E+02  0.50139195926E+01  0.25399028093E+02  0.00000000000E+00 0. -1.
</event>
<event>
 8    1  0.1238315E-006  0.9118800E+02  0.7816164E-02  0.1184000E+00
        -11   -1    0    0    0    0  0.00000000000E+00  0.00000000000E+00  0.45593999997E+02  0.45594000000E+02  0.51100000000E-03 0. -1.
         11   -1    0    0    0    0 -0.00000000000E+00 -0.00000000000E+00 -0.45593999997E+02  0.45594000000E+02  0.51100000000E-03 0.  1.
         23    2    1    2    0    0  0.88817841970E-15 -0.35527136788E-14 -0.35527136788E-14  0.91188000000E+02  0.91188000000E+02 0.  0.
    9900012    2    3    3    0    0 -0.20529445775E+01  0.22770588588E+02  0.28862870845E+02  0.54367087471E+02  0.40000007508E+02 0.  0.
        -12    1    3    3    0    0  0.20529445775E+01 -0.22770588588E+02 -0.28862870845E+02  0.36820912529E+02  0.00000000000E+00 0.  1.
         11    1    4    4    0    0 -0.10636750629E+02 -0.16265441708E+01  0.14151756489E+02  0.17778029190E+02  0.51100000000E-03 0. -1.
        -11    1    4    4    0    0 -0.21572135321E+01  0.16110828040E+02 -0.42913423805E+00  0.16260273885E+02  0.51100000000E-03 0.  1.
        -12    1    4    4    0    0  0.10741019583E+02  0.82863047186E+01  0.15140248594E+02  0.20328784397E+02  0.00000000000E+00 0.  1.
</event>
<event>
 8    1  0.1238315E-006  0.9118800E+02  0.7816164E-02  0.1184000E+00
        -11   -1    0    0    0    0  0.00000000000E+00  0.00000000000E+00  0.45593999997E+02  0.45594000000E+02  0.51100000000E-03 0.  1.
         11   -1    0    0    0    0 -0.00000000000E+00 -0.00000000000E+00 -0.45593999997E+02  0.45594000000E+02  0.51100000000E-03 0. -1.
         23    2    1    2    0    0  0.00000000000E+00  0.00000000000E+00  0.00000000000E+00  0.91188000000E+02  0.91188000000E+02 0.  0.
    9900012    2    3    3    0    0 -0.19662333066E+02  0.20868994149E+02  0.23101034943E+02  0.54367081029E+02  0.39999992822E+02 0.  0.
         12    1    3    3    0    0  0.19662333066E+02 -0.20868994149E+02 -0.23101034943E+02  0.36820918971E+02  0.00000000000E+00 0. -1.
         11    1    4    4    0    0 -0.31417241705E+01 -0.98507568953E+01  0.26040355385E+01  0.10662497058E+02  0.51100000000E-03 0.  1.
        -11    1    4    4    0    0  0.62485757548E+00  0.15596829403E+02  0.65778632389E+01  0.16938707727E+02  0.51100000000E-03 0. -1.
        -12    1    4    4    0    0 -0.17145466471E+02  0.15122921641E+02  0.13919136166E+02  0.26765876244E+02  0.00000000000E+00 0.  1.
</event>
<event>
 8    1  0.1238315E-006  0.9118800E+02  0.7816164E-02  0.1184000E+00
        -11   -1    0    0    0    0  0.00000000000E+00  0.00000000000E+00  0.45593999997E+02  0.45594000000E+02  0.51100000000E-03 0. -1.
         11   -1    0    0    0    0 -0.00000000000E+00 -0.00000000000E+00 -0.45593999997E+02  0.45594000000E+02  0.51100000000E-03 0.  1.
         23    2    1    2    0    0  0.00000000000E+00  0.71054273576E-14  0.88817841970E-15  0.91188000000E+02  0.91188000000E+02 0.  0.
    9900012    2    3    3    0    0  0.75726950665E+01 -0.35329305266E+02 -0.70904985390E+01  0.54367072653E+02  0.39999973727E+02 0.  0.
        -12    1    3    3    0    0 -0.75726950665E+01  0.35329305266E+02  0.70904985390E+01  0.36820927347E+02  0.00000000000E+00 0.  1.
         11    1    4    4    0    0  0.82727695390E+01 -0.10135431107E+02  0.86148516433E+01  0.15664652842E+02  0.51100000000E-03 0. -1.
        -11    1    4    4    0    0  0.11836373535E+02 -0.10339998065E+02 -0.48948840264E+01  0.16461324016E+02  0.51100000000E-03 0.  1.
        -12    1    4    4    0    0 -0.12536448008E+02 -0.14853876094E+02 -0.10810466156E+02  0.22241095795E+02  0.00000000000E+00 0.  1.
</event>
<event>
 8    1  0.1238315E-006  0.9118800E+02  0.7816164E-02  0.1184000E+00
        -11   -1    0    0    0    0  0.00000000000E+00  0.00000000000E+00  0.45593999997E+02  0.45594000000E+02  0.51100000000E-03 0. -1.
         11   -1    0    0    0    0 -0.00000000000E+00 -0.00000000000E+00 -0.45593999997E+02  0.45594000000E+02  0.51100000000E-03 0.  1.
         23    2    1    2    0    0 -0.44408920985E-15  0.00000000000E+00  0.00000000000E+00  0.91188000000E+02  0.91188000000E+02 0.  0.
    9900012    2    3    3    0    0  0.18851110862E+01  0.36752877900E+02  0.12076281774E+01  0.54366999965E+02  0.39999808020E+02 0.  0.
         12    1    3    3    0    0 -0.18851110862E+01 -0.36752877900E+02 -0.12076281774E+01  0.36821000035E+02  0.00000000000E+00 0. -1.
         11    1    4    4    0    0  0.91301277244E+01  0.14601404028E+02 -0.13976232251E+02  0.22178712768E+02  0.51100000000E-03 0.  1.
        -11    1    4    4    0    0 -0.81773450994E+00 -0.33572914444E+00  0.75275537358E+01  0.75792789428E+01  0.51100000000E-03 0. -1.
        -12    1    4    4    0    0 -0.64272821283E+01  0.22487203017E+02  0.76563066926E+01  0.24609008254E+02  0.00000000000E+00 0.  1.
</event>
<event>
 8    1  0.1238315E-006  0.9118800E+02  0.7816164E-02  0.1184000E+00
        -11   -1    0    0    0    0  0.00000000000E+00  0.00000000000E+00  0.45593999997E+02  0.45594000000E+02  0.51100000000E-03 0. -1.
         11   -1    0    0    0    0 -0.00000000000E+00 -0.00000000000E+00 -0.45593999997E+02  0.45594000000E+02  0.51100000000E-03 0.  1.
         23    2    1    2    0    0 -0.17763568394E-14  0.00000000000E+00  0.00000000000E+00  0.91188000000E+02  0.91188000000E+02 0.  0.
    9900012    2    3    3    0    0 -0.92579175537E+01 -0.87901476423E+01  0.34537008212E+02  0.54367072945E+02  0.39999974392E+02 0.  0.
        -12    1    3    3    0    0  0.92579175537E+01  0.87901476423E+01 -0.34537008212E+02  0.36820927055E+02  0.00000000000E+00 0.  1.
         11    1    4    4    0    0  0.53831937538E+01  0.13005767347E+01 -0.47809373886E+01  0.73162584296E+01  0.51100000000E-03 0.  1.
        -11    1    4    4    0    0 -0.17369465779E+02 -0.36904464498E+01  0.33762572007E+02  0.38147463942E+02  0.51100000000E-03 0. -1.
         12    1    4    4    0    0  0.27283544712E+01 -0.64002779271E+01  0.55553735929E+01  0.89033505727E+01  0.00000000000E+00 0. -1.
</event>
<event>
 8    1  0.1238315E-006  0.9118800E+02  0.7816164E-02  0.1184000E+00
        -11   -1    0    0    0    0  0.00000000000E+00  0.00000000000E+00  0.45593999997E+02  0.45594000000E+02  0.51100000000E-03 0. -1.
         11   -1    0    0    0    0 -0.00000000000E+00 -0.00000000000E+00 -0.45593999997E+02  0.45594000000E+02  0.51100000000E-03 0.  1.
         23    2    1    2    0    0  0.00000000000E+00 -0.35527136788E-14  0.00000000000E+00  0.91188000000E+02  0.91188000000E+02 0.  0.
    9900012    2    3    3    0    0  0.16983387824E+02 -0.25220639033E+02  0.20766886883E+02  0.54367086296E+02  0.40000004828E+02 0.  0.
        -12    1    3    3    0    0 -0.16983387824E+02  0.25220639033E+02 -0.20766886883E+02  0.36820913704E+02  0.00000000000E+00 0.  1.
         11    1    4    4    0    0  0.86028458396E+00  0.42190955427E+01 -0.62758375040E+01  0.76109784786E+01  0.51100000000E-03 0.  1.
        -11    1    4    4    0    0  0.42447051537E+01 -0.24722477767E+02  0.20513909229E+02  0.32404303740E+02  0.51100000000E-03 0. -1.
        -12    1    4    4    0    0  0.11878398086E+02 -0.47172568093E+01  0.65288151573E+01  0.14351804077E+02  0.00000000000E+00 0.  1.
</event>
<event>
 8    1  0.1238315E-006  0.9118800E+02  0.7816164E-02  0.1184000E+00
        -11   -1    0    0    0    0  0.00000000000E+00  0.00000000000E+00  0.45593999997E+02  0.45594000000E+02  0.51100000000E-03 0. -1.
         11   -1    0    0    0    0 -0.00000000000E+00 -0.00000000000E+00 -0.45593999997E+02  0.45594000000E+02  0.51100000000E-03 0.  1.
         23    2    1    2    0    0 -0.17763568394E-14 -0.26645352591E-14  0.00000000000E+00  0.91188000000E+02  0.91188000000E+02 0.  0.
    9900012    2    3    3    0    0  0.14927822681E+02  0.44021692876E+01 -0.33370068204E+02  0.54367076107E+02  0.39999981600E+02 0.  0.
         12    1    3    3    0    0 -0.14927822681E+02 -0.44021692876E+01  0.33370068204E+02  0.36820923893E+02  0.00000000000E+00 0. -1.
         11    1    4    4    0    0 -0.24146499301E+01 -0.16694023745E+01  0.69749675905E+00  0.30172736970E+01  0.51100000000E-03 0. -1.
        -11    1    4    4    0    0  0.47986033507E+01 -0.29907717292E+01 -0.35370947594E+02  0.35820039693E+02  0.51100000000E-03 0.  1.
        -12    1    4    4    0    0  0.12543869260E+02  0.90623433912E+01  0.13033826309E+01  0.15529762717E+02  0.00000000000E+00 0.  1.
</event>
<event>
 8    1  0.1238315E-006  0.9118800E+02  0.7816164E-02  0.1184000E+00
        -11   -1    0    0    0    0  0.00000000000E+00  0.00000000000E+00  0.45593999997E+02  0.45594000000E+02  0.51100000000E-03 0. -1.
         11   -1    0    0    0    0 -0.00000000000E+00 -0.00000000000E+00 -0.45593999997E+02  0.45594000000E+02  0.51100000000E-03 0.  1.
         23    2    1    2    0    0  0.88817841970E-15  0.00000000000E+00  0.00000000000E+00  0.91188000000E+02  0.91188000000E+02 0.  0.
    9900012    2    3    3    0    0  0.55600718044E+01 -0.30488781970E+02  0.19882081389E+02  0.54367117544E+02  0.40000076066E+02 0.  0.
        -12    1    3    3    0    0 -0.55600718044E+01  0.30488781970E+02 -0.19882081389E+02  0.36820882456E+02  0.00000000000E+00 0.  1.
         11    1    4    4    0    0  0.13660817277E+02 -0.23950110213E+02 -0.14291452119E+01  0.27609204339E+02  0.51100000000E-03 0. -1.
        -11    1    4    4    0    0 -0.30781404804E+01  0.36154837880E+01  0.77338640367E+01  0.90752038565E+01  0.51100000000E-03 0.  1.
         12    1    4    4    0    0 -0.50226049927E+01 -0.10154155545E+02  0.13577362564E+02  0.17682709349E+02  0.00000000000E+00 0. -1.
</event>
<event>
 8    1  0.1238315E-006  0.9118800E+02  0.7816164E-02  0.1184000E+00
        -11   -1    0    0    0    0  0.00000000000E+00  0.00000000000E+00  0.45593999997E+02  0.45594000000E+02  0.51100000000E-03 0.  1.
         11   -1    0    0    0    0 -0.00000000000E+00 -0.00000000000E+00 -0.45593999997E+02  0.45594000000E+02  0.51100000000E-03 0. -1.
         23    2    1    2    0    0  0.17763568394E-14  0.00000000000E+00 -0.71054273576E-14  0.91188000000E+02  0.91188000000E+02 0.  0.
    9900012    2    3    3    0    0 -0.85824520021E+01 -0.11793406043E+02 -0.33808863694E+02  0.54367052528E+02  0.39999927848E+02 0.  0.
        -12    1    3    3    0    0  0.85824520021E+01  0.11793406043E+02  0.33808863694E+02  0.36820947472E+02  0.00000000000E+00 0.  1.
         11    1    4    4    0    0 -0.10270631823E+01 -0.10923602124E+02 -0.15543127950E+02  0.19025476837E+02  0.51100000000E-03 0. -1.
        -11    1    4    4    0    0  0.72556142185E+01  0.96164200357E+01 -0.83979787372E+01  0.14684873820E+02  0.51100000000E-03 0.  1.
         12    1    4    4    0    0 -0.14811003038E+02 -0.10486223955E+02 -0.98677570067E+01  0.20656701871E+02  0.00000000000E+00 0. -1.
</event>
<event>
 8    1  0.1238315E-006  0.9118800E+02  0.7816164E-02  0.1184000E+00
        -11   -1    0    0    0    0  0.00000000000E+00  0.00000000000E+00  0.45593999997E+02  0.45594000000E+02  0.51100000000E-03 0.  1.
         11   -1    0    0    0    0 -0.00000000000E+00 -0.00000000000E+00 -0.45593999997E+02  0.45594000000E+02  0.51100000000E-03 0. -1.
         23    2    1    2    0    0 -0.35527136788E-14 -0.58286708793E-15  0.00000000000E+00  0.91188000000E+02  0.91188000000E+02 0.  0.
    9900012    2    3    3    0    0  0.19573173406E+02  0.21079196396E+00  0.31186969591E+02  0.54367073576E+02  0.39999975831E+02 0.  0.
         12    1    3    3    0    0 -0.19573173406E+02 -0.21079196396E+00 -0.31186969591E+02  0.36820926424E+02  0.00000000000E+00 0. -1.
         11    1    4    4    0    0  0.64281871060E+01  0.22210584418E+01 -0.38534212197E+01  0.78168756821E+01  0.51100000000E-03 0. -1.
        -11    1    4    4    0    0  0.19705748839E+02  0.29764770794E+01  0.15193087401E+02  0.25060045054E+02  0.51100000000E-03 0.  1.
        -12    1    4    4    0    0 -0.65607625386E+01 -0.49867435573E+01  0.19847303411E+02  0.21490152839E+02  0.00000000000E+00 0.  1.
</event>
<event>
 8    1  0.1238315E-006  0.9118800E+02  0.7816164E-02  0.1184000E+00
        -11   -1    0    0    0    0  0.00000000000E+00  0.00000000000E+00  0.45593999997E+02  0.45594000000E+02  0.51100000000E-03 0. -1.
         11   -1    0    0    0    0 -0.00000000000E+00 -0.00000000000E+00 -0.45593999997E+02  0.45594000000E+02  0.51100000000E-03 0.  1.
         23    2    1    2    0    0 -0.88817841970E-15  0.00000000000E+00 -0.35527136788E-14  0.91188000000E+02  0.91188000000E+02 0.  0.
    9900012    2    3    3    0    0  0.43891236545E+01  0.32102038699E+02 -0.17492106737E+02  0.54367094346E+02  0.40000023181E+02 0.  0.
         12    1    3    3    0    0 -0.43891236545E+01 -0.32102038699E+02  0.17492106737E+02  0.36820905654E+02  0.00000000000E+00 0. -1.
         11    1    4    4    0    0  0.24583368793E+01  0.31652278599E+02 -0.68362717056E+01  0.32475294792E+02  0.51100000000E-03 0. -1.
        -11    1    4    4    0    0 -0.28015906744E+01  0.47269223171E+01  0.33962566791E+01  0.64596644333E+01  0.51100000000E-03 0.  1.
        -12    1    4    4    0    0  0.47323774496E+01 -0.42771622172E+01 -0.14052091710E+02  0.15432135121E+02  0.00000000000E+00 0.  1.
</event>
<event>
 8    1  0.1238315E-006  0.9118800E+02  0.7816164E-02  0.1184000E+00
        -11   -1    0    0    0    0  0.00000000000E+00  0.00000000000E+00  0.45593999997E+02  0.45594000000E+02  0.51100000000E-03 0. -1.
         11   -1    0    0    0    0 -0.00000000000E+00 -0.00000000000E+00 -0.45593999997E+02  0.45594000000E+02  0.51100000000E-03 0.  1.
         23    2    1    2    0    0  0.00000000000E+00  0.00000000000E+00 -0.61062266354E-15  0.91188000000E+02  0.91188000000E+02 0.  0.
    9900012    2    3    3    0    0 -0.32715153436E+02  0.16890219753E+02 -0.46681105394E+00  0.54367099682E+02  0.40000035344E+02 0.  0.
        -12    1    3    3    0    0  0.32715153436E+02 -0.16890219753E+02  0.46681105394E+00  0.36820900318E+02  0.00000000000E+00 0.  1.
         11    1    4    4    0    0 -0.36336303462E+02  0.69634722982E+01  0.26849728014E+01  0.37094824099E+02  0.51100000000E-03 0. -1.
        -11    1    4    4    0    0  0.42186545560E+01  0.83397030396E+01 -0.78954453626E+01  0.12234612817E+02  0.51100000000E-03 0.  1.
         12    1    4    4    0    0 -0.59750453014E+00  0.15870444156E+01  0.47436615073E+01  0.50376627653E+01  0.00000000000E+00 0. -1.
</event>
<event>
 8    1  0.1238315E-006  0.9118800E+02  0.7816164E-02  0.1184000E+00
        -11   -1    0    0    0    0  0.00000000000E+00  0.00000000000E+00  0.45593999997E+02  0.45594000000E+02  0.51100000000E-03 0.  1.
         11   -1    0    0    0    0 -0.00000000000E+00 -0.00000000000E+00 -0.45593999997E+02  0.45594000000E+02  0.51100000000E-03 0. -1.
         23    2    1    2    0    0  0.17763568394E-14 -0.71054273576E-14  0.00000000000E+00  0.91188000000E+02  0.91188000000E+02 0.  0.
    9900012    2    3    3    0    0  0.15496710773E+02  0.22010331424E+02  0.25123239228E+02  0.54367083614E+02  0.39999998715E+02 0.  0.
         12    1    3    3    0    0 -0.15496710773E+02 -0.22010331424E+02 -0.25123239228E+02  0.36820916386E+02  0.00000000000E+00 0. -1.
         11    1    4    4    0    0 -0.59297468194E+01  0.38498711390E+01  0.11612167829E+02  0.13595067013E+02  0.51100000000E-03 0. -1.
        -11    1    4    4    0    0  0.12792924964E+02  0.23345586506E+02  0.15055465014E+02  0.30583367465E+02  0.51100000000E-03 0.  1.
         12    1    4    4    0    0  0.86335326292E+01 -0.51851262206E+01 -0.15443936155E+01  0.10188649136E+02  0.00000000000E+00 0. -1.
</event>
<event>
 8    1  0.1238315E-006  0.9118800E+02  0.7816164E-02  0.1184000E+00
        -11   -1    0    0    0    0  0.00000000000E+00  0.00000000000E+00  0.45593999997E+02  0.45594000000E+02  0.51100000000E-03 0.  1.
         11   -1    0    0    0    0 -0.00000000000E+00 -0.00000000000E+00 -0.45593999997E+02  0.45594000000E+02  0.51100000000E-03 0. -1.
         23    2    1    2    0    0  0.00000000000E+00 -0.35527136788E-14  0.88817841970E-15  0.91188000000E+02  0.91188000000E+02 0.  0.
    9900012    2    3    3    0    0 -0.20553546585E+02 -0.29599823835E+02  0.75617134947E+01  0.54367117892E+02  0.40000076858E+02 0.  0.
         12    1    3    3    0    0  0.20553546585E+02  0.29599823835E+02 -0.75617134947E+01  0.36820882108E+02  0.00000000000E+00 0. -1.
         11    1    4    4    0    0 -0.44163630732E+01  0.45399866911E+01 -0.67649421151E+01  0.92671561998E+01  0.51100000000E-03 0. -1.
        -11    1    4    4    0    0 -0.36215830018E+01 -0.24228689766E+01 -0.44054326321E+01  0.61962887645E+01  0.51100000000E-03 0.  1.
        -12    1    4    4    0    0 -0.12515600510E+02 -0.31716941549E+02  0.18732088242E+02  0.38903672927E+02  0.00000000000E+00 0.  1.
</event>
<event>
 8    1  0.1238315E-006  0.9118800E+02  0.7816164E-02  0.1184000E+00
        -11   -1    0    0    0    0  0.00000000000E+00  0.00000000000E+00  0.45593999997E+02  0.45594000000E+02  0.51100000000E-03 0.  1.
         11   -1    0    0    0    0 -0.00000000000E+00 -0.00000000000E+00 -0.45593999997E+02  0.45594000000E+02  0.51100000000E-03 0. -1.
         23    2    1    2    0    0  0.00000000000E+00  0.00000000000E+00 -0.17763568394E-14  0.91188000000E+02  0.91188000000E+02 0.  0.
    9900012    2    3    3    0    0  0.17910432332E+02  0.30497274446E+02  0.10242663480E+02  0.54367088956E+02  0.40000010893E+02 0.  0.
         12    1    3    3    0    0 -0.17910432332E+02 -0.30497274446E+02 -0.10242663480E+02  0.36820911044E+02  0.00000000000E+00 0. -1.
         11    1    4    4    0    0  0.19730968303E+02  0.11822507971E+02  0.81939484797E+01  0.24417690243E+02  0.51100000000E-03 0. -1.
        -11    1    4    4    0    0 -0.74001618611E+01  0.59838624309E+01  0.10132845813E+02  0.13901207490E+02  0.51100000000E-03 0.  1.
         12    1    4    4    0    0  0.55796258903E+01  0.12690904044E+02 -0.80841308121E+01  0.16048191223E+02  0.00000000000E+00 0. -1.
</event>
<event>
 8    1  0.1238315E-006  0.9118800E+02  0.7816164E-02  0.1184000E+00
        -11   -1    0    0    0    0  0.00000000000E+00  0.00000000000E+00  0.45593999997E+02  0.45594000000E+02  0.51100000000E-03 0.  1.
         11   -1    0    0    0    0 -0.00000000000E+00 -0.00000000000E+00 -0.45593999997E+02  0.45594000000E+02  0.51100000000E-03 0. -1.
         23    2    1    2    0    0  0.00000000000E+00  0.17763568394E-14 -0.66613381478E-15  0.91188000000E+02  0.91188000000E+02 0.  0.
    9900012    2    3    3    0    0  0.33183784951E+02 -0.15937467175E+02 -0.77481049539E+00  0.54367261619E+02  0.40000404511E+02 0.  0.
         12    1    3    3    0    0 -0.33183784951E+02  0.15937467175E+02  0.77481049539E+00  0.36820738381E+02  0.00000000000E+00 0. -1.
         11    1    4    4    0    0  0.21287378330E+02  0.20630445618E+01 -0.12543845656E+02  0.24794287510E+02  0.51100000000E-03 0. -1.
        -11    1    4    4    0    0 -0.40745639668E+01 -0.21002648544E+01  0.16936797029E+01  0.48868942259E+01  0.51100000000E-03 0.  1.
         12    1    4    4    0    0  0.15970970588E+02 -0.15900246882E+02  0.10075355457E+02  0.24686079883E+02  0.00000000000E+00 0. -1.
</event>
<event>
 8    1  0.1238315E-006  0.9118800E+02  0.7816164E-02  0.1184000E+00
        -11   -1    0    0    0    0  0.00000000000E+00  0.00000000000E+00  0.45593999997E+02  0.45594000000E+02  0.51100000000E-03 0.  1.
         11   -1    0    0    0    0 -0.00000000000E+00 -0.00000000000E+00 -0.45593999997E+02  0.45594000000E+02  0.51100000000E-03 0. -1.
         23    2    1    2    0    0  0.00000000000E+00 -0.35527136788E-14  0.88817841970E-15  0.91188000000E+02  0.91188000000E+02 0.  0.
    9900012    2    3    3    0    0 -0.31833480472E+02  0.18259330742E+02  0.29996543401E+01  0.54367196583E+02  0.40000256250E+02 0.  0.
         12    1    3    3    0    0  0.31833480472E+02 -0.18259330742E+02 -0.29996543401E+01  0.36820803417E+02  0.00000000000E+00 0. -1.
         11    1    4    4    0    0 -0.12229619411E+02  0.68174883658E+01  0.14976392416E+02  0.20502050352E+02  0.51100000000E-03 0. -1.
        -11    1    4    4    0    0 -0.22528591762E+02  0.13935919126E+02 -0.66783661277E+01  0.27319367911E+02  0.51100000000E-03 0.  1.
         12    1    4    4    0    0  0.29247307017E+01 -0.24940767501E+01 -0.52983719485E+01  0.65457783202E+01  0.00000000000E+00 0. -1.
</event>
<event>
 8    1  0.1238315E-006  0.9118800E+02  0.7816164E-02  0.1184000E+00
        -11   -1    0    0    0    0  0.00000000000E+00  0.00000000000E+00  0.45593999997E+02  0.45594000000E+02  0.51100000000E-03 0. -1.
         11   -1    0    0    0    0 -0.00000000000E+00 -0.00000000000E+00 -0.45593999997E+02  0.45594000000E+02  0.51100000000E-03 0.  1.
         23    2    1    2    0    0 -0.17763568394E-14  0.00000000000E+00 -0.35527136788E-14  0.91188000000E+02  0.91188000000E+02 0.  0.
    9900012    2    3    3    0    0 -0.10676107937E+02  0.28525511842E+02  0.20690475373E+02  0.54367083693E+02  0.39999998895E+02 0.  0.
        -12    1    3    3    0    0  0.10676107937E+02 -0.28525511842E+02 -0.20690475373E+02  0.36820916307E+02  0.00000000000E+00 0.  1.
         11    1    4    4    0    0  0.37571653688E+01  0.19656554920E+01  0.11654644546E+01  0.43975448580E+01  0.51100000000E-03 0. -1.
        -11    1    4    4    0    0  0.14406360297E+01  0.12035881781E+02 -0.83774518568E+01  0.14734978191E+02  0.51100000000E-03 0.  1.
         12    1    4    4    0    0 -0.15873909336E+02  0.14523974569E+02  0.27902462775E+02  0.35234560644E+02  0.00000000000E+00 0. -1.
</event>
<event>
 8    1  0.1238315E-006  0.9118800E+02  0.7816164E-02  0.1184000E+00
        -11   -1    0    0    0    0  0.00000000000E+00  0.00000000000E+00  0.45593999997E+02  0.45594000000E+02  0.51100000000E-03 0.  1.
         11   -1    0    0    0    0 -0.00000000000E+00 -0.00000000000E+00 -0.45593999997E+02  0.45594000000E+02  0.51100000000E-03 0. -1.
         23    2    1    2    0    0  0.71054273576E-14  0.00000000000E+00  0.22204460493E-15  0.91188000000E+02  0.91188000000E+02 0.  0.
    9900012    2    3    3    0    0 -0.36116736041E+02 -0.70164131832E+01  0.14599458759E+01  0.54367080427E+02  0.39999991451E+02 0.  0.
        -12    1    3    3    0    0  0.36116736041E+02  0.70164131832E+01 -0.14599458759E+01  0.36820919573E+02  0.00000000000E+00 0.  1.
         11    1    4    4    0    0 -0.92069563941E+01  0.30408963793E+01 -0.11653357401E+02  0.15159677958E+02  0.51100000000E-03 0. -1.
        -11    1    4    4    0    0 -0.15440436918E+02 -0.10052450632E+02  0.18871210764E+02  0.26373878211E+02  0.51100000000E-03 0.  1.
         12    1    4    4    0    0 -0.11469342729E+02 -0.48589301991E-02 -0.57579074877E+01  0.12833524258E+02  0.00000000000E+00 0. -1.
</event>
<event>
 8    1  0.1238315E-006  0.9118800E+02  0.7816164E-02  0.1184000E+00
        -11   -1    0    0    0    0  0.00000000000E+00  0.00000000000E+00  0.45593999997E+02  0.45594000000E+02  0.51100000000E-03 0. -1.
         11   -1    0    0    0    0 -0.00000000000E+00 -0.00000000000E+00 -0.45593999997E+02  0.45594000000E+02  0.51100000000E-03 0.  1.
         23    2    1    2    0    0  0.00000000000E+00  0.17763568394E-14 -0.71054273576E-14  0.91188000000E+02  0.91188000000E+02 0.  0.
    9900012    2    3    3    0    0 -0.12047429880E+02  0.98854548948E+01 -0.33360411920E+02  0.54367083816E+02  0.39999999175E+02 0.  0.
         12    1    3    3    0    0  0.12047429880E+02 -0.98854548948E+01  0.33360411920E+02  0.36820916184E+02  0.00000000000E+00 0. -1.
         11    1    4    4    0    0 -0.61534067877E+01  0.55702759739E+01  0.38596295333E+01  0.91536402549E+01  0.51100000000E-03 0. -1.
        -11    1    4    4    0    0 -0.87711676154E+01 -0.46286699273E+01 -0.33783993188E+02  0.35209603273E+02  0.51100000000E-03 0.  1.
        -12    1    4    4    0    0  0.28771445232E+01  0.89438488482E+01 -0.34360482647E+01  0.10003840288E+02  0.00000000000E+00 0.  1.
</event>
<event>
 8    1  0.1238315E-006  0.9118800E+02  0.7816164E-02  0.1184000E+00
        -11   -1    0    0    0    0  0.00000000000E+00  0.00000000000E+00  0.45593999997E+02  0.45594000000E+02  0.51100000000E-03 0.  1.
         11   -1    0    0    0    0 -0.00000000000E+00 -0.00000000000E+00 -0.45593999997E+02  0.45594000000E+02  0.51100000000E-03 0. -1.
         23    2    1    2    0    0  0.17763568394E-14 -0.71054273576E-14  0.35527136788E-14  0.91188000000E+02  0.91188000000E+02 0.  0.
    9900012    2    3    3    0    0  0.12929154859E+02 -0.29357548588E+02  0.18076263878E+02  0.54367081757E+02  0.39999994481E+02 0.  0.
         12    1    3    3    0    0 -0.12929154859E+02  0.29357548588E+02 -0.18076263878E+02  0.36820918243E+02  0.00000000000E+00 0. -1.
         11    1    4    4    0    0 -0.69824987741E+01 -0.54603555262E+00  0.43011761139E+01  0.82190972849E+01  0.51100000000E-03 0. -1.
        -11    1    4    4    0    0  0.73950729269E+01  0.43426637509E+01  0.33650423336E+01  0.92124558189E+01  0.51100000000E-03 0.  1.
         12    1    4    4    0    0  0.12516580707E+02 -0.33154176787E+02  0.10410045430E+02  0.36935528653E+02  0.00000000000E+00 0. -1.
</event>
<event>
 8    1  0.1238315E-006  0.9118800E+02  0.7816164E-02  0.1184000E+00
        -11   -1    0    0    0    0  0.00000000000E+00  0.00000000000E+00  0.45593999997E+02  0.45594000000E+02  0.51100000000E-03 0.  1.
         11   -1    0    0    0    0 -0.00000000000E+00 -0.00000000000E+00 -0.45593999997E+02  0.45594000000E+02  0.51100000000E-03 0. -1.
         23    2    1    2    0    0  0.17763568394E-14 -0.35527136788E-14 -0.35527136788E-14  0.91188000000E+02  0.91188000000E+02 0.  0.
    9900012    2    3    3    0    0 -0.15002598026E+02  0.24300273759E+02  0.23242170434E+02  0.54367085580E+02  0.40000003196E+02 0.  0.
         12    1    3    3    0    0  0.15002598026E+02 -0.24300273759E+02 -0.23242170434E+02  0.36820914420E+02  0.00000000000E+00 0. -1.
         11    1    4    4    0    0  0.91710153383E+01 -0.17186270549E+01 -0.23849264282E+01  0.96306321505E+01  0.51100000000E-03 0. -1.
        -11    1    4    4    0    0 -0.53639933954E+01  0.19761144620E+01  0.67482495472E+01  0.88439994191E+01  0.51100000000E-03 0.  1.
        -12    1    4    4    0    0 -0.18809619969E+02  0.24042786351E+02  0.18878847315E+02  0.35892454010E+02  0.00000000000E+00 0.  1.
</event>
<event>
 8    1  0.1238315E-006  0.9118800E+02  0.7816164E-02  0.1184000E+00
        -11   -1    0    0    0    0  0.00000000000E+00  0.00000000000E+00  0.45593999997E+02  0.45594000000E+02  0.51100000000E-03 0.  1.
         11   -1    0    0    0    0 -0.00000000000E+00 -0.00000000000E+00 -0.45593999997E+02  0.45594000000E+02  0.51100000000E-03 0. -1.
         23    2    1    2    0    0  0.00000000000E+00  0.17763568394E-14  0.17763568394E-14  0.91188000000E+02  0.91188000000E+02 0.  0.
    9900012    2    3    3    0    0  0.33965419279E+02  0.93827019254E+01  0.10681490258E+02  0.54367095118E+02  0.40000024941E+02 0.  0.
        -12    1    3    3    0    0 -0.33965419279E+02 -0.93827019254E+01 -0.10681490258E+02  0.36820904882E+02  0.00000000000E+00 0.  1.
         11    1    4    4    0    0  0.60663644897E+01  0.36220453460E+01  0.15382437049E+02  0.16927473540E+02  0.51100000000E-03 0. -1.
        -11    1    4    4    0    0  0.19055181343E+02 -0.80698675410E+01 -0.18324750656E+01  0.20774519568E+02  0.51100000000E-03 0.  1.
         12    1    4    4    0    0  0.88438734459E+01  0.13830524120E+02 -0.28684717263E+01  0.16665102010E+02  0.00000000000E+00 0. -1.
</event>
<event>
 8    1  0.1238315E-006  0.9118800E+02  0.7816164E-02  0.1184000E+00
        -11   -1    0    0    0    0  0.00000000000E+00  0.00000000000E+00  0.45593999997E+02  0.45594000000E+02  0.51100000000E-03 0. -1.
         11   -1    0    0    0    0 -0.00000000000E+00 -0.00000000000E+00 -0.45593999997E+02  0.45594000000E+02  0.51100000000E-03 0.  1.
         23    2    1    2    0    0 -0.17763568394E-14  0.00000000000E+00  0.00000000000E+00  0.91188000000E+02  0.91188000000E+02 0.  0.
    9900012    2    3    3    0    0 -0.15482322433E+02 -0.10472570103E+02  0.31723848380E+02  0.54367087620E+02  0.40000007846E+02 0.  0.
        -12    1    3    3    0    0  0.15482322433E+02  0.10472570103E+02 -0.31723848380E+02  0.36820912380E+02  0.00000000000E+00 0.  1.
         11    1    4    4    0    0 -0.25259948629E+01  0.15963049817E+01  0.11100406410E+02  0.11495558376E+02  0.51100000000E-03 0. -1.
        -11    1    4    4    0    0  0.62283178136E+01 -0.13804687948E+02  0.17851336689E+02  0.23410074198E+02  0.51100000000E-03 0.  1.
        -12    1    4    4    0    0 -0.19184645383E+02  0.17358128632E+01  0.27721052811E+01  0.19461455045E+02  0.00000000000E+00 0.  1.
</event>
<event>
 8    1  0.1238315E-006  0.9118800E+02  0.7816164E-02  0.1184000E+00
        -11   -1    0    0    0    0  0.00000000000E+00  0.00000000000E+00  0.45593999997E+02  0.45594000000E+02  0.51100000000E-03 0. -1.
         11   -1    0    0    0    0 -0.00000000000E+00 -0.00000000000E+00 -0.45593999997E+02  0.45594000000E+02  0.51100000000E-03 0.  1.
         23    2    1    2    0    0 -0.71054273576E-14  0.88817841970E-15  0.00000000000E+00  0.91188000000E+02  0.91188000000E+02 0.  0.
    9900012    2    3    3    0    0 -0.35899199974E+02  0.32445273441E+01  0.75167328833E+01  0.54367071309E+02  0.39999970663E+02 0.  0.
         12    1    3    3    0    0  0.35899199974E+02 -0.32445273441E+01 -0.75167328833E+01  0.36820928691E+02  0.00000000000E+00 0. -1.
         11    1    4    4    0    0  0.23937650500E+01 -0.36175345738E+00 -0.88827398450E+01  0.92067390586E+01  0.51100000000E-03 0. -1.
        -11    1    4    4    0    0  0.84281410568E-01  0.22614094229E+01 -0.15788982982E+01  0.27593470299E+01  0.51100000000E-03 0.  1.
         12    1    4    4    0    0 -0.38377246434E+02  0.13448713786E+01  0.17978371027E+02  0.42400985220E+02  0.00000000000E+00 0. -1.
</event>
