<event>
 8    1  0.2512298E-006  0.9118800E+02  0.7816164E-02  0.1184000E+00
        -11   -1    0    0    0    0  0.00000000000E+00  0.00000000000E+00  0.45593999997E+02  0.45594000000E+02  0.51100000000E-03 0.  1.
         11   -1    0    0    0    0 -0.00000000000E+00 -0.00000000000E+00 -0.45593999997E+02  0.45594000000E+02  0.51100000000E-03 0. -1.
         23    2    1    2    0    0  0.00000000000E+00 -0.35527136788E-14 -0.88817841970E-15  0.91188000000E+02  0.91188000000E+02 0.  0.
    9900012    2    3    3    0    0 -0.31256790499E+02  0.19134968431E+02 -0.35558199406E+01  0.54367111572E+02  0.40000062451E+02 0.  0.
        -12    1    3    3    0    0  0.31256790499E+02 -0.19134968431E+02  0.35558199406E+01  0.36820888428E+02  0.00000000000E+00 0.  1.
         11    1    4    4    0    0 -0.12324089924E+02  0.83133285946E+00  0.74407901580E+01  0.14420113218E+02  0.51100000000E-03 0. -1.
        -11    1    4    4    0    0  0.64742689786E+01  0.25090094020E+01 -0.68341355641E+01  0.97425200106E+01  0.51100000000E-03 0.  1.
         12    1    4    4    0    0 -0.25406969554E+02  0.15794626170E+02 -0.41624745345E+01  0.30204478343E+02  0.00000000000E+00 0. -1.
</event>
<event>
 8    1  0.2512298E-006  0.9118800E+02  0.7816164E-02  0.1184000E+00
        -11   -1    0    0    0    0  0.00000000000E+00  0.00000000000E+00  0.45593999997E+02  0.45594000000E+02  0.51100000000E-03 0. -1.
         11   -1    0    0    0    0 -0.00000000000E+00 -0.00000000000E+00 -0.45593999997E+02  0.45594000000E+02  0.51100000000E-03 0.  1.
         23    2    1    2    0    0  0.88817841970E-15 -0.88817841970E-15  0.00000000000E+00  0.91188000000E+02  0.91188000000E+02 0.  0.
    9900012    2    3    3    0    0 -0.67012948149E+01 -0.22672340253E+01  0.36134916276E+02  0.54367083708E+02  0.39999998929E+02 0.  0.
        -12    1    3    3    0    0  0.67012948149E+01  0.22672340253E+01 -0.36134916276E+02  0.36820916292E+02  0.00000000000E+00 0.  1.
         11    1    4    4    0    0 -0.74992076385E+01  0.19948985435E+01  0.40548395370E+01  0.87555387805E+01  0.51100000000E-03 0. -1.
        -11    1    4    4    0    0 -0.14105617368E+02  0.46558102904E+01  0.12273715725E+02  0.19268863712E+02  0.51100000000E-03 0.  1.
        -12    1    4    4    0    0  0.14903530191E+02 -0.89179428592E+01  0.19806361014E+02  0.26342681215E+02  0.00000000000E+00 0.  1.
</event>
<event>
 8    1  0.2512298E-006  0.9118800E+02  0.7816164E-02  0.1184000E+00
        -11   -1    0    0    0    0  0.00000000000E+00  0.00000000000E+00  0.45593999997E+02  0.45594000000E+02  0.51100000000E-03 0.  1.
         11   -1    0    0    0    0 -0.00000000000E+00 -0.00000000000E+00 -0.45593999997E+02  0.45594000000E+02  0.51100000000E-03 0. -1.
         23    2    1    2    0    0  0.00000000000E+00  0.00000000000E+00  0.17763568394E-14  0.91188000000E+02  0.91188000000E+02 0.  0.
    9900012    2    3    3    0    0 -0.22622890023E+02 -0.26538729512E+02 -0.11818628768E+02  0.54367091496E+02  0.40000016684E+02 0.  0.
        -12    1    3    3    0    0  0.22622890023E+02  0.26538729512E+02  0.11818628768E+02  0.36820908504E+02  0.00000000000E+00 0.  1.
         11    1    4    4    0    0 -0.17725955386E+02  0.27761496823E+01 -0.10832288653E+02  0.20958410701E+02  0.51100000000E-03 0.  1.
        -11    1    4    4    0    0 -0.90583603199E+01 -0.21876841689E+02 -0.46521651240E+01  0.24130742520E+02  0.51100000000E-03 0. -1.
        -12    1    4    4    0    0  0.41614256827E+01 -0.74380375051E+01  0.36658250089E+01  0.92779382751E+01  0.00000000000E+00 0.  1.
</event>
<event>
 8    1  0.2512298E-006  0.9118800E+02  0.7816164E-02  0.1184000E+00
        -11   -1    0    0    0    0  0.00000000000E+00  0.00000000000E+00  0.45593999997E+02  0.45594000000E+02  0.51100000000E-03 0.  1.
         11   -1    0    0    0    0 -0.00000000000E+00 -0.00000000000E+00 -0.45593999997E+02  0.45594000000E+02  0.51100000000E-03 0. -1.
         23    2    1    2    0    0  0.00000000000E+00  0.00000000000E+00 -0.17763568394E-14  0.91188000000E+02  0.91188000000E+02 0.  0.
    9900012    2    3    3    0    0  0.75809983613E+01 -0.32734622138E+02 -0.15058009782E+02  0.54367208574E+02  0.40000283585E+02 0.  0.
        -12    1    3    3    0    0 -0.75809983613E+01  0.32734622138E+02  0.15058009782E+02  0.36820791426E+02  0.00000000000E+00 0.  1.
         11    1    4    4    0    0  0.41648658915E-01 -0.23448789693E+02 -0.19987217371E+02  0.30811302004E+02  0.51100000000E-03 0. -1.
        -11    1    4    4    0    0 -0.35479628936E+01 -0.38911251187E+01  0.91216945257E+01  0.10532530877E+02  0.51100000000E-03 0.  1.
         12    1    4    4    0    0  0.11087312596E+02 -0.53947073257E+01 -0.41924869371E+01  0.13023375693E+02  0.00000000000E+00 0. -1.
</event>
<event>
 8    1  0.2512298E-006  0.9118800E+02  0.7816164E-02  0.1184000E+00
        -11   -1    0    0    0    0  0.00000000000E+00  0.00000000000E+00  0.45593999997E+02  0.45594000000E+02  0.51100000000E-03 0. -1.
         11   -1    0    0    0    0 -0.00000000000E+00 -0.00000000000E+00 -0.45593999997E+02  0.45594000000E+02  0.51100000000E-03 0.  1.
         23    2    1    2    0    0  0.44408920985E-15  0.00000000000E+00  0.00000000000E+00  0.91188000000E+02  0.91188000000E+02 0.  0.
    9900012    2    3    3    0    0 -0.24503932991E+01  0.21608895304E+02  0.29712461365E+02  0.54367093656E+02  0.40000021608E+02 0.  0.
        -12    1    3    3    0    0  0.24503932991E+01 -0.21608895304E+02 -0.29712461365E+02  0.36820906344E+02  0.00000000000E+00 0.  1.
         11    1    4    4    0    0 -0.13578789756E+02  0.27684221092E+02  0.16339005599E+02  0.34896457312E+02  0.51100000000E-03 0. -1.
        -11    1    4    4    0    0  0.94932146042E+00 -0.24533793748E+01  0.55164001705E+01  0.61115425789E+01  0.51100000000E-03 0.  1.
         12    1    4    4    0    0  0.10179074996E+02 -0.36219464129E+01  0.78570555958E+01  0.13359093765E+02  0.00000000000E+00 0. -1.
</event>
<event>
 8    1  0.2512298E-006  0.9118800E+02  0.7816164E-02  0.1184000E+00
        -11   -1    0    0    0    0  0.00000000000E+00  0.00000000000E+00  0.45593999997E+02  0.45594000000E+02  0.51100000000E-03 0.  1.
         11   -1    0    0    0    0 -0.00000000000E+00 -0.00000000000E+00 -0.45593999997E+02  0.45594000000E+02  0.51100000000E-03 0. -1.
         23    2    1    2    0    0  0.35527136788E-14  0.00000000000E+00  0.35527136788E-14  0.91188000000E+02  0.91188000000E+02 0.  0.
    9900012    2    3    3    0    0 -0.20738947324E+02  0.81811795810E+01 -0.29304312969E+02  0.54367103840E+02  0.40000044824E+02 0.  0.
        -12    1    3    3    0    0  0.20738947324E+02 -0.81811795810E+01  0.29304312969E+02  0.36820896160E+02  0.00000000000E+00 0.  1.
         11    1    4    4    0    0 -0.59266608320E+01  0.11790243399E+02  0.20518724629E+01  0.13354599541E+02  0.51100000000E-03 0. -1.
        -11    1    4    4    0    0 -0.16892681612E+02 -0.54272318794E+00 -0.10649122083E+02  0.19976512255E+02  0.51100000000E-03 0.  1.
         12    1    4    4    0    0  0.20803951198E+01 -0.30663406303E+01 -0.20707063349E+02  0.21035992044E+02  0.00000000000E+00 0. -1.
</event>
<event>
 8    1  0.2512298E-006  0.9118800E+02  0.7816164E-02  0.1184000E+00
        -11   -1    0    0    0    0  0.00000000000E+00  0.00000000000E+00  0.45593999997E+02  0.45594000000E+02  0.51100000000E-03 0. -1.
         11   -1    0    0    0    0 -0.00000000000E+00 -0.00000000000E+00 -0.45593999997E+02  0.45594000000E+02  0.51100000000E-03 0.  1.
         23    2    1    2    0    0 -0.88817841970E-15  0.00000000000E+00  0.00000000000E+00  0.91188000000E+02  0.91188000000E+02 0.  0.
    9900012    2    3    3    0    0 -0.60556600764E+01  0.21531870559E+02 -0.29248675049E+02  0.54367116512E+02  0.40000073712E+02 0.  0.
         12    1    3    3    0    0  0.60556600764E+01 -0.21531870559E+02  0.29248675049E+02  0.36820883488E+02  0.00000000000E+00 0. -1.
         11    1    4    4    0    0 -0.70116526994E+01 -0.23605412823E+01  0.34079557924E+01  0.81455258680E+01  0.51100000000E-03 0. -1.
        -11    1    4    4    0    0  0.30528280732E+01 -0.47135611718E+00 -0.16788865691E+02  0.17070675068E+02  0.51100000000E-03 0.  1.
        -12    1    4    4    0    0 -0.20968354503E+01  0.24363767958E+02 -0.15867765150E+02  0.29150915576E+02  0.00000000000E+00 0.  1.
</event>
<event>
 8    1  0.2512298E-006  0.9118800E+02  0.7816164E-02  0.1184000E+00
        -11   -1    0    0    0    0  0.00000000000E+00  0.00000000000E+00  0.45593999997E+02  0.45594000000E+02  0.51100000000E-03 0. -1.
         11   -1    0    0    0    0 -0.00000000000E+00 -0.00000000000E+00 -0.45593999997E+02  0.45594000000E+02  0.51100000000E-03 0.  1.
         23    2    1    2    0    0 -0.88817841970E-15  0.00000000000E+00  0.00000000000E+00  0.91188000000E+02  0.91188000000E+02 0.  0.
    9900012    2    3    3    0    0 -0.46024749587E+01  0.35849524534E+02 -0.70291983901E+01  0.54367070964E+02  0.39999969877E+02 0.  0.
         12    1    3    3    0    0  0.46024749587E+01 -0.35849524534E+02  0.70291983901E+01  0.36820929036E+02  0.00000000000E+00 0. -1.
         11    1    4    4    0    0 -0.14427039614E+01  0.83348162605E+01 -0.28487736774E+01  0.89255850533E+01  0.51100000000E-03 0. -1.
        -11    1    4    4    0    0  0.40058701184E+01  0.31540829940E+02 -0.12108395322E+02  0.34021819267E+02  0.51100000000E-03 0.  1.
         12    1    4    4    0    0 -0.71656411156E+01 -0.40261216661E+01  0.79279706098E+01  0.11419666644E+02  0.00000000000E+00 0. -1.
</event>
<event>
 8    1  0.2512298E-006  0.9118800E+02  0.7816164E-02  0.1184000E+00
        -11   -1    0    0    0    0  0.00000000000E+00  0.00000000000E+00  0.45593999997E+02  0.45594000000E+02  0.51100000000E-03 0.  1.
         11   -1    0    0    0    0 -0.00000000000E+00 -0.00000000000E+00 -0.45593999997E+02  0.45594000000E+02  0.51100000000E-03 0. -1.
         23    2    1    2    0    0  0.71054273576E-14  0.00000000000E+00  0.00000000000E+00  0.91188000000E+02  0.91188000000E+02 0.  0.
    9900012    2    3    3    0    0  0.34285958500E+02 -0.34982286255E+01 -0.12962045256E+02  0.54367093289E+02  0.40000020771E+02 0.  0.
        -12    1    3    3    0    0 -0.34285958500E+02  0.34982286255E+01  0.12962045256E+02  0.36820906711E+02  0.00000000000E+00 0.  1.
         11    1    4    4    0    0 -0.19435780455E+01 -0.82145928884E+00 -0.37683727614E+01  0.43189031608E+01  0.51100000000E-03 0. -1.
        -11    1    4    4    0    0  0.11742222665E+01  0.42449095532E+01  0.89489213904E+01  0.99740287427E+01  0.51100000000E-03 0.  1.
         12    1    4    4    0    0  0.35055314279E+02 -0.69216788899E+01 -0.18142593885E+02  0.40074161386E+02  0.00000000000E+00 0. -1.
</event>
<event>
 8    1  0.2512298E-006  0.9118800E+02  0.7816164E-02  0.1184000E+00
        -11   -1    0    0    0    0  0.00000000000E+00  0.00000000000E+00  0.45593999997E+02  0.45594000000E+02  0.51100000000E-03 0.  1.
         11   -1    0    0    0    0 -0.00000000000E+00 -0.00000000000E+00 -0.45593999997E+02  0.45594000000E+02  0.51100000000E-03 0. -1.
         23    2    1    2    0    0  0.00000000000E+00  0.00000000000E+00  0.88817841970E-15  0.91188000000E+02  0.91188000000E+02 0.  0.
    9900012    2    3    3    0    0 -0.34428627441E+02 -0.10635801955E+02  0.75714973418E+01  0.54367105895E+02  0.40000049509E+02 0.  0.
         12    1    3    3    0    0  0.34428627441E+02  0.10635801955E+02 -0.75714973418E+01  0.36820894105E+02  0.00000000000E+00 0. -1.
         11    1    4    4    0    0 -0.15524736777E+02 -0.15245023365E+01 -0.13575777695E+02  0.20679538188E+02  0.51100000000E-03 0. -1.
        -11    1    4    4    0    0 -0.26569573581E+01 -0.79969313358E+01  0.12963865684E+02  0.15461958056E+02  0.51100000000E-03 0.  1.
         12    1    4    4    0    0 -0.16246933306E+02 -0.11143682826E+01  0.81834093532E+01  0.18225609651E+02  0.00000000000E+00 0. -1.
</event>
<event>
 8    1  0.2512298E-006  0.9118800E+02  0.7816164E-02  0.1184000E+00
        -11   -1    0    0    0    0  0.00000000000E+00  0.00000000000E+00  0.45593999997E+02  0.45594000000E+02  0.51100000000E-03 0. -1.
         11   -1    0    0    0    0 -0.00000000000E+00 -0.00000000000E+00 -0.45593999997E+02  0.45594000000E+02  0.51100000000E-03 0.  1.
         23    2    1    2    0    0  0.35527136788E-14  0.00000000000E+00  0.00000000000E+00  0.91188000000E+02  0.91188000000E+02 0.  0.
    9900012    2    3    3    0    0  0.21753186649E+02  0.28914803772E+02 -0.68200243393E+01  0.54367085582E+02  0.40000003202E+02 0.  0.
         12    1    3    3    0    0 -0.21753186649E+02 -0.28914803772E+02  0.68200243393E+01  0.36820914418E+02  0.00000000000E+00 0. -1.
         11    1    4    4    0    0  0.91703399875E+01  0.24510595231E+02  0.78930985757E+01  0.27334326761E+02  0.51100000000E-03 0. -1.
        -11    1    4    4    0    0  0.47724136487E+00  0.95084196233E+01 -0.56241469168E+01  0.11057523767E+02  0.51100000000E-03 0.  1.
         12    1    4    4    0    0  0.12105605297E+02 -0.51042110823E+01 -0.90889759981E+01  0.15975235055E+02  0.00000000000E+00 0. -1.
</event>
<event>
 8    1  0.2512298E-006  0.9118800E+02  0.7816164E-02  0.1184000E+00
        -11   -1    0    0    0    0  0.00000000000E+00  0.00000000000E+00  0.45593999997E+02  0.45594000000E+02  0.51100000000E-03 0.  1.
         11   -1    0    0    0    0 -0.00000000000E+00 -0.00000000000E+00 -0.45593999997E+02  0.45594000000E+02  0.51100000000E-03 0. -1.
         23    2    1    2    0    0  0.00000000000E+00  0.17763568394E-14  0.00000000000E+00  0.91188000000E+02  0.91188000000E+02 0.  0.
    9900012    2    3    3    0    0  0.22589672021E+02 -0.10269864458E+02 -0.27203253583E+02  0.54367076552E+02  0.39999982617E+02 0.  0.
        -12    1    3    3    0    0 -0.22589672021E+02  0.10269864458E+02  0.27203253583E+02  0.36820923448E+02  0.00000000000E+00 0.  1.
         11    1    4    4    0    0  0.77663635029E+01 -0.10163286174E+02 -0.15292837373E+02  0.19936892012E+02  0.51100000000E-03 0. -1.
        -11    1    4    4    0    0 -0.28411629835E+01  0.10599724394E+02 -0.75472341722E+01  0.13318675168E+02  0.51100000000E-03 0.  1.
        -12    1    4    4    0    0  0.17664471502E+02 -0.10706302678E+02 -0.43631820376E+01  0.21111509372E+02  0.00000000000E+00 0.  1.
</event>
<event>
 8    1  0.2512298E-006  0.9118800E+02  0.7816164E-02  0.1184000E+00
        -11   -1    0    0    0    0  0.00000000000E+00  0.00000000000E+00  0.45593999997E+02  0.45594000000E+02  0.51100000000E-03 0. -1.
         11   -1    0    0    0    0 -0.00000000000E+00 -0.00000000000E+00 -0.45593999997E+02  0.45594000000E+02  0.51100000000E-03 0.  1.
         23    2    1    2    0    0  0.44408920985E-15  0.00000000000E+00  0.00000000000E+00  0.91188000000E+02  0.91188000000E+02 0.  0.
    9900012    2    3    3    0    0 -0.33942931341E+01 -0.20130343272E+01 -0.36608830905E+02  0.54367081579E+02  0.39999994077E+02 0.  0.
         12    1    3    3    0    0  0.33942931341E+01  0.20130343272E+01  0.36608830905E+02  0.36820918421E+02  0.00000000000E+00 0. -1.
         11    1    4    4    0    0 -0.21577037410E+00 -0.15717520846E+02 -0.14245361150E+02  0.21213611973E+02  0.51100000000E-03 0. -1.
        -11    1    4    4    0    0 -0.55596897025E+00  0.24292770803E+01  0.37995047813E+01  0.45438667974E+01  0.51100000000E-03 0.  1.
        -12    1    4    4    0    0 -0.26225537897E+01  0.11275209439E+02 -0.26162974537E+02  0.28609602809E+02  0.00000000000E+00 0.  1.
</event>
<event>
 8    1  0.2512298E-006  0.9118800E+02  0.7816164E-02  0.1184000E+00
        -11   -1    0    0    0    0  0.00000000000E+00  0.00000000000E+00  0.45593999997E+02  0.45594000000E+02  0.51100000000E-03 0.  1.
         11   -1    0    0    0    0 -0.00000000000E+00 -0.00000000000E+00 -0.45593999997E+02  0.45594000000E+02  0.51100000000E-03 0. -1.
         23    2    1    2    0    0  0.00000000000E+00  0.00000000000E+00 -0.35527136788E-14  0.91188000000E+02  0.91188000000E+02 0.  0.
    9900012    2    3    3    0    0  0.31867613096E+02 -0.16046766726E+02  0.90959241952E+01  0.54367091215E+02  0.40000016042E+02 0.  0.
        -12    1    3    3    0    0 -0.31867613096E+02  0.16046766726E+02 -0.90959241952E+01  0.36820908785E+02  0.00000000000E+00 0.  1.
         11    1    4    4    0    0  0.17867538948E+02 -0.61681222675E+00  0.82855538547E+01  0.19704816881E+02  0.51100000000E-03 0. -1.
        -11    1    4    4    0    0  0.10300009122E+02 -0.17791255581E+02 -0.10098019710E+02  0.22903907207E+02  0.51100000000E-03 0.  1.
        -12    1    4    4    0    0  0.37000650270E+01  0.23613010816E+01  0.10908390050E+02  0.11758367127E+02  0.00000000000E+00 0.  1.
</event>
<event>
 8    1  0.2512298E-006  0.9118800E+02  0.7816164E-02  0.1184000E+00
        -11   -1    0    0    0    0  0.00000000000E+00  0.00000000000E+00  0.45593999997E+02  0.45594000000E+02  0.51100000000E-03 0. -1.
         11   -1    0    0    0    0 -0.00000000000E+00 -0.00000000000E+00 -0.45593999997E+02  0.45594000000E+02  0.51100000000E-03 0.  1.
         23    2    1    2    0    0  0.00000000000E+00 -0.35527136788E-14  0.00000000000E+00  0.91188000000E+02  0.91188000000E+02 0.  0.
    9900012    2    3    3    0    0  0.82212694493E+01  0.18709748664E+02  0.30628853196E+02  0.54367209480E+02  0.40000285649E+02 0.  0.
        -12    1    3    3    0    0 -0.82212694493E+01 -0.18709748664E+02 -0.30628853196E+02  0.36820790520E+02  0.00000000000E+00 0.  1.
         11    1    4    4    0    0 -0.64254264151E+01  0.85625175922E+01  0.92202078623E+01  0.14128518869E+02  0.51100000000E-03 0. -1.
        -11    1    4    4    0    0  0.15924628045E+02 -0.40233602148E+01  0.20089812738E+02  0.25949600805E+02  0.51100000000E-03 0.  1.
         12    1    4    4    0    0 -0.12779321808E+01  0.14170591287E+02  0.13188325956E+01  0.14289089806E+02  0.00000000000E+00 0. -1.
</event>
<event>
 8    1  0.2512298E-006  0.9118800E+02  0.7816164E-02  0.1184000E+00
        -11   -1    0    0    0    0  0.00000000000E+00  0.00000000000E+00  0.45593999997E+02  0.45594000000E+02  0.51100000000E-03 0.  1.
         11   -1    0    0    0    0 -0.00000000000E+00 -0.00000000000E+00 -0.45593999997E+02  0.45594000000E+02  0.51100000000E-03 0. -1.
         23    2    1    2    0    0 -0.88817841970E-15  0.00000000000E+00  0.00000000000E+00  0.91188000000E+02  0.91188000000E+02 0.  0.
    9900012    2    3    3    0    0 -0.57405071358E+01  0.18853770560E+02  0.31102438196E+02  0.54367085451E+02  0.40000002902E+02 0.  0.
         12    1    3    3    0    0  0.57405071358E+01 -0.18853770560E+02 -0.31102438196E+02  0.36820914549E+02  0.00000000000E+00 0. -1.
         11    1    4    4    0    0  0.40943686080E+00 -0.56922310360E+01  0.41333151767E+01  0.70465188087E+01  0.51100000000E-03 0. -1.
        -11    1    4    4    0    0  0.10778763062E+02  0.13324093907E+02  0.18771652453E+02  0.25418264057E+02  0.51100000000E-03 0.  1.
        -12    1    4    4    0    0 -0.16928707058E+02  0.11221907689E+02  0.81974705660E+01  0.21902302585E+02  0.00000000000E+00 0.  1.
</event>
<event>
 8    1  0.2512298E-006  0.9118800E+02  0.7816164E-02  0.1184000E+00
        -11   -1    0    0    0    0  0.00000000000E+00  0.00000000000E+00  0.45593999997E+02  0.45594000000E+02  0.51100000000E-03 0.  1.
         11   -1    0    0    0    0 -0.00000000000E+00 -0.00000000000E+00 -0.45593999997E+02  0.45594000000E+02  0.51100000000E-03 0. -1.
         23    2    1    2    0    0  0.00000000000E+00  0.00000000000E+00  0.88817841970E-15  0.91188000000E+02  0.91188000000E+02 0.  0.
    9900012    2    3    3    0    0 -0.36501941698E+02  0.65555114504E+00  0.47927611674E+01  0.54366918340E+02  0.39999621938E+02 0.  0.
         12    1    3    3    0    0  0.36501941698E+02 -0.65555114504E+00 -0.47927611674E+01  0.36821081660E+02  0.00000000000E+00 0. -1.
         11    1    4    4    0    0 -0.23200183910E+02 -0.62156667598E+00  0.34904271364E+01  0.23469511296E+02  0.51100000000E-03 0. -1.
        -11    1    4    4    0    0 -0.21741038709E+02 -0.15072190547E+01  0.24763480823E+01  0.21933462415E+02  0.51100000000E-03 0.  1.
        -12    1    4    4    0    0  0.84392809220E+01  0.27843368757E+01 -0.11740140512E+01  0.89639446289E+01  0.00000000000E+00 0.  1.
</event>
<event>
 8    1  0.2512298E-006  0.9118800E+02  0.7816164E-02  0.1184000E+00
        -11   -1    0    0    0    0  0.00000000000E+00  0.00000000000E+00  0.45593999997E+02  0.45594000000E+02  0.51100000000E-03 0.  1.
         11   -1    0    0    0    0 -0.00000000000E+00 -0.00000000000E+00 -0.45593999997E+02  0.45594000000E+02  0.51100000000E-03 0. -1.
         23    2    1    2    0    0  0.00000000000E+00  0.00000000000E+00  0.88817841970E-15  0.91188000000E+02  0.91188000000E+02 0.  0.
    9900012    2    3    3    0    0  0.27811049435E+02 -0.23585785540E+02 -0.51025813037E+01  0.54367080862E+02  0.39999992441E+02 0.  0.
        -12    1    3    3    0    0 -0.27811049435E+02  0.23585785540E+02  0.51025813037E+01  0.36820919138E+02  0.00000000000E+00 0.  1.
         11    1    4    4    0    0  0.20039037098E+02 -0.27782874558E+02 -0.12325518914E+02  0.36405625160E+02  0.51100000000E-03 0. -1.
        -11    1    4    4    0    0  0.36914525900E+01  0.17267103341E+01 -0.40348163300E+01  0.57348141975E+01  0.51100000000E-03 0.  1.
        -12    1    4    4    0    0  0.40805597470E+01  0.24703786837E+01  0.11257753941E+02  0.12226641505E+02  0.00000000000E+00 0.  1.
</event>
<event>
 8    1  0.2512298E-006  0.9118800E+02  0.7816164E-02  0.1184000E+00
        -11   -1    0    0    0    0  0.00000000000E+00  0.00000000000E+00  0.45593999997E+02  0.45594000000E+02  0.51100000000E-03 0. -1.
         11   -1    0    0    0    0 -0.00000000000E+00 -0.00000000000E+00 -0.45593999997E+02  0.45594000000E+02  0.51100000000E-03 0.  1.
         23    2    1    2    0    0  0.35527136788E-14 -0.71054273576E-14 -0.17763568394E-14  0.91188000000E+02  0.91188000000E+02 0.  0.
    9900012    2    3    3    0    0 -0.92055897702E+01  0.33821317866E+02  0.11276285175E+02  0.54367095169E+02  0.40000025058E+02 0.  0.
        -12    1    3    3    0    0  0.92055897702E+01 -0.33821317866E+02 -0.11276285175E+02  0.36820904831E+02  0.00000000000E+00 0.  1.
         11    1    4    4    0    0 -0.18878867811E+02  0.93816473263E+01  0.71942549549E+01  0.22275193849E+02  0.51100000000E-03 0. -1.
        -11    1    4    4    0    0  0.76706930131E+01  0.58854717846E+00 -0.54959618842E+00  0.77128448262E+01  0.51100000000E-03 0.  1.
        -12    1    4    4    0    0  0.20025850278E+01  0.23851123361E+02  0.46316264085E+01  0.24379056495E+02  0.00000000000E+00 0.  1.
</event>
<event>
 8    1  0.2512298E-006  0.9118800E+02  0.7816164E-02  0.1184000E+00
        -11   -1    0    0    0    0  0.00000000000E+00  0.00000000000E+00  0.45593999997E+02  0.45594000000E+02  0.51100000000E-03 0.  1.
         11   -1    0    0    0    0 -0.00000000000E+00 -0.00000000000E+00 -0.45593999997E+02  0.45594000000E+02  0.51100000000E-03 0. -1.
         23    2    1    2    0    0  0.71054273576E-14 -0.17763568394E-14 -0.44408920985E-15  0.91188000000E+02  0.91188000000E+02 0.  0.
    9900012    2    3    3    0    0 -0.35275099367E+02 -0.10468215542E+02 -0.13652097009E+01  0.54367082446E+02  0.39999996052E+02 0.  0.
         12    1    3    3    0    0  0.35275099367E+02  0.10468215542E+02  0.13652097009E+01  0.36820917554E+02  0.00000000000E+00 0. -1.
         11    1    4    4    0    0  0.55558910284E+01  0.41656426171E-01 -0.30544665293E+00  0.55644369254E+01  0.51100000000E-03 0. -1.
        -11    1    4    4    0    0 -0.30852149006E+01  0.32700279236E+01 -0.68618640792E+01  0.82034634458E+01  0.51100000000E-03 0.  1.
        -12    1    4    4    0    0 -0.37745775495E+02 -0.13779899892E+02  0.58021010313E+01  0.40599182075E+02  0.00000000000E+00 0.  1.
</event>
<event>
 8    1  0.2512298E-006  0.9118800E+02  0.7816164E-02  0.1184000E+00
        -11   -1    0    0    0    0  0.00000000000E+00  0.00000000000E+00  0.45593999997E+02  0.45594000000E+02  0.51100000000E-03 0.  1.
         11   -1    0    0    0    0 -0.00000000000E+00 -0.00000000000E+00 -0.45593999997E+02  0.45594000000E+02  0.51100000000E-03 0. -1.
         23    2    1    2    0    0 -0.17763568394E-14  0.35527136788E-14  0.00000000000E+00  0.91188000000E+02  0.91188000000E+02 0.  0.
    9900012    2    3    3    0    0 -0.15381198013E+02  0.18949275417E+02  0.27570335868E+02  0.54367085957E+02  0.40000004056E+02 0.  0.
         12    1    3    3    0    0  0.15381198013E+02 -0.18949275417E+02 -0.27570335868E+02  0.36820914043E+02  0.00000000000E+00 0. -1.
         11    1    4    4    0    0 -0.13139880435E+02  0.35088848200E+01 -0.19351303303E+01  0.13737301780E+02  0.51100000000E-03 0. -1.
        -11    1    4    4    0    0 -0.44603590535E+01 -0.32381025982E+01 -0.14789988682E+00  0.55137995937E+01  0.51100000000E-03 0.  1.
        -12    1    4    4    0    0  0.22190414761E+01  0.18678493195E+02  0.29653366085E+02  0.35115984583E+02  0.00000000000E+00 0.  1.
</event>
<event>
 8    1  0.2512298E-006  0.9118800E+02  0.7816164E-02  0.1184000E+00
        -11   -1    0    0    0    0  0.00000000000E+00  0.00000000000E+00  0.45593999997E+02  0.45594000000E+02  0.51100000000E-03 0. -1.
         11   -1    0    0    0    0 -0.00000000000E+00 -0.00000000000E+00 -0.45593999997E+02  0.45594000000E+02  0.51100000000E-03 0.  1.
         23    2    1    2    0    0  0.00000000000E+00  0.00000000000E+00 -0.35527136788E-14  0.91188000000E+02  0.91188000000E+02 0.  0.
    9900012    2    3    3    0    0 -0.14301874408E+02 -0.31810591429E+02 -0.11803518815E+02  0.54367076667E+02  0.39999982878E+02 0.  0.
         12    1    3    3    0    0  0.14301874408E+02  0.31810591429E+02  0.11803518815E+02  0.36820923333E+02  0.00000000000E+00 0. -1.
         11    1    4    4    0    0 -0.92357180811E+01 -0.23354450285E+02  0.11587632342E+02  0.27658670614E+02  0.51100000000E-03 0. -1.
        -11    1    4    4    0    0 -0.11281316817E+01  0.88306810408E+00 -0.89586360471E+01  0.90724666135E+01  0.51100000000E-03 0.  1.
         12    1    4    4    0    0 -0.39380246451E+01 -0.93392092480E+01 -0.14432515111E+02  0.17635939439E+02  0.00000000000E+00 0. -1.
</event>
<event>
 8    1  0.2512298E-006  0.9118800E+02  0.7816164E-02  0.1184000E+00
        -11   -1    0    0    0    0  0.00000000000E+00  0.00000000000E+00  0.45593999997E+02  0.45594000000E+02  0.51100000000E-03 0. -1.
         11   -1    0    0    0    0 -0.00000000000E+00 -0.00000000000E+00 -0.45593999997E+02  0.45594000000E+02  0.51100000000E-03 0.  1.
         23    2    1    2    0    0 -0.44408920985E-15  0.35527136788E-14  0.00000000000E+00  0.91188000000E+02  0.91188000000E+02 0.  0.
    9900012    2    3    3    0    0 -0.11620598067E+01  0.30618968648E+02 -0.20418344148E+02  0.54367076576E+02  0.39999982671E+02 0.  0.
         12    1    3    3    0    0  0.11620598067E+01 -0.30618968648E+02  0.20418344148E+02  0.36820923424E+02  0.00000000000E+00 0. -1.
         11    1    4    4    0    0 -0.32044813120E+01  0.19122650857E+02 -0.18770855796E+02  0.26986839456E+02  0.51100000000E-03 0. -1.
        -11    1    4    4    0    0  0.10375899902E+02  0.14177143886E+02 -0.45666627829E+01  0.18152275802E+02  0.51100000000E-03 0.  1.
         12    1    4    4    0    0 -0.83334783968E+01 -0.26808260951E+01  0.29191744306E+01  0.92279613187E+01  0.00000000000E+00 0. -1.
</event>
<event>
 8    1  0.2512298E-006  0.9118800E+02  0.7816164E-02  0.1184000E+00
        -11   -1    0    0    0    0  0.00000000000E+00  0.00000000000E+00  0.45593999997E+02  0.45594000000E+02  0.51100000000E-03 0.  1.
         11   -1    0    0    0    0 -0.00000000000E+00 -0.00000000000E+00 -0.45593999997E+02  0.45594000000E+02  0.51100000000E-03 0. -1.
         23    2    1    2    0    0  0.00000000000E+00 -0.35527136788E-14  0.17763568394E-14  0.91188000000E+02  0.91188000000E+02 0.  0.
    9900012    2    3    3    0    0  0.27215701022E+02  0.23582109621E+02 -0.76790956725E+01  0.54367098508E+02  0.40000032669E+02 0.  0.
        -12    1    3    3    0    0 -0.27215701022E+02 -0.23582109621E+02  0.76790956725E+01  0.36820901492E+02  0.00000000000E+00 0.  1.
         11    1    4    4    0    0  0.50453477560E+01 -0.16675804993E+01  0.21960251169E+01  0.57496856675E+01  0.51100000000E-03 0.  1.
        -11    1    4    4    0    0  0.14666122472E+02  0.19380858288E+02  0.10229726201E+02  0.26369681734E+02  0.51100000000E-03 0. -1.
         12    1    4    4    0    0  0.75042307948E+01  0.58688318320E+01 -0.20104846990E+02  0.22247731107E+02  0.00000000000E+00 0. -1.
</event>
<event>
 8    1  0.2512298E-006  0.9118800E+02  0.7816164E-02  0.1184000E+00
        -11   -1    0    0    0    0  0.00000000000E+00  0.00000000000E+00  0.45593999997E+02  0.45594000000E+02  0.51100000000E-03 0.  1.
         11   -1    0    0    0    0 -0.00000000000E+00 -0.00000000000E+00 -0.45593999997E+02  0.45594000000E+02  0.51100000000E-03 0. -1.
         23    2    1    2    0    0 -0.35527136788E-14  0.00000000000E+00 -0.35527136788E-14  0.91188000000E+02  0.91188000000E+02 0.  0.
    9900012    2    3    3    0    0  0.27936766232E+02  0.18497995843E+02  0.15268972967E+02  0.54367078050E+02  0.39999986031E+02 0.  0.
         12    1    3    3    0    0 -0.27936766232E+02 -0.18497995843E+02 -0.15268972967E+02  0.36820921950E+02  0.00000000000E+00 0. -1.
         11    1    4    4    0    0  0.39999232731E+01  0.59743140136E+01 -0.12603420126E+02  0.14509928092E+02  0.51100000000E-03 0. -1.
        -11    1    4    4    0    0  0.21213887046E+01 -0.10484112725E+01  0.71465642537E+00  0.24718799121E+01  0.51100000000E-03 0.  1.
         12    1    4    4    0    0  0.21815454255E+02  0.13572093102E+02  0.27157736667E+02  0.37385270046E+02  0.00000000000E+00 0. -1.
</event>
<event>
 8    1  0.2512298E-006  0.9118800E+02  0.7816164E-02  0.1184000E+00
        -11   -1    0    0    0    0  0.00000000000E+00  0.00000000000E+00  0.45593999997E+02  0.45594000000E+02  0.51100000000E-03 0.  1.
         11   -1    0    0    0    0 -0.00000000000E+00 -0.00000000000E+00 -0.45593999997E+02  0.45594000000E+02  0.51100000000E-03 0. -1.
         23    2    1    2    0    0  0.00000000000E+00 -0.26645352591E-14 -0.71054273576E-14  0.91188000000E+02  0.91188000000E+02 0.  0.
    9900012    2    3    3    0    0  0.19115161065E+01  0.74586687792E+01  0.36006848214E+02  0.54367098978E+02  0.40000033739E+02 0.  0.
         12    1    3    3    0    0 -0.19115161065E+01 -0.74586687792E+01 -0.36006848214E+02  0.36820901022E+02  0.00000000000E+00 0. -1.
         11    1    4    4    0    0  0.57749898523E+01 -0.98286448304E+00 -0.71071014600E+01  0.92101803353E+01  0.51100000000E-03 0. -1.
        -11    1    4    4    0    0  0.49257425101E+00  0.90166953343E+01  0.28425644029E+02  0.29825503564E+02  0.51100000000E-03 0.  1.
         12    1    4    4    0    0 -0.43560479969E+01 -0.57516207208E+00  0.14688305645E+02  0.15331415078E+02  0.00000000000E+00 0. -1.
</event>
<event>
 8    1  0.2512298E-006  0.9118800E+02  0.7816164E-02  0.1184000E+00
        -11   -1    0    0    0    0  0.00000000000E+00  0.00000000000E+00  0.45593999997E+02  0.45594000000E+02  0.51100000000E-03 0.  1.
         11   -1    0    0    0    0 -0.00000000000E+00 -0.00000000000E+00 -0.45593999997E+02  0.45594000000E+02  0.51100000000E-03 0. -1.
         23    2    1    2    0    0  0.00000000000E+00  0.00000000000E+00 -0.17763568394E-14  0.91188000000E+02  0.91188000000E+02 0.  0.
    9900012    2    3    3    0    0  0.21691690136E+02  0.29149713915E+02 -0.59619556428E+01  0.54367079895E+02  0.39999990236E+02 0.  0.
         12    1    3    3    0    0 -0.21691690136E+02 -0.29149713915E+02  0.59619556428E+01  0.36820920105E+02  0.00000000000E+00 0. -1.
         11    1    4    4    0    0  0.80949545109E+01 -0.30603089802E+01  0.44852438708E+01  0.97473684874E+01  0.51100000000E-03 0. -1.
        -11    1    4    4    0    0  0.49645764023E+01  0.20718254261E+02  0.66174166361E+01  0.22308816232E+02  0.51100000000E-03 0.  1.
        -12    1    4    4    0    0  0.86321592228E+01  0.11491768635E+02 -0.17064616150E+02  0.22310895176E+02  0.00000000000E+00 0.  1.
</event>
<event>
 8    1  0.2512298E-006  0.9118800E+02  0.7816164E-02  0.1184000E+00
        -11   -1    0    0    0    0  0.00000000000E+00  0.00000000000E+00  0.45593999997E+02  0.45594000000E+02  0.51100000000E-03 0.  1.
         11   -1    0    0    0    0 -0.00000000000E+00 -0.00000000000E+00 -0.45593999997E+02  0.45594000000E+02  0.51100000000E-03 0. -1.
         23    2    1    2    0    0  0.71054273576E-14 -0.35527136788E-14 -0.88817841970E-15  0.91188000000E+02  0.91188000000E+02 0.  0.
    9900012    2    3    3    0    0 -0.20334266078E+02 -0.30435203648E+02 -0.39993291749E+01  0.54367100610E+02  0.40000037461E+02 0.  0.
        -12    1    3    3    0    0  0.20334266078E+02  0.30435203648E+02  0.39993291749E+01  0.36820899390E+02  0.00000000000E+00 0.  1.
         11    1    4    4    0    0 -0.63204673751E+01 -0.12471726481E+02  0.23802418180E+01  0.14183011691E+02  0.51100000000E-03 0. -1.
        -11    1    4    4    0    0  0.39450074582E+01  0.20578560341E+01 -0.11920351607E+02  0.12723703785E+02  0.51100000000E-03 0.  1.
        -12    1    4    4    0    0 -0.17958806161E+02 -0.20021333201E+02  0.55407806145E+01  0.27460385134E+02  0.00000000000E+00 0.  1.
</event>
<event>
 8    1  0.2512298E-006  0.9118800E+02  0.7816164E-02  0.1184000E+00
        -11   -1    0    0    0    0  0.00000000000E+00  0.00000000000E+00  0.45593999997E+02  0.45594000000E+02  0.51100000000E-03 0.  1.
         11   -1    0    0    0    0 -0.00000000000E+00 -0.00000000000E+00 -0.45593999997E+02  0.45594000000E+02  0.51100000000E-03 0. -1.
         23    2    1    2    0    0  0.71054273576E-14  0.00000000000E+00 -0.13322676296E-14  0.91188000000E+02  0.91188000000E+02 0.  0.
    9900012    2    3    3    0    0  0.36093709520E+02  0.70269658131E+01 -0.19121682257E+01  0.54366939413E+02  0.39999669978E+02 0.  0.
         12    1    3    3    0    0 -0.36093709520E+02 -0.70269658131E+01  0.19121682257E+01  0.36821060587E+02  0.00000000000E+00 0. -1.
         11    1    4    4    0    0  0.41208868448E+01  0.91850616666E+01  0.12076006150E+02  0.15721863471E+02  0.51100000000E-03 0. -1.
        -11    1    4    4    0    0 -0.89513458317E+00  0.25150003264E+01 -0.20480530472E+01  0.33646714712E+01  0.51100000000E-03 0.  1.
        -12    1    4    4    0    0  0.32867957258E+02 -0.46730961799E+01 -0.11940121329E+02  0.35280404470E+02  0.00000000000E+00 0.  1.
</event>
<event>
 8    1  0.2512298E-006  0.9118800E+02  0.7816164E-02  0.1184000E+00
        -11   -1    0    0    0    0  0.00000000000E+00  0.00000000000E+00  0.45593999997E+02  0.45594000000E+02  0.51100000000E-03 0.  1.
         11   -1    0    0    0    0 -0.00000000000E+00 -0.00000000000E+00 -0.45593999997E+02  0.45594000000E+02  0.51100000000E-03 0. -1.
         23    2    1    2    0    0  0.00000000000E+00  0.44408920985E-15  0.00000000000E+00  0.91188000000E+02  0.91188000000E+02 0.  0.
    9900012    2    3    3    0    0  0.36342499849E+02 -0.32131278385E+01 -0.49676821418E+01  0.54367090837E+02  0.40000015180E+02 0.  0.
        -12    1    3    3    0    0 -0.36342499849E+02  0.32131278385E+01  0.49676821418E+01  0.36820909163E+02  0.00000000000E+00 0.  1.
         11    1    4    4    0    0  0.89855889897E+01  0.52653485535E+01 -0.14434097471E+02  0.17799097588E+02  0.51100000000E-03 0. -1.
        -11    1    4    4    0    0 -0.12855458238E+01 -0.63357368948E+01  0.29979437184E+01  0.71261389872E+01  0.51100000000E-03 0.  1.
         12    1    4    4    0    0  0.28642456683E+02 -0.21427394972E+01  0.64684716110E+01  0.29441854261E+02  0.00000000000E+00 0. -1.
</event>
<event>
 8    1  0.2512298E-006  0.9118800E+02  0.7816164E-02  0.1184000E+00
        -11   -1    0    0    0    0  0.00000000000E+00  0.00000000000E+00  0.45593999997E+02  0.45594000000E+02  0.51100000000E-03 0. -1.
         11   -1    0    0    0    0 -0.00000000000E+00 -0.00000000000E+00 -0.45593999997E+02  0.45594000000E+02  0.51100000000E-03 0.  1.
         23    2    1    2    0    0 -0.88817841970E-15 -0.71054273576E-14  0.00000000000E+00  0.91188000000E+02  0.91188000000E+02 0.  0.
    9900012    2    3    3    0    0 -0.53359776215E+01  0.35456683469E+02 -0.83744189805E+01  0.54367082669E+02  0.39999996561E+02 0.  0.
         12    1    3    3    0    0  0.53359776215E+01 -0.35456683469E+02  0.83744189805E+01  0.36820917331E+02  0.00000000000E+00 0. -1.
         11    1    4    4    0    0  0.43420101903E+01 -0.77406573026E+01 -0.42950441133E+01  0.98599306369E+01  0.51100000000E-03 0. -1.
        -11    1    4    4    0    0 -0.70099870355E+01  0.29577289432E+02 -0.18764833261E+01  0.30454509655E+02  0.51100000000E-03 0.  1.
         12    1    4    4    0    0 -0.26680007763E+01  0.13620051340E+02 -0.22028915411E+01  0.14052642377E+02  0.00000000000E+00 0. -1.
</event>
<event>
 8    1  0.2512298E-006  0.9118800E+02  0.7816164E-02  0.1184000E+00
        -11   -1    0    0    0    0  0.00000000000E+00  0.00000000000E+00  0.45593999997E+02  0.45594000000E+02  0.51100000000E-03 0. -1.
         11   -1    0    0    0    0 -0.00000000000E+00 -0.00000000000E+00 -0.45593999997E+02  0.45594000000E+02  0.51100000000E-03 0.  1.
         23    2    1    2    0    0  0.00000000000E+00 -0.17763568394E-14  0.00000000000E+00  0.91188000000E+02  0.91188000000E+02 0.  0.
    9900012    2    3    3    0    0 -0.33324382435E+02  0.14953897214E+02  0.46526327347E+01  0.54367075271E+02  0.39999979695E+02 0.  0.
         12    1    3    3    0    0  0.33324382435E+02 -0.14953897214E+02 -0.46526327347E+01  0.36820924729E+02  0.00000000000E+00 0. -1.
         11    1    4    4    0    0 -0.69106723278E+01  0.75337267480E+01  0.70025203969E+01  0.12391518184E+02  0.51100000000E-03 0. -1.
        -11    1    4    4    0    0 -0.25897469601E+02  0.12487838544E+02  0.85068643244E+01  0.29983191694E+02  0.51100000000E-03 0.  1.
        -12    1    4    4    0    0 -0.51624050556E+00 -0.50676680781E+01 -0.10856751987E+02  0.11992365393E+02  0.00000000000E+00 0.  1.
</event>
<event>
 8    1  0.2512298E-006  0.9118800E+02  0.7816164E-02  0.1184000E+00
        -11   -1    0    0    0    0  0.00000000000E+00  0.00000000000E+00  0.45593999997E+02  0.45594000000E+02  0.51100000000E-03 0.  1.
         11   -1    0    0    0    0 -0.00000000000E+00 -0.00000000000E+00 -0.45593999997E+02  0.45594000000E+02  0.51100000000E-03 0. -1.
         23    2    1    2    0    0  0.00000000000E+00  0.17763568394E-14  0.88817841970E-15  0.91188000000E+02  0.91188000000E+02 0.  0.
    9900012    2    3    3    0    0 -0.34365679178E+02 -0.10830326024E+02  0.75816300823E+01  0.54367123016E+02  0.40000088540E+02 0.  0.
         12    1    3    3    0    0  0.34365679178E+02  0.10830326024E+02 -0.75816300823E+01  0.36820876984E+02  0.00000000000E+00 0. -1.
         11    1    4    4    0    0 -0.10403526380E+02 -0.22072171459E+01  0.38320971024E+01  0.11304429978E+02  0.51100000000E-03 0. -1.
        -11    1    4    4    0    0 -0.31454415429E+02 -0.10119141630E+02  0.84330824457E+01  0.34101233953E+02  0.51100000000E-03 0.  1.
         12    1    4    4    0    0  0.74922626314E+01  0.14960327521E+01 -0.46835494659E+01  0.89614590850E+01  0.00000000000E+00 0. -1.
</event>
<event>
 8    1  0.2512298E-006  0.9118800E+02  0.7816164E-02  0.1184000E+00
        -11   -1    0    0    0    0  0.00000000000E+00  0.00000000000E+00  0.45593999997E+02  0.45594000000E+02  0.51100000000E-03 0.  1.
         11   -1    0    0    0    0 -0.00000000000E+00 -0.00000000000E+00 -0.45593999997E+02  0.45594000000E+02  0.51100000000E-03 0. -1.
         23    2    1    2    0    0  0.35527136788E-14  0.00000000000E+00  0.35527136788E-14  0.91188000000E+02  0.91188000000E+02 0.  0.
    9900012    2    3    3    0    0 -0.26648384732E+02  0.96507168029E+01 -0.23505510054E+02  0.54367058316E+02  0.39999941042E+02 0.  0.
        -12    1    3    3    0    0  0.26648384732E+02 -0.96507168029E+01  0.23505510054E+02  0.36820941684E+02  0.00000000000E+00 0.  1.
         11    1    4    4    0    0 -0.10212764520E+01 -0.49707477212E+01 -0.16723447435E+02  0.17476413616E+02  0.51100000000E-03 0. -1.
        -11    1    4    4    0    0 -0.25093010059E+02  0.67608837251E+01 -0.10684383886E+02  0.28098483266E+02  0.51100000000E-03 0.  1.
        -12    1    4    4    0    0 -0.53409822073E+00  0.78605807990E+01  0.39023212668E+01  0.87921614337E+01  0.00000000000E+00 0.  1.
</event>
<event>
 8    1  0.2512298E-006  0.9118800E+02  0.7816164E-02  0.1184000E+00
        -11   -1    0    0    0    0  0.00000000000E+00  0.00000000000E+00  0.45593999997E+02  0.45594000000E+02  0.51100000000E-03 0.  1.
         11   -1    0    0    0    0 -0.00000000000E+00 -0.00000000000E+00 -0.45593999997E+02  0.45594000000E+02  0.51100000000E-03 0. -1.
         23    2    1    2    0    0  0.17763568394E-14 -0.35527136788E-14  0.53290705182E-14  0.91188000000E+02  0.91188000000E+02 0.  0.
    9900012    2    3    3    0    0  0.15193045448E+02 -0.30540906380E+02  0.13863694926E+02  0.54367114222E+02  0.40000068492E+02 0.  0.
         12    1    3    3    0    0 -0.15193045448E+02  0.30540906380E+02 -0.13863694926E+02  0.36820885778E+02  0.00000000000E+00 0. -1.
         11    1    4    4    0    0 -0.89954395483E+00  0.27521477276E+01 -0.44298811760E+01  0.52921965134E+01  0.51100000000E-03 0. -1.
        -11    1    4    4    0    0  0.13438879275E+02 -0.17117487015E+02 -0.32503881855E+01  0.22004019212E+02  0.51100000000E-03 0.  1.
         12    1    4    4    0    0  0.26537101279E+01 -0.16175567092E+02  0.21543964287E+02  0.27070898497E+02  0.00000000000E+00 0. -1.
</event>
<event>
 8    1  0.2512298E-006  0.9118800E+02  0.7816164E-02  0.1184000E+00
        -11   -1    0    0    0    0  0.00000000000E+00  0.00000000000E+00  0.45593999997E+02  0.45594000000E+02  0.51100000000E-03 0.  1.
         11   -1    0    0    0    0 -0.00000000000E+00 -0.00000000000E+00 -0.45593999997E+02  0.45594000000E+02  0.51100000000E-03 0. -1.
         23    2    1    2    0    0  0.00000000000E+00  0.00000000000E+00  0.71054273576E-14  0.91188000000E+02  0.91188000000E+02 0.  0.
    9900012    2    3    3    0    0 -0.80772091676E+01 -0.11498927895E+02 -0.34034014163E+02  0.54367071566E+02  0.39999971248E+02 0.  0.
        -12    1    3    3    0    0  0.80772091676E+01  0.11498927895E+02  0.34034014163E+02  0.36820928434E+02  0.00000000000E+00 0.  1.
         11    1    4    4    0    0  0.63331045684E+01 -0.20833264376E+01 -0.14274011143E+02  0.15754232983E+02  0.51100000000E-03 0. -1.
        -11    1    4    4    0    0 -0.23491446245E+01  0.82755026923E+01  0.11572291427E+01  0.86799541950E+01  0.51100000000E-03 0.  1.
        -12    1    4    4    0    0 -0.12061169112E+02 -0.17691104150E+02 -0.20917232163E+02  0.29932884388E+02  0.00000000000E+00 0.  1.
</event>
<event>
 8    1  0.2512298E-006  0.9118800E+02  0.7816164E-02  0.1184000E+00
        -11   -1    0    0    0    0  0.00000000000E+00  0.00000000000E+00  0.45593999997E+02  0.45594000000E+02  0.51100000000E-03 0.  1.
         11   -1    0    0    0    0 -0.00000000000E+00 -0.00000000000E+00 -0.45593999997E+02  0.45594000000E+02  0.51100000000E-03 0. -1.
         23    2    1    2    0    0  0.17763568394E-14  0.00000000000E+00  0.00000000000E+00  0.91188000000E+02  0.91188000000E+02 0.  0.
    9900012    2    3    3    0    0 -0.14683897809E+02  0.19551405242E+02 -0.27530083628E+02  0.54367084661E+02  0.40000001102E+02 0.  0.
        -12    1    3    3    0    0  0.14683897809E+02 -0.19551405242E+02  0.27530083628E+02  0.36820915339E+02  0.00000000000E+00 0.  1.
         11    1    4    4    0    0 -0.19166338031E+02 -0.65572456131E+00 -0.24075455320E+02  0.30779961620E+02  0.51100000000E-03 0. -1.
        -11    1    4    4    0    0 -0.26944731793E+01  0.12507743534E+02 -0.22788519699E+01  0.12996037880E+02  0.51100000000E-03 0.  1.
         12    1    4    4    0    0  0.71769134007E+01  0.76993862695E+01 -0.11757763380E+01  0.10591085161E+02  0.00000000000E+00 0. -1.
</event>
<event>
 8    1  0.2512298E-006  0.9118800E+02  0.7816164E-02  0.1184000E+00
        -11   -1    0    0    0    0  0.00000000000E+00  0.00000000000E+00  0.45593999997E+02  0.45594000000E+02  0.51100000000E-03 0.  1.
         11   -1    0    0    0    0 -0.00000000000E+00 -0.00000000000E+00 -0.45593999997E+02  0.45594000000E+02  0.51100000000E-03 0. -1.
         23    2    1    2    0    0  0.00000000000E+00 -0.22204460493E-14  0.12212453271E-14  0.91188000000E+02  0.91188000000E+02 0.  0.
    9900012    2    3    3    0    0  0.36771972473E+02  0.18773364852E+01 -0.27612763026E+00  0.54367101066E+02  0.40000038500E+02 0.  0.
        -12    1    3    3    0    0 -0.36771972473E+02 -0.18773364852E+01  0.27612763026E+00  0.36820898934E+02  0.00000000000E+00 0.  1.
         11    1    4    4    0    0  0.50134680600E+01 -0.70097879786E+01  0.10957371767E+02  0.13940444247E+02  0.51100000000E-03 0. -1.
        -11    1    4    4    0    0  0.19454108044E+02  0.15016609559E+02 -0.40195371987E+01  0.24902159786E+02  0.51100000000E-03 0.  1.
         12    1    4    4    0    0  0.12304396369E+02 -0.61294850950E+01 -0.72139621987E+01  0.15524497033E+02  0.00000000000E+00 0. -1.
</event>
<event>
 8    1  0.2512298E-006  0.9118800E+02  0.7816164E-02  0.1184000E+00
        -11   -1    0    0    0    0  0.00000000000E+00  0.00000000000E+00  0.45593999997E+02  0.45594000000E+02  0.51100000000E-03 0.  1.
         11   -1    0    0    0    0 -0.00000000000E+00 -0.00000000000E+00 -0.45593999997E+02  0.45594000000E+02  0.51100000000E-03 0. -1.
         23    2    1    2    0    0  0.17763568394E-14  0.00000000000E+00  0.00000000000E+00  0.91188000000E+02  0.91188000000E+02 0.  0.
    9900012    2    3    3    0    0 -0.82510933069E+01  0.32222729863E+02 -0.15792027713E+02  0.54367177088E+02  0.40000211808E+02 0.  0.
        -12    1    3    3    0    0  0.82510933069E+01 -0.32222729863E+02  0.15792027713E+02  0.36820822912E+02  0.00000000000E+00 0.  1.
         11    1    4    4    0    0 -0.86559631698E+01  0.14653808889E+02  0.21386298909E+01  0.17153237346E+02  0.51100000000E-03 0. -1.
        -11    1    4    4    0    0 -0.26384112071E+01  0.23492072095E+02 -0.74302809644E+01  0.24779986693E+02  0.51100000000E-03 0.  1.
         12    1    4    4    0    0  0.30432810700E+01 -0.59231511212E+01 -0.10500376640E+02  0.12433953050E+02  0.00000000000E+00 0. -1.
</event>
<event>
 8    1  0.2512298E-006  0.9118800E+02  0.7816164E-02  0.1184000E+00
        -11   -1    0    0    0    0  0.00000000000E+00  0.00000000000E+00  0.45593999997E+02  0.45594000000E+02  0.51100000000E-03 0.  1.
         11   -1    0    0    0    0 -0.00000000000E+00 -0.00000000000E+00 -0.45593999997E+02  0.45594000000E+02  0.51100000000E-03 0. -1.
         23    2    1    2    0    0  0.00000000000E+00  0.00000000000E+00 -0.35527136788E-14  0.91188000000E+02  0.91188000000E+02 0.  0.
    9900012    2    3    3    0    0  0.22223406476E+02 -0.90849736060E+01 -0.27917100481E+02  0.54367067909E+02  0.39999962912E+02 0.  0.
         12    1    3    3    0    0 -0.22223406476E+02  0.90849736060E+01  0.27917100481E+02  0.36820932091E+02  0.00000000000E+00 0. -1.
         11    1    4    4    0    0 -0.47537084003E+01  0.62612990924E+01 -0.12174405014E+02  0.14491989083E+02  0.51100000000E-03 0. -1.
        -11    1    4    4    0    0  0.19678295861E+01 -0.10718998406E+02 -0.24214433135E+01  0.11163900219E+02  0.51100000000E-03 0.  1.
        -12    1    4    4    0    0  0.25009285290E+02 -0.46272742920E+01 -0.13321252154E+02  0.28711178607E+02  0.00000000000E+00 0.  1.
</event>
<event>
 8    1  0.2512298E-006  0.9118800E+02  0.7816164E-02  0.1184000E+00
        -11   -1    0    0    0    0  0.00000000000E+00  0.00000000000E+00  0.45593999997E+02  0.45594000000E+02  0.51100000000E-03 0. -1.
         11   -1    0    0    0    0 -0.00000000000E+00 -0.00000000000E+00 -0.45593999997E+02  0.45594000000E+02  0.51100000000E-03 0.  1.
         23    2    1    2    0    0  0.00000000000E+00  0.00000000000E+00 -0.35527136788E-14  0.91188000000E+02  0.91188000000E+02 0.  0.
    9900012    2    3    3    0    0  0.92249692506E+01  0.31680439073E+02 -0.16340761913E+02  0.54367207268E+02  0.40000280608E+02 0.  0.
         12    1    3    3    0    0 -0.92249692506E+01 -0.31680439073E+02  0.16340761913E+02  0.36820792732E+02  0.00000000000E+00 0. -1.
         11    1    4    4    0    0  0.10491193542E+02  0.17242573168E+02 -0.83349171967E+01  0.21836719449E+02  0.51100000000E-03 0.  1.
        -11    1    4    4    0    0  0.44214462821E+01  0.13541054328E+02 -0.16795566905E+02  0.22022724796E+02  0.51100000000E-03 0. -1.
         12    1    4    4    0    0 -0.56876705737E+01  0.89681157786E+00  0.87897221894E+01  0.10507763022E+02  0.00000000000E+00 0. -1.
</event>
<event>
 8    1  0.2512298E-006  0.9118800E+02  0.7816164E-02  0.1184000E+00
        -11   -1    0    0    0    0  0.00000000000E+00  0.00000000000E+00  0.45593999997E+02  0.45594000000E+02  0.51100000000E-03 0. -1.
         11   -1    0    0    0    0 -0.00000000000E+00 -0.00000000000E+00 -0.45593999997E+02  0.45594000000E+02  0.51100000000E-03 0.  1.
         23    2    1    2    0    0  0.00000000000E+00  0.00000000000E+00 -0.88817841970E-15  0.91188000000E+02  0.91188000000E+02 0.  0.
    9900012    2    3    3    0    0  0.14365135200E+02  0.33554331011E+02 -0.48508528202E+01  0.54367068290E+02  0.39999963780E+02 0.  0.
         12    1    3    3    0    0 -0.14365135200E+02 -0.33554331011E+02  0.48508528202E+01  0.36820931710E+02  0.00000000000E+00 0. -1.
         11    1    4    4    0    0  0.63120268608E+01  0.21851063904E+01  0.23977093778E+01  0.70968573010E+01  0.51100000000E-03 0. -1.
        -11    1    4    4    0    0  0.10007243133E+02 -0.23431000434E+01 -0.87064150393E+01  0.13469843950E+02  0.51100000000E-03 0.  1.
        -12    1    4    4    0    0 -0.19541347933E+01  0.33712324664E+02  0.14578528414E+01  0.33800367039E+02  0.00000000000E+00 0.  1.
</event>
<event>
 8    1  0.2512298E-006  0.9118800E+02  0.7816164E-02  0.1184000E+00
        -11   -1    0    0    0    0  0.00000000000E+00  0.00000000000E+00  0.45593999997E+02  0.45594000000E+02  0.51100000000E-03 0.  1.
         11   -1    0    0    0    0 -0.00000000000E+00 -0.00000000000E+00 -0.45593999997E+02  0.45594000000E+02  0.51100000000E-03 0. -1.
         23    2    1    2    0    0 -0.88817841970E-15  0.71054273576E-14 -0.35527136788E-14  0.91188000000E+02  0.91188000000E+02 0.  0.
    9900012    2    3    3    0    0  0.27231090527E+01 -0.31595604570E+02  0.18710607641E+02  0.54367022429E+02  0.39999859230E+02 0.  0.
         12    1    3    3    0    0 -0.27231090527E+01  0.31595604570E+02 -0.18710607641E+02  0.36820977571E+02  0.00000000000E+00 0. -1.
         11    1    4    4    0    0 -0.29725436384E+01  0.12935977575E+01 -0.85882129657E+01  0.91796956946E+01  0.51100000000E-03 0. -1.
        -11    1    4    4    0    0  0.82042347981E+00 -0.15901239041E+02  0.49077863756E+01  0.16661598515E+02  0.51100000000E-03 0.  1.
        -12    1    4    4    0    0  0.48752292113E+01 -0.16987963286E+02  0.22391034231E+02  0.28525728219E+02  0.00000000000E+00 0.  1.
</event>
<event>
 8    1  0.2512298E-006  0.9118800E+02  0.7816164E-02  0.1184000E+00
        -11   -1    0    0    0    0  0.00000000000E+00  0.00000000000E+00  0.45593999997E+02  0.45594000000E+02  0.51100000000E-03 0.  1.
         11   -1    0    0    0    0 -0.00000000000E+00 -0.00000000000E+00 -0.45593999997E+02  0.45594000000E+02  0.51100000000E-03 0. -1.
         23    2    1    2    0    0  0.00000000000E+00  0.00000000000E+00 -0.35527136788E-14  0.91188000000E+02  0.91188000000E+02 0.  0.
    9900012    2    3    3    0    0 -0.22280167340E+02 -0.62040445488E+00 -0.29308542316E+02  0.54367062871E+02  0.39999951426E+02 0.  0.
        -12    1    3    3    0    0  0.22280167340E+02  0.62040445488E+00  0.29308542316E+02  0.36820937129E+02  0.00000000000E+00 0.  1.
         11    1    4    4    0    0  0.53193743443E+00  0.14556252696E+02 -0.13239905355E+02  0.19684068280E+02  0.51100000000E-03 0. -1.
        -11    1    4    4    0    0 -0.85188738967E+00 -0.73791550637E+01 -0.36318268055E+01  0.82684827983E+01  0.51100000000E-03 0.  1.
        -12    1    4    4    0    0 -0.21960217385E+02 -0.77975020867E+01 -0.12436810155E+02  0.26414511793E+02  0.00000000000E+00 0.  1.
</event>
<event>
 8    1  0.2512298E-006  0.9118800E+02  0.7816164E-02  0.1184000E+00
        -11   -1    0    0    0    0  0.00000000000E+00  0.00000000000E+00  0.45593999997E+02  0.45594000000E+02  0.51100000000E-03 0.  1.
         11   -1    0    0    0    0 -0.00000000000E+00 -0.00000000000E+00 -0.45593999997E+02  0.45594000000E+02  0.51100000000E-03 0. -1.
         23    2    1    2    0    0  0.00000000000E+00  0.00000000000E+00  0.00000000000E+00  0.91188000000E+02  0.91188000000E+02 0.  0.
    9900012    2    3    3    0    0  0.20660583419E+02  0.29214076983E+02 -0.86866665281E+01  0.54367079635E+02  0.39999989644E+02 0.  0.
        -12    1    3    3    0    0 -0.20660583419E+02 -0.29214076983E+02  0.86866665281E+01  0.36820920365E+02  0.00000000000E+00 0.  1.
         11    1    4    4    0    0  0.18143086835E+02  0.59428667052E+01  0.61357690098E+01  0.20053351993E+02  0.51100000000E-03 0. -1.
        -11    1    4    4    0    0  0.54121616922E+01 -0.15453893860E+01 -0.86477236969E+00  0.56945196505E+01  0.51100000000E-03 0.  1.
        -12    1    4    4    0    0 -0.28946651083E+01  0.24816599663E+02 -0.13957663168E+02  0.28619207991E+02  0.00000000000E+00 0.  1.
</event>
<event>
 8    1  0.2512298E-006  0.9118800E+02  0.7816164E-02  0.1184000E+00
        -11   -1    0    0    0    0  0.00000000000E+00  0.00000000000E+00  0.45593999997E+02  0.45594000000E+02  0.51100000000E-03 0. -1.
         11   -1    0    0    0    0 -0.00000000000E+00 -0.00000000000E+00 -0.45593999997E+02  0.45594000000E+02  0.51100000000E-03 0.  1.
         23    2    1    2    0    0  0.00000000000E+00  0.00000000000E+00  0.00000000000E+00  0.91188000000E+02  0.91188000000E+02 0.  0.
    9900012    2    3    3    0    0 -0.27375587318E+01 -0.20563631689E+02  0.30420704723E+02  0.54367130213E+02  0.40000104946E+02 0.  0.
        -12    1    3    3    0    0  0.27375587318E+01  0.20563631689E+02 -0.30420704723E+02  0.36820869787E+02  0.00000000000E+00 0.  1.
         11    1    4    4    0    0 -0.11491401196E+02 -0.72021169730E+01  0.14238774289E+02  0.19663811529E+02  0.51100000000E-03 0. -1.
        -11    1    4    4    0    0  0.17817999459E+02 -0.89079830757E+01  0.71817505976E+01  0.21175712718E+02  0.51100000000E-03 0.  1.
        -12    1    4    4    0    0 -0.90641569942E+01 -0.44535316402E+01  0.90001798367E+01  0.13527605966E+02  0.00000000000E+00 0.  1.
</event>
<event>
 8    1  0.2512298E-006  0.9118800E+02  0.7816164E-02  0.1184000E+00
        -11   -1    0    0    0    0  0.00000000000E+00  0.00000000000E+00  0.45593999997E+02  0.45594000000E+02  0.51100000000E-03 0.  1.
         11   -1    0    0    0    0 -0.00000000000E+00 -0.00000000000E+00 -0.45593999997E+02  0.45594000000E+02  0.51100000000E-03 0. -1.
         23    2    1    2    0    0  0.00000000000E+00  0.00000000000E+00  0.00000000000E+00  0.91188000000E+02  0.91188000000E+02 0.  0.
    9900012    2    3    3    0    0  0.77842165585E+01 -0.20848409753E+02 -0.29334665616E+02  0.54367179484E+02  0.40000217269E+02 0.  0.
        -12    1    3    3    0    0 -0.77842165585E+01  0.20848409753E+02  0.29334665616E+02  0.36820820516E+02  0.00000000000E+00 0.  1.
         11    1    4    4    0    0  0.27835170769E+01 -0.11672467092E+02 -0.13380213844E+02  0.17972884524E+02  0.51100000000E-03 0. -1.
        -11    1    4    4    0    0  0.99538140971E+01 -0.28975000954E+01 -0.23321033399E+02  0.25521452171E+02  0.51100000000E-03 0.  1.
        -12    1    4    4    0    0 -0.49531146155E+01 -0.62784425664E+01  0.73665816270E+01  0.10872842789E+02  0.00000000000E+00 0.  1.
</event>
<event>
 8    1  0.2512298E-006  0.9118800E+02  0.7816164E-02  0.1184000E+00
        -11   -1    0    0    0    0  0.00000000000E+00  0.00000000000E+00  0.45593999997E+02  0.45594000000E+02  0.51100000000E-03 0.  1.
         11   -1    0    0    0    0 -0.00000000000E+00 -0.00000000000E+00 -0.45593999997E+02  0.45594000000E+02  0.51100000000E-03 0. -1.
         23    2    1    2    0    0  0.17763568394E-14  0.00000000000E+00  0.17763568394E-14  0.91188000000E+02  0.91188000000E+02 0.  0.
    9900012    2    3    3    0    0  0.11915234757E+02  0.33540286979E+02 -0.94263041490E+01  0.54367097243E+02  0.40000029784E+02 0.  0.
        -12    1    3    3    0    0 -0.11915234757E+02 -0.33540286979E+02  0.94263041490E+01  0.36820902757E+02  0.00000000000E+00 0.  1.
         11    1    4    4    0    0  0.11892533604E+02  0.17861615150E+02 -0.16549595364E+02  0.27099054564E+02  0.51100000000E-03 0. -1.
        -11    1    4    4    0    0 -0.83480381857E+00 -0.41456712381E+01 -0.28103649973E+01  0.50775623196E+01  0.51100000000E-03 0.  1.
         12    1    4    4    0    0  0.85750497129E+00  0.19824343067E+02  0.99336562124E+01  0.22190480359E+02  0.00000000000E+00 0. -1.
</event>
<event>
 8    1  0.2512298E-006  0.9118800E+02  0.7816164E-02  0.1184000E+00
        -11   -1    0    0    0    0  0.00000000000E+00  0.00000000000E+00  0.45593999997E+02  0.45594000000E+02  0.51100000000E-03 0.  1.
         11   -1    0    0    0    0 -0.00000000000E+00 -0.00000000000E+00 -0.45593999997E+02  0.45594000000E+02  0.51100000000E-03 0. -1.
         23    2    1    2    0    0  0.00000000000E+00  0.88817841970E-15  0.00000000000E+00  0.91188000000E+02  0.91188000000E+02 0.  0.
    9900012    2    3    3    0    0  0.23566975898E+02 -0.53549314241E+01  0.27779519546E+02  0.54367090862E+02  0.40000015238E+02 0.  0.
         12    1    3    3    0    0 -0.23566975898E+02  0.53549314241E+01 -0.27779519546E+02  0.36820909138E+02  0.00000000000E+00 0. -1.
         11    1    4    4    0    0 -0.51006757997E+01 -0.58553898729E+01 -0.13297321304E+00  0.77666058426E+01  0.51100000000E-03 0. -1.
        -11    1    4    4    0    0 -0.87933584221E+00  0.67588668694E+01  0.75688659390E+01  0.10185442786E+02  0.51100000000E-03 0.  1.
         12    1    4    4    0    0  0.29546987540E+02 -0.62584084207E+01  0.20343626820E+02  0.36415042233E+02  0.00000000000E+00 0. -1.
</event>
<event>
 8    1  0.2512298E-006  0.9118800E+02  0.7816164E-02  0.1184000E+00
        -11   -1    0    0    0    0  0.00000000000E+00  0.00000000000E+00  0.45593999997E+02  0.45594000000E+02  0.51100000000E-03 0. -1.
         11   -1    0    0    0    0 -0.00000000000E+00 -0.00000000000E+00 -0.45593999997E+02  0.45594000000E+02  0.51100000000E-03 0.  1.
         23    2    1    2    0    0  0.00000000000E+00  0.00000000000E+00  0.00000000000E+00  0.91188000000E+02  0.91188000000E+02 0.  0.
    9900012    2    3    3    0    0 -0.69096254755E+01 -0.21184123962E+02 -0.29313306702E+02  0.54367082276E+02  0.39999995664E+02 0.  0.
         12    1    3    3    0    0  0.69096254755E+01  0.21184123962E+02  0.29313306702E+02  0.36820917724E+02  0.00000000000E+00 0. -1.
         11    1    4    4    0    0 -0.56700824448E+01  0.46032768633E+01  0.21879292586E+00  0.73066998992E+01  0.51100000000E-03 0. -1.
        -11    1    4    4    0    0  0.11419511091E+02 -0.13905616898E+02 -0.21188393110E+02  0.27797831170E+02  0.51100000000E-03 0.  1.
        -12    1    4    4    0    0 -0.12659054122E+02 -0.11881783927E+02 -0.83437065177E+01  0.19262551207E+02  0.00000000000E+00 0.  1.
</event>
<event>
 8    1  0.2512298E-006  0.9118800E+02  0.7816164E-02  0.1184000E+00
        -11   -1    0    0    0    0  0.00000000000E+00  0.00000000000E+00  0.45593999997E+02  0.45594000000E+02  0.51100000000E-03 0.  1.
         11   -1    0    0    0    0 -0.00000000000E+00 -0.00000000000E+00 -0.45593999997E+02  0.45594000000E+02  0.51100000000E-03 0. -1.
         23    2    1    2    0    0  0.00000000000E+00  0.17763568394E-14  0.17763568394E-14  0.91188000000E+02  0.91188000000E+02 0.  0.
    9900012    2    3    3    0    0  0.34475187921E+02 -0.76001918631E+01 -0.10463211263E+02  0.54367078115E+02  0.39999986179E+02 0.  0.
        -12    1    3    3    0    0 -0.34475187921E+02  0.76001918631E+01  0.10463211263E+02  0.36820921885E+02  0.00000000000E+00 0.  1.
         11    1    4    4    0    0  0.28937101040E+02 -0.17213057153E+02 -0.12581499013E+02  0.35943556736E+02  0.51100000000E-03 0. -1.
        -11    1    4    4    0    0  0.10417286054E+02  0.80765917198E+01  0.17097151013E+01  0.13291888825E+02  0.51100000000E-03 0.  1.
         12    1    4    4    0    0 -0.48791991737E+01  0.15362735705E+01  0.40857264815E+00  0.51316325540E+01  0.00000000000E+00 0. -1.
</event>
<event>
 8    1  0.2512298E-006  0.9118800E+02  0.7816164E-02  0.1184000E+00
        -11   -1    0    0    0    0  0.00000000000E+00  0.00000000000E+00  0.45593999997E+02  0.45594000000E+02  0.51100000000E-03 0.  1.
         11   -1    0    0    0    0 -0.00000000000E+00 -0.00000000000E+00 -0.45593999997E+02  0.45594000000E+02  0.51100000000E-03 0. -1.
         23    2    1    2    0    0  0.11102230246E-15  0.00000000000E+00 -0.17763568394E-14  0.91188000000E+02  0.91188000000E+02 0.  0.
    9900012    2    3    3    0    0  0.16474162411E+00 -0.35540113432E+02  0.96253987220E+01  0.54367148528E+02  0.40000146699E+02 0.  0.
        -12    1    3    3    0    0 -0.16474162411E+00  0.35540113432E+02 -0.96253987220E+01  0.36820851472E+02  0.00000000000E+00 0.  1.
         11    1    4    4    0    0 -0.96016212519E+01 -0.94038109076E+00  0.84105194526E+01  0.12798917336E+02  0.51100000000E-03 0. -1.
        -11    1    4    4    0    0  0.31927749704E+01 -0.26242997650E+02 -0.78701027399E+01  0.27583097271E+02  0.51100000000E-03 0.  1.
        -12    1    4    4    0    0  0.65735879056E+01 -0.83567346912E+01  0.90849820093E+01  0.13985133920E+02  0.00000000000E+00 0.  1.
</event>
<event>
 8    1  0.2512298E-006  0.9118800E+02  0.7816164E-02  0.1184000E+00
        -11   -1    0    0    0    0  0.00000000000E+00  0.00000000000E+00  0.45593999997E+02  0.45594000000E+02  0.51100000000E-03 0. -1.
         11   -1    0    0    0    0 -0.00000000000E+00 -0.00000000000E+00 -0.45593999997E+02  0.45594000000E+02  0.51100000000E-03 0.  1.
         23    2    1    2    0    0  0.17763568394E-14  0.00000000000E+00  0.71054273576E-14  0.91188000000E+02  0.91188000000E+02 0.  0.
    9900012    2    3    3    0    0 -0.13235025798E+02  0.11969434782E+02 -0.32207857165E+02  0.54367090994E+02  0.40000015538E+02 0.  0.
         12    1    3    3    0    0  0.13235025798E+02 -0.11969434782E+02  0.32207857165E+02  0.36820909006E+02  0.00000000000E+00 0. -1.
         11    1    4    4    0    0 -0.67976645970E+01  0.82199172834E+01  0.37038047973E+01  0.11291299941E+02  0.51100000000E-03 0. -1.
        -11    1    4    4    0    0 -0.10898402636E+02 -0.42043050844E+01 -0.92576665624E+01  0.14904890195E+02  0.51100000000E-03 0.  1.
         12    1    4    4    0    0  0.44610414356E+01  0.79538225831E+01 -0.26653995400E+02  0.28170900858E+02  0.00000000000E+00 0. -1.
</event>
<event>
 8    1  0.2512298E-006  0.9118800E+02  0.7816164E-02  0.1184000E+00
        -11   -1    0    0    0    0  0.00000000000E+00  0.00000000000E+00  0.45593999997E+02  0.45594000000E+02  0.51100000000E-03 0.  1.
         11   -1    0    0    0    0 -0.00000000000E+00 -0.00000000000E+00 -0.45593999997E+02  0.45594000000E+02  0.51100000000E-03 0. -1.
         23    2    1    2    0    0  0.35527136788E-14 -0.44408920985E-15  0.00000000000E+00  0.91188000000E+02  0.91188000000E+02 0.  0.
    9900012    2    3    3    0    0 -0.30744486636E+02 -0.29352054412E+01  0.20048446480E+02  0.54367094311E+02  0.40000023100E+02 0.  0.
         12    1    3    3    0    0  0.30744486636E+02  0.29352054412E+01 -0.20048446480E+02  0.36820905689E+02  0.00000000000E+00 0. -1.
         11    1    4    4    0    0 -0.17409769040E+02 -0.57253916152E+01  0.72106138272E+01  0.19694494642E+02  0.51100000000E-03 0. -1.
        -11    1    4    4    0    0 -0.98233143498E+01 -0.53044055184E+01 -0.68500271233E+01  0.13097980553E+02  0.51100000000E-03 0.  1.
        -12    1    4    4    0    0 -0.35114032462E+01  0.80945916924E+01  0.19687859776E+02  0.21574619116E+02  0.00000000000E+00 0.  1.
</event>
<event>
 8    1  0.2512298E-006  0.9118800E+02  0.7816164E-02  0.1184000E+00
        -11   -1    0    0    0    0  0.00000000000E+00  0.00000000000E+00  0.45593999997E+02  0.45594000000E+02  0.51100000000E-03 0. -1.
         11   -1    0    0    0    0 -0.00000000000E+00 -0.00000000000E+00 -0.45593999997E+02  0.45594000000E+02  0.51100000000E-03 0.  1.
         23    2    1    2    0    0  0.35527136788E-14  0.00000000000E+00  0.17763568394E-14  0.91188000000E+02  0.91188000000E+02 0.  0.
    9900012    2    3    3    0    0 -0.10769374340E+02 -0.33773107393E+02 -0.99588031899E+01  0.54367082472E+02  0.39999996111E+02 0.  0.
        -12    1    3    3    0    0  0.10769374340E+02  0.33773107393E+02  0.99588031899E+01  0.36820917528E+02  0.00000000000E+00 0.  1.
         11    1    4    4    0    0  0.26211843844E+01 -0.69885281352E-01  0.23410016268E+01  0.35150790044E+01  0.51100000000E-03 0. -1.
        -11    1    4    4    0    0  0.75693396297E+01 -0.33179140433E+01 -0.11204191017E+02  0.13922548353E+02  0.51100000000E-03 0.  1.
         12    1    4    4    0    0 -0.20959898354E+02 -0.30385308068E+02 -0.10956137993E+01  0.36929455114E+02  0.00000000000E+00 0. -1.
</event>
<event>
 8    1  0.2512298E-006  0.9118800E+02  0.7816164E-02  0.1184000E+00
        -11   -1    0    0    0    0  0.00000000000E+00  0.00000000000E+00  0.45593999997E+02  0.45594000000E+02  0.51100000000E-03 0.  1.
         11   -1    0    0    0    0 -0.00000000000E+00 -0.00000000000E+00 -0.45593999997E+02  0.45594000000E+02  0.51100000000E-03 0. -1.
         23    2    1    2    0    0  0.00000000000E+00  0.00000000000E+00  0.00000000000E+00  0.91188000000E+02  0.91188000000E+02 0.  0.
    9900012    2    3    3    0    0 -0.25150652436E+02 -0.20478624287E+02  0.17431222263E+02  0.54367124396E+02  0.40000091686E+02 0.  0.
         12    1    3    3    0    0  0.25150652436E+02  0.20478624287E+02 -0.17431222263E+02  0.36820875604E+02  0.00000000000E+00 0. -1.
         11    1    4    4    0    0 -0.17293112602E+02  0.20795289806E+01  0.13194102557E+02  0.21850870161E+02  0.51100000000E-03 0. -1.
        -11    1    4    4    0    0  0.59572550708E+01 -0.12553715398E+02  0.64443955313E+01  0.15317143738E+02  0.51100000000E-03 0.  1.
         12    1    4    4    0    0 -0.13814794904E+02 -0.10004437869E+02 -0.22072758246E+01  0.17199110497E+02  0.00000000000E+00 0. -1.
</event>
<event>
 8    1  0.2512298E-006  0.9118800E+02  0.7816164E-02  0.1184000E+00
        -11   -1    0    0    0    0  0.00000000000E+00  0.00000000000E+00  0.45593999997E+02  0.45594000000E+02  0.51100000000E-03 0. -1.
         11   -1    0    0    0    0 -0.00000000000E+00 -0.00000000000E+00 -0.45593999997E+02  0.45594000000E+02  0.51100000000E-03 0.  1.
         23    2    1    2    0    0  0.00000000000E+00 -0.88817841970E-15  0.00000000000E+00  0.91188000000E+02  0.91188000000E+02 0.  0.
    9900012    2    3    3    0    0 -0.70672902843E+01 -0.28517257009E+00  0.36135130140E+02  0.54367142520E+02  0.40000133002E+02 0.  0.
        -12    1    3    3    0    0  0.70672902843E+01  0.28517257009E+00 -0.36135130140E+02  0.36820857480E+02  0.00000000000E+00 0.  1.
         11    1    4    4    0    0 -0.57372266593E+01  0.14896309261E+02  0.11913849912E+02  0.19918725344E+02  0.51100000000E-03 0.  1.
        -11    1    4    4    0    0 -0.10843375716E+01 -0.91319944999E+01  0.26445112195E+02  0.27998447650E+02  0.51100000000E-03 0. -1.
        -12    1    4    4    0    0 -0.24572605340E+00 -0.60494873314E+01 -0.22238319674E+01  0.64499695259E+01  0.00000000000E+00 0.  1.
</event>
<event>
 8    1  0.2512298E-006  0.9118800E+02  0.7816164E-02  0.1184000E+00
        -11   -1    0    0    0    0  0.00000000000E+00  0.00000000000E+00  0.45593999997E+02  0.45594000000E+02  0.51100000000E-03 0.  1.
         11   -1    0    0    0    0 -0.00000000000E+00 -0.00000000000E+00 -0.45593999997E+02  0.45594000000E+02  0.51100000000E-03 0. -1.
         23    2    1    2    0    0  0.00000000000E+00  0.00000000000E+00 -0.35527136788E-14  0.91188000000E+02  0.91188000000E+02 0.  0.
    9900012    2    3    3    0    0 -0.65717065727E+01 -0.34618260153E+02  0.10685125142E+02  0.54367039087E+02  0.39999897206E+02 0.  0.
         12    1    3    3    0    0  0.65717065727E+01  0.34618260153E+02 -0.10685125142E+02  0.36820960913E+02  0.00000000000E+00 0. -1.
         11    1    4    4    0    0 -0.22079631238E+01  0.18797111968E+01  0.38036786854E+01  0.47829266294E+01  0.51100000000E-03 0. -1.
        -11    1    4    4    0    0 -0.68788851139E+01 -0.38686669509E+02 -0.27522789255E+01  0.39389751175E+02  0.51100000000E-03 0.  1.
        -12    1    4    4    0    0  0.25151416650E+01  0.21886981594E+01  0.96337253816E+01  0.10194361282E+02  0.00000000000E+00 0.  1.
</event>
<event>
 8    1  0.2512298E-006  0.9118800E+02  0.7816164E-02  0.1184000E+00
        -11   -1    0    0    0    0  0.00000000000E+00  0.00000000000E+00  0.45593999997E+02  0.45594000000E+02  0.51100000000E-03 0. -1.
         11   -1    0    0    0    0 -0.00000000000E+00 -0.00000000000E+00 -0.45593999997E+02  0.45594000000E+02  0.51100000000E-03 0.  1.
         23    2    1    2    0    0 -0.35527136788E-14  0.00000000000E+00  0.88817841970E-15  0.91188000000E+02  0.91188000000E+02 0.  0.
    9900012    2    3    3    0    0  0.23579978126E+02 -0.27501996317E+02 -0.65882169307E+01  0.54367085125E+02  0.40000002161E+02 0.  0.
        -12    1    3    3    0    0 -0.23579978126E+02  0.27501996317E+02  0.65882169307E+01  0.36820914875E+02  0.00000000000E+00 0.  1.
         11    1    4    4    0    0  0.12652833223E+02 -0.54630211467E+01 -0.15165332059E+02  0.20492098119E+02  0.51100000000E-03 0. -1.
        -11    1    4    4    0    0  0.11873877983E+02 -0.40827331045E+01  0.96884401508E+01  0.15859494341E+02  0.51100000000E-03 0.  1.
         12    1    4    4    0    0 -0.94673307887E+00 -0.17956242066E+02 -0.11113250226E+01  0.18015492665E+02  0.00000000000E+00 0. -1.
</event>
<event>
 8    1  0.2512298E-006  0.9118800E+02  0.7816164E-02  0.1184000E+00
        -11   -1    0    0    0    0  0.00000000000E+00  0.00000000000E+00  0.45593999997E+02  0.45594000000E+02  0.51100000000E-03 0.  1.
         11   -1    0    0    0    0 -0.00000000000E+00 -0.00000000000E+00 -0.45593999997E+02  0.45594000000E+02  0.51100000000E-03 0. -1.
         23    2    1    2    0    0  0.00000000000E+00 -0.88817841970E-15  0.00000000000E+00  0.91188000000E+02  0.91188000000E+02 0.  0.
    9900012    2    3    3    0    0  0.98586872422E+01  0.19025243595E+01  0.35425512210E+02  0.54367078930E+02  0.39999988038E+02 0.  0.
         12    1    3    3    0    0 -0.98586872422E+01 -0.19025243595E+01 -0.35425512210E+02  0.36820921070E+02  0.00000000000E+00 0. -1.
         11    1    4    4    0    0  0.84399811048E+01 -0.22906587170E+01  0.26804391362E+01  0.91468657271E+01  0.51100000000E-03 0. -1.
        -11    1    4    4    0    0  0.70914839575E+01 -0.12008723029E+02  0.13133631914E+02  0.19157005534E+02  0.51100000000E-03 0.  1.
        -12    1    4    4    0    0 -0.56727778200E+01  0.16201906106E+02  0.19611441159E+02  0.26063207669E+02  0.00000000000E+00 0.  1.
</event>
<event>
 8    1  0.2512298E-006  0.9118800E+02  0.7816164E-02  0.1184000E+00
        -11   -1    0    0    0    0  0.00000000000E+00  0.00000000000E+00  0.45593999997E+02  0.45594000000E+02  0.51100000000E-03 0.  1.
         11   -1    0    0    0    0 -0.00000000000E+00 -0.00000000000E+00 -0.45593999997E+02  0.45594000000E+02  0.51100000000E-03 0. -1.
         23    2    1    2    0    0  0.17763568394E-14  0.00000000000E+00  0.17763568394E-14  0.91188000000E+02  0.91188000000E+02 0.  0.
    9900012    2    3    3    0    0 -0.73263242496E+01 -0.32904392453E+02 -0.14812330923E+02  0.54367092663E+02  0.40000019345E+02 0.  0.
        -12    1    3    3    0    0  0.73263242496E+01  0.32904392453E+02  0.14812330923E+02  0.36820907337E+02  0.00000000000E+00 0.  1.
         11    1    4    4    0    0 -0.46848003373E+01 -0.27528391173E+02 -0.33812369441E+00  0.27926224282E+02  0.51100000000E-03 0. -1.
        -11    1    4    4    0    0 -0.26433181584E+01  0.58466050311E+00 -0.18851937832E+02  0.19045328012E+02  0.51100000000E-03 0.  1.
        -12    1    4    4    0    0  0.17942461243E-02 -0.59606617839E+01  0.43777306037E+01  0.73955403697E+01  0.00000000000E+00 0.  1.
</event>
<event>
 8    1  0.2512298E-006  0.9118800E+02  0.7816164E-02  0.1184000E+00
        -11   -1    0    0    0    0  0.00000000000E+00  0.00000000000E+00  0.45593999997E+02  0.45594000000E+02  0.51100000000E-03 0.  1.
         11   -1    0    0    0    0 -0.00000000000E+00 -0.00000000000E+00 -0.45593999997E+02  0.45594000000E+02  0.51100000000E-03 0. -1.
         23    2    1    2    0    0  0.71054273576E-14 -0.17763568394E-14  0.00000000000E+00  0.91188000000E+02  0.91188000000E+02 0.  0.
    9900012    2    3    3    0    0  0.34444198610E+02  0.10052451924E+02 -0.82658936555E+01  0.54367087389E+02  0.40000007321E+02 0.  0.
        -12    1    3    3    0    0 -0.34444198610E+02 -0.10052451924E+02  0.82658936555E+01  0.36820912611E+02  0.00000000000E+00 0.  1.
         11    1    4    4    0    0  0.22858797962E+02 -0.10747511722E+02 -0.62455495874E+01  0.26020002736E+02  0.51100000000E-03 0. -1.
        -11    1    4    4    0    0  0.75991058843E+01  0.30231786867E+01  0.40734668877E+01  0.91366926379E+01  0.51100000000E-03 0.  1.
        -12    1    4    4    0    0  0.39862947637E+01  0.17776784959E+02 -0.60938109557E+01  0.19210392015E+02  0.00000000000E+00 0.  1.
</event>
<event>
 8    1  0.2512298E-006  0.9118800E+02  0.7816164E-02  0.1184000E+00
        -11   -1    0    0    0    0  0.00000000000E+00  0.00000000000E+00  0.45593999997E+02  0.45594000000E+02  0.51100000000E-03 0.  1.
         11   -1    0    0    0    0 -0.00000000000E+00 -0.00000000000E+00 -0.45593999997E+02  0.45594000000E+02  0.51100000000E-03 0. -1.
         23    2    1    2    0    0  0.00000000000E+00 -0.35527136788E-14  0.35527136788E-14  0.91188000000E+02  0.91188000000E+02 0.  0.
    9900012    2    3    3    0    0 -0.16690610088E+02 -0.27230180717E+02 -0.18322648153E+02  0.54367100469E+02  0.40000037138E+02 0.  0.
        -12    1    3    3    0    0  0.16690610088E+02  0.27230180717E+02  0.18322648153E+02  0.36820899531E+02  0.00000000000E+00 0.  1.
         11    1    4    4    0    0 -0.96411854837E+01 -0.11124796451E+02  0.76351569424E+01  0.16583400598E+02  0.51100000000E-03 0. -1.
        -11    1    4    4    0    0  0.31761032102E+01 -0.44730505545E+01  0.19863874964E+01  0.58345135541E+01  0.51100000000E-03 0.  1.
         12    1    4    4    0    0 -0.10225527814E+02 -0.11632333711E+02 -0.27944192592E+02  0.31949186316E+02  0.00000000000E+00 0. -1.
</event>
<event>
 8    1  0.2512298E-006  0.9118800E+02  0.7816164E-02  0.1184000E+00
        -11   -1    0    0    0    0  0.00000000000E+00  0.00000000000E+00  0.45593999997E+02  0.45594000000E+02  0.51100000000E-03 0.  1.
         11   -1    0    0    0    0 -0.00000000000E+00 -0.00000000000E+00 -0.45593999997E+02  0.45594000000E+02  0.51100000000E-03 0. -1.
         23    2    1    2    0    0  0.71054273576E-14 -0.13322676296E-14  0.00000000000E+00  0.91188000000E+02  0.91188000000E+02 0.  0.
    9900012    2    3    3    0    0 -0.34706197065E+02 -0.16011869410E+01 -0.12194059516E+02  0.54367095587E+02  0.40000026010E+02 0.  0.
        -12    1    3    3    0    0  0.34706197065E+02  0.16011869410E+01  0.12194059516E+02  0.36820904413E+02  0.00000000000E+00 0.  1.
         11    1    4    4    0    0 -0.12616951748E+02 -0.11045353106E+02 -0.40430384034E+01  0.17249158137E+02  0.51100000000E-03 0. -1.
        -11    1    4    4    0    0  0.93975307111E+00 -0.49656891284E+00 -0.11732559248E+02  0.11780605387E+02  0.51100000000E-03 0.  1.
        -12    1    4    4    0    0 -0.23028998388E+02  0.99407350782E+01  0.35815381351E+01  0.25337332063E+02  0.00000000000E+00 0.  1.
</event>
<event>
 8    1  0.2512298E-006  0.9118800E+02  0.7816164E-02  0.1184000E+00
        -11   -1    0    0    0    0  0.00000000000E+00  0.00000000000E+00  0.45593999997E+02  0.45594000000E+02  0.51100000000E-03 0. -1.
         11   -1    0    0    0    0 -0.00000000000E+00 -0.00000000000E+00 -0.45593999997E+02  0.45594000000E+02  0.51100000000E-03 0.  1.
         23    2    1    2    0    0  0.88817841970E-15  0.00000000000E+00  0.17763568394E-14  0.91188000000E+02  0.91188000000E+02 0.  0.
    9900012    2    3    3    0    0 -0.56155965082E+01  0.33526857230E+02  0.14149017529E+02  0.54367085062E+02  0.40000002016E+02 0.  0.
        -12    1    3    3    0    0  0.56155965082E+01 -0.33526857230E+02 -0.14149017529E+02  0.36820914938E+02  0.00000000000E+00 0.  1.
         11    1    4    4    0    0 -0.62547238064E+00  0.14204052824E+02 -0.11052118504E+02  0.18008210794E+02  0.51100000000E-03 0. -1.
        -11    1    4    4    0    0  0.24511249270E+01 -0.21672719980E+01  0.18295173114E+01  0.37486284392E+01  0.51100000000E-03 0.  1.
         12    1    4    4    0    0 -0.74412490546E+01  0.21490076404E+02  0.23371618721E+02  0.32610245828E+02  0.00000000000E+00 0. -1.
</event>
<event>
 8    1  0.2512298E-006  0.9118800E+02  0.7816164E-02  0.1184000E+00
        -11   -1    0    0    0    0  0.00000000000E+00  0.00000000000E+00  0.45593999997E+02  0.45594000000E+02  0.51100000000E-03 0.  1.
         11   -1    0    0    0    0 -0.00000000000E+00 -0.00000000000E+00 -0.45593999997E+02  0.45594000000E+02  0.51100000000E-03 0. -1.
         23    2    1    2    0    0 -0.71054273576E-14 -0.22204460493E-15  0.00000000000E+00  0.91188000000E+02  0.91188000000E+02 0.  0.
    9900012    2    3    3    0    0  0.34917473828E+02  0.14825603010E+01 -0.11591050953E+02  0.54367076251E+02  0.39999981928E+02 0.  0.
        -12    1    3    3    0    0 -0.34917473828E+02 -0.14825603010E+01  0.11591050953E+02  0.36820923749E+02  0.00000000000E+00 0.  1.
         11    1    4    4    0    0 -0.22530857554E+01 -0.56195477325E+01 -0.52259004978E+01  0.79978589893E+01  0.51100000000E-03 0. -1.
        -11    1    4    4    0    0  0.88471481419E+01 -0.62221614368E+01  0.63973488357E+01  0.12566359679E+02  0.51100000000E-03 0.  1.
         12    1    4    4    0    0  0.28323411442E+02  0.13324269470E+02 -0.12762499291E+02  0.33802857582E+02  0.00000000000E+00 0. -1.
</event>
<event>
 8    1  0.2512298E-006  0.9118800E+02  0.7816164E-02  0.1184000E+00
        -11   -1    0    0    0    0  0.00000000000E+00  0.00000000000E+00  0.45593999997E+02  0.45594000000E+02  0.51100000000E-03 0.  1.
         11   -1    0    0    0    0 -0.00000000000E+00 -0.00000000000E+00 -0.45593999997E+02  0.45594000000E+02  0.51100000000E-03 0. -1.
         23    2    1    2    0    0  0.00000000000E+00  0.00000000000E+00 -0.35527136788E-14  0.91188000000E+02  0.91188000000E+02 0.  0.
    9900012    2    3    3    0    0  0.22014190846E+02 -0.12689802477E+02  0.26648007941E+02  0.54367190494E+02  0.40000242367E+02 0.  0.
         12    1    3    3    0    0 -0.22014190846E+02  0.12689802477E+02 -0.26648007941E+02  0.36820809506E+02  0.00000000000E+00 0. -1.
         11    1    4    4    0    0  0.35958773743E+01 -0.51666059807E+01 -0.75975857064E+01  0.98664816565E+01  0.51100000000E-03 0. -1.
        -11    1    4    4    0    0  0.29730101097E+00 -0.44015301714E+01 -0.11979025506E+01  0.45713046850E+01  0.51100000000E-03 0.  1.
         12    1    4    4    0    0  0.18121012460E+02 -0.31216663252E+01  0.35443496198E+02  0.39929404152E+02  0.00000000000E+00 0. -1.
</event>
<event>
 8    1  0.2512298E-006  0.9118800E+02  0.7816164E-02  0.1184000E+00
        -11   -1    0    0    0    0  0.00000000000E+00  0.00000000000E+00  0.45593999997E+02  0.45594000000E+02  0.51100000000E-03 0. -1.
         11   -1    0    0    0    0 -0.00000000000E+00 -0.00000000000E+00 -0.45593999997E+02  0.45594000000E+02  0.51100000000E-03 0.  1.
         23    2    1    2    0    0  0.41633363423E-16  0.35527136788E-14  0.00000000000E+00  0.91188000000E+02  0.91188000000E+02 0.  0.
    9900012    2    3    3    0    0  0.23654222264E-01  0.20917277675E+02  0.30302600956E+02  0.54367072668E+02  0.39999973762E+02 0.  0.
        -12    1    3    3    0    0 -0.23654222264E-01 -0.20917277675E+02 -0.30302600956E+02  0.36820927332E+02  0.00000000000E+00 0.  1.
         11    1    4    4    0    0  0.19719946657E+01 -0.48539364012E+01  0.87546346646E+01  0.10202602115E+02  0.51100000000E-03 0. -1.
        -11    1    4    4    0    0 -0.30375802272E+01  0.27525762972E+02  0.58153232809E+01  0.28296863889E+02  0.51100000000E-03 0.  1.
        -12    1    4    4    0    0  0.10892397837E+01 -0.17545488965E+01  0.15732643011E+02  0.15867606664E+02  0.00000000000E+00 0.  1.
</event>
<event>
 8    1  0.2512298E-006  0.9118800E+02  0.7816164E-02  0.1184000E+00
        -11   -1    0    0    0    0  0.00000000000E+00  0.00000000000E+00  0.45593999997E+02  0.45594000000E+02  0.51100000000E-03 0.  1.
         11   -1    0    0    0    0 -0.00000000000E+00 -0.00000000000E+00 -0.45593999997E+02  0.45594000000E+02  0.51100000000E-03 0. -1.
         23    2    1    2    0    0 -0.35527136788E-14 -0.13322676296E-14 -0.71054273576E-14  0.91188000000E+02  0.91188000000E+02 0.  0.
    9900012    2    3    3    0    0  0.17835738659E+02  0.22365306920E+01  0.32135123704E+02  0.54367057338E+02  0.39999938814E+02 0.  0.
         12    1    3    3    0    0 -0.17835738659E+02 -0.22365306920E+01 -0.32135123704E+02  0.36820942662E+02  0.00000000000E+00 0. -1.
         11    1    4    4    0    0  0.60221058023E+01 -0.79020936982E+01  0.68694454938E+01  0.12078829611E+02  0.51100000000E-03 0. -1.
        -11    1    4    4    0    0  0.58917280126E+01  0.14126820330E+02  0.30029386728E+02  0.33705245573E+02  0.51100000000E-03 0.  1.
         12    1    4    4    0    0  0.59219048437E+01 -0.39881959396E+01 -0.47637085179E+01  0.85829821551E+01  0.00000000000E+00 0. -1.
</event>
<event>
 8    1  0.2512298E-006  0.9118800E+02  0.7816164E-02  0.1184000E+00
        -11   -1    0    0    0    0  0.00000000000E+00  0.00000000000E+00  0.45593999997E+02  0.45594000000E+02  0.51100000000E-03 0. -1.
         11   -1    0    0    0    0 -0.00000000000E+00 -0.00000000000E+00 -0.45593999997E+02  0.45594000000E+02  0.51100000000E-03 0.  1.
         23    2    1    2    0    0  0.00000000000E+00 -0.35527136788E-14  0.00000000000E+00  0.91188000000E+02  0.91188000000E+02 0.  0.
    9900012    2    3    3    0    0 -0.33165848430E+02  0.13689119063E+02 -0.82712917291E+01  0.54367085432E+02  0.40000002859E+02 0.  0.
        -12    1    3    3    0    0  0.33165848430E+02 -0.13689119063E+02  0.82712917291E+01  0.36820914568E+02  0.00000000000E+00 0.  1.
         11    1    4    4    0    0  0.31433202654E+01 -0.66333065400E+01 -0.47977330002E+01  0.87692337263E+01  0.51100000000E-03 0. -1.
        -11    1    4    4    0    0 -0.26290110818E+01 -0.24959417844E+00  0.46097506510E+01  0.53126074434E+01  0.51100000000E-03 0.  1.
        -12    1    4    4    0    0 -0.33680157613E+02  0.20572019781E+02 -0.80833093799E+01  0.40285244262E+02  0.00000000000E+00 0.  1.
</event>
<event>
 8    1  0.2512298E-006  0.9118800E+02  0.7816164E-02  0.1184000E+00
        -11   -1    0    0    0    0  0.00000000000E+00  0.00000000000E+00  0.45593999997E+02  0.45594000000E+02  0.51100000000E-03 0.  1.
         11   -1    0    0    0    0 -0.00000000000E+00 -0.00000000000E+00 -0.45593999997E+02  0.45594000000E+02  0.51100000000E-03 0. -1.
         23    2    1    2    0    0  0.00000000000E+00  0.00000000000E+00  0.35527136788E-14  0.91188000000E+02  0.91188000000E+02 0.  0.
    9900012    2    3    3    0    0 -0.33400565199E+02  0.64877835175E+01 -0.14074472203E+02  0.54367083955E+02  0.39999999493E+02 0.  0.
        -12    1    3    3    0    0  0.33400565199E+02 -0.64877835175E+01  0.14074472203E+02  0.36820916045E+02  0.00000000000E+00 0.  1.
         11    1    4    4    0    0 -0.15312187646E+02  0.12136991444E+02 -0.14670205271E+02  0.24433267788E+02  0.51100000000E-03 0. -1.
        -11    1    4    4    0    0 -0.74479080026E+01 -0.10461691984E+02 -0.82674371942E+01  0.15273141484E+02  0.51100000000E-03 0.  1.
        -12    1    4    4    0    0 -0.10640469550E+02  0.48124840574E+01  0.88631702627E+01  0.14660674683E+02  0.00000000000E+00 0.  1.
</event>
<event>
 8    1  0.2512298E-006  0.9118800E+02  0.7816164E-02  0.1184000E+00
        -11   -1    0    0    0    0  0.00000000000E+00  0.00000000000E+00  0.45593999997E+02  0.45594000000E+02  0.51100000000E-03 0.  1.
         11   -1    0    0    0    0 -0.00000000000E+00 -0.00000000000E+00 -0.45593999997E+02  0.45594000000E+02  0.51100000000E-03 0. -1.
         23    2    1    2    0    0  0.00000000000E+00  0.13322676296E-14  0.17763568394E-14  0.91188000000E+02  0.91188000000E+02 0.  0.
    9900012    2    3    3    0    0 -0.33419002359E+02  0.35306316289E+01  0.15049586502E+02  0.54367012340E+02  0.39999836232E+02 0.  0.
         12    1    3    3    0    0  0.33419002359E+02 -0.35306316289E+01 -0.15049586502E+02  0.36820987660E+02  0.00000000000E+00 0. -1.
         11    1    4    4    0    0 -0.33590544390E+01  0.10466577747E+02  0.85548904439E+01  0.13929057658E+02  0.51100000000E-03 0. -1.
        -11    1    4    4    0    0 -0.28412841063E+02  0.41260348982E+01  0.41242494213E+01  0.29005570755E+02  0.51100000000E-03 0.  1.
        -12    1    4    4    0    0 -0.16471068561E+01 -0.11061981017E+02  0.23704466372E+01  0.11432383928E+02  0.00000000000E+00 0.  1.
</event>
<event>
 8    1  0.2512298E-006  0.9118800E+02  0.7816164E-02  0.1184000E+00
        -11   -1    0    0    0    0  0.00000000000E+00  0.00000000000E+00  0.45593999997E+02  0.45594000000E+02  0.51100000000E-03 0.  1.
         11   -1    0    0    0    0 -0.00000000000E+00 -0.00000000000E+00 -0.45593999997E+02  0.45594000000E+02  0.51100000000E-03 0. -1.
         23    2    1    2    0    0  0.00000000000E+00 -0.71054273576E-14  0.00000000000E+00  0.91188000000E+02  0.91188000000E+02 0.  0.
    9900012    2    3    3    0    0 -0.27569192567E+02  0.24059291754E+02 -0.41071772693E+01  0.54367098278E+02  0.40000032144E+02 0.  0.
        -12    1    3    3    0    0  0.27569192567E+02 -0.24059291754E+02  0.41071772693E+01  0.36820901722E+02  0.00000000000E+00 0.  1.
         11    1    4    4    0    0 -0.17786666429E+01 -0.20645684657E+00 -0.54900487029E+01  0.57746787337E+01  0.51100000000E-03 0. -1.
        -11    1    4    4    0    0  0.14015113692E+01 -0.64310567524E+01 -0.32180814526E+01  0.73265799366E+01  0.51100000000E-03 0.  1.
         12    1    4    4    0    0 -0.27192037293E+02  0.30696805353E+02  0.46009528862E+01  0.41265839608E+02  0.00000000000E+00 0. -1.
</event>
<event>
 8    1  0.2512298E-006  0.9118800E+02  0.7816164E-02  0.1184000E+00
        -11   -1    0    0    0    0  0.00000000000E+00  0.00000000000E+00  0.45593999997E+02  0.45594000000E+02  0.51100000000E-03 0. -1.
         11   -1    0    0    0    0 -0.00000000000E+00 -0.00000000000E+00 -0.45593999997E+02  0.45594000000E+02  0.51100000000E-03 0.  1.
         23    2    1    2    0    0  0.00000000000E+00  0.00000000000E+00  0.00000000000E+00  0.91188000000E+02  0.91188000000E+02 0.  0.
    9900012    2    3    3    0    0 -0.30499717733E+02  0.18133288193E+02  0.98351632719E+01  0.54367090735E+02  0.40000014950E+02 0.  0.
        -12    1    3    3    0    0  0.30499717733E+02 -0.18133288193E+02 -0.98351632719E+01  0.36820909265E+02  0.00000000000E+00 0.  1.
         11    1    4    4    0    0 -0.12420033544E+02  0.87530402878E+01  0.10558832845E+02  0.18503024045E+02  0.51100000000E-03 0. -1.
        -11    1    4    4    0    0 -0.24028098533E+02  0.33720365680E+01  0.60777599511E+01  0.25013182844E+02  0.51100000000E-03 0.  1.
        -12    1    4    4    0    0  0.59484143434E+01  0.60082113371E+01 -0.68014295240E+01  0.10850883846E+02  0.00000000000E+00 0.  1.
</event>
<event>
 8    1  0.2512298E-006  0.9118800E+02  0.7816164E-02  0.1184000E+00
        -11   -1    0    0    0    0  0.00000000000E+00  0.00000000000E+00  0.45593999997E+02  0.45594000000E+02  0.51100000000E-03 0.  1.
         11   -1    0    0    0    0 -0.00000000000E+00 -0.00000000000E+00 -0.45593999997E+02  0.45594000000E+02  0.51100000000E-03 0. -1.
         23    2    1    2    0    0  0.00000000000E+00  0.00000000000E+00  0.00000000000E+00  0.91188000000E+02  0.91188000000E+02 0.  0.
    9900012    2    3    3    0    0  0.22809513067E+02 -0.36919825491E+01  0.28668364837E+02  0.54367085238E+02  0.40000002417E+02 0.  0.
         12    1    3    3    0    0 -0.22809513067E+02  0.36919825491E+01 -0.28668364837E+02  0.36820914762E+02  0.00000000000E+00 0. -1.
         11    1    4    4    0    0  0.50538654002E+01  0.13228130033E+01 -0.67437957247E+01  0.85305434037E+01  0.51100000000E-03 0. -1.
        -11    1    4    4    0    0  0.15221454141E+02 -0.33984688288E+01  0.38492863035E+02  0.41532430238E+02  0.51100000000E-03 0.  1.
        -12    1    4    4    0    0  0.25341935257E+01 -0.16163267237E+01 -0.30807024737E+01  0.43041115965E+01  0.00000000000E+00 0.  1.
</event>
<event>
 8    1  0.2512298E-006  0.9118800E+02  0.7816164E-02  0.1184000E+00
        -11   -1    0    0    0    0  0.00000000000E+00  0.00000000000E+00  0.45593999997E+02  0.45594000000E+02  0.51100000000E-03 0. -1.
         11   -1    0    0    0    0 -0.00000000000E+00 -0.00000000000E+00 -0.45593999997E+02  0.45594000000E+02  0.51100000000E-03 0.  1.
         23    2    1    2    0    0  0.00000000000E+00  0.00000000000E+00 -0.17763568394E-14  0.91188000000E+02  0.91188000000E+02 0.  0.
    9900012    2    3    3    0    0  0.26391695670E+02 -0.22454064115E+02 -0.12452729740E+02  0.54367121770E+02  0.40000085700E+02 0.  0.
         12    1    3    3    0    0 -0.26391695670E+02  0.22454064115E+02  0.12452729740E+02  0.36820878230E+02  0.00000000000E+00 0. -1.
         11    1    4    4    0    0  0.54429699395E+01 -0.18541512990E+02 -0.16786991100E+02  0.25597200944E+02  0.51100000000E-03 0.  1.
        -11    1    4    4    0    0  0.13507617516E+02  0.53799937127E+01 -0.29188944780E+01  0.14829700218E+02  0.51100000000E-03 0. -1.
        -12    1    4    4    0    0  0.74411082141E+01 -0.92925448381E+01  0.72531558375E+01  0.13940220609E+02  0.00000000000E+00 0.  1.
</event>
<event>
 8    1  0.2512298E-006  0.9118800E+02  0.7816164E-02  0.1184000E+00
        -11   -1    0    0    0    0  0.00000000000E+00  0.00000000000E+00  0.45593999997E+02  0.45594000000E+02  0.51100000000E-03 0.  1.
         11   -1    0    0    0    0 -0.00000000000E+00 -0.00000000000E+00 -0.45593999997E+02  0.45594000000E+02  0.51100000000E-03 0. -1.
         23    2    1    2    0    0  0.00000000000E+00 -0.88817841970E-15  0.00000000000E+00  0.91188000000E+02  0.91188000000E+02 0.  0.
    9900012    2    3    3    0    0  0.12246186664E+02 -0.60159733580E+01  0.34199704093E+02  0.54367071395E+02  0.39999970860E+02 0.  0.
         12    1    3    3    0    0 -0.12246186664E+02  0.60159733580E+01 -0.34199704093E+02  0.36820928605E+02  0.00000000000E+00 0. -1.
         11    1    4    4    0    0  0.86553836037E+01  0.12446234527E+02  0.50413087486E+01  0.15976207728E+02  0.51100000000E-03 0. -1.
        -11    1    4    4    0    0  0.28939938766E+01 -0.22819849346E+01  0.18819249738E+02  0.19176725914E+02  0.51100000000E-03 0.  1.
        -12    1    4    4    0    0  0.69680918365E+00 -0.16180222950E+02  0.10339145606E+02  0.19214137754E+02  0.00000000000E+00 0.  1.
</event>
<event>
 8    1  0.2512298E-006  0.9118800E+02  0.7816164E-02  0.1184000E+00
        -11   -1    0    0    0    0  0.00000000000E+00  0.00000000000E+00  0.45593999997E+02  0.45594000000E+02  0.51100000000E-03 0.  1.
         11   -1    0    0    0    0 -0.00000000000E+00 -0.00000000000E+00 -0.45593999997E+02  0.45594000000E+02  0.51100000000E-03 0. -1.
         23    2    1    2    0    0  0.88817841970E-15  0.00000000000E+00  0.35527136788E-14  0.91188000000E+02  0.91188000000E+02 0.  0.
    9900012    2    3    3    0    0 -0.74155612234E+01 -0.19006882464E+02 -0.30651706280E+02  0.54367092527E+02  0.40000019035E+02 0.  0.
        -12    1    3    3    0    0  0.74155612234E+01  0.19006882464E+02  0.30651706280E+02  0.36820907473E+02  0.00000000000E+00 0.  1.
         11    1    4    4    0    0 -0.89050344528E+01 -0.17981052172E+02 -0.20373361107E+02  0.28595309386E+02  0.51100000000E-03 0. -1.
        -11    1    4    4    0    0 -0.11021933392E+02  0.16778780404E+00 -0.55703654748E+01  0.12350714159E+02  0.51100000000E-03 0.  1.
         12    1    4    4    0    0  0.12511406621E+02 -0.11936180958E+01 -0.47079796982E+01  0.13421068983E+02  0.00000000000E+00 0. -1.
</event>
<event>
 8    1  0.2512298E-006  0.9118800E+02  0.7816164E-02  0.1184000E+00
        -11   -1    0    0    0    0  0.00000000000E+00  0.00000000000E+00  0.45593999997E+02  0.45594000000E+02  0.51100000000E-03 0.  1.
         11   -1    0    0    0    0 -0.00000000000E+00 -0.00000000000E+00 -0.45593999997E+02  0.45594000000E+02  0.51100000000E-03 0. -1.
         23    2    1    2    0    0  0.00000000000E+00  0.00000000000E+00 -0.35527136788E-14  0.91188000000E+02  0.91188000000E+02 0.  0.
    9900012    2    3    3    0    0 -0.10945719997E+02 -0.17252965412E+02  0.30631784161E+02  0.54367084712E+02  0.40000001218E+02 0.  0.
         12    1    3    3    0    0  0.10945719997E+02  0.17252965412E+02 -0.30631784161E+02  0.36820915288E+02  0.00000000000E+00 0. -1.
         11    1    4    4    0    0 -0.13485642540E+02 -0.14903205964E+02  0.92290290459E+01  0.22116579304E+02  0.51100000000E-03 0. -1.
        -11    1    4    4    0    0 -0.58978664631E+01 -0.83032401985E+01  0.19136672421E+02  0.21678119342E+02  0.51100000000E-03 0.  1.
        -12    1    4    4    0    0  0.84377890060E+01  0.59534807501E+01  0.22660826942E+01  0.10572386066E+02  0.00000000000E+00 0.  1.
</event>
<event>
 8    1  0.2512298E-006  0.9118800E+02  0.7816164E-02  0.1184000E+00
        -11   -1    0    0    0    0  0.00000000000E+00  0.00000000000E+00  0.45593999997E+02  0.45594000000E+02  0.51100000000E-03 0.  1.
         11   -1    0    0    0    0 -0.00000000000E+00 -0.00000000000E+00 -0.45593999997E+02  0.45594000000E+02  0.51100000000E-03 0. -1.
         23    2    1    2    0    0  0.00000000000E+00  0.88817841970E-15  0.00000000000E+00  0.91188000000E+02  0.91188000000E+02 0.  0.
    9900012    2    3    3    0    0  0.36225549696E+02  0.58093248304E+01  0.31211738981E+01  0.54367076162E+02  0.39999981728E+02 0.  0.
        -12    1    3    3    0    0 -0.36225549696E+02 -0.58093248304E+01 -0.31211738981E+01  0.36820923838E+02  0.00000000000E+00 0.  1.
         11    1    4    4    0    0  0.78074731758E+00  0.40325598583E+01  0.25474061874E+01  0.48332581071E+01  0.51100000000E-03 0.  1.
        -11    1    4    4    0    0  0.10524847259E+02 -0.14818868920E+02 -0.54870184313E+01  0.18986275502E+02  0.51100000000E-03 0. -1.
        -12    1    4    4    0    0  0.24919955119E+02  0.16595633892E+02  0.60607861420E+01  0.30547542554E+02  0.00000000000E+00 0.  1.
</event>
<event>
 8    1  0.2512298E-006  0.9118800E+02  0.7816164E-02  0.1184000E+00
        -11   -1    0    0    0    0  0.00000000000E+00  0.00000000000E+00  0.45593999997E+02  0.45594000000E+02  0.51100000000E-03 0. -1.
         11   -1    0    0    0    0 -0.00000000000E+00 -0.00000000000E+00 -0.45593999997E+02  0.45594000000E+02  0.51100000000E-03 0.  1.
         23    2    1    2    0    0  0.35527136788E-14 -0.17763568394E-14  0.00000000000E+00  0.91188000000E+02  0.91188000000E+02 0.  0.
    9900012    2    3    3    0    0  0.24500744268E+02 -0.12697633791E+02 -0.24377427229E+02  0.54367145422E+02  0.40000139618E+02 0.  0.
         12    1    3    3    0    0 -0.24500744268E+02  0.12697633791E+02  0.24377427229E+02  0.36820854578E+02  0.00000000000E+00 0. -1.
         11    1    4    4    0    0  0.55192978347E+01 -0.64711684311E+01  0.10323787853E+02  0.13376070624E+02  0.51100000000E-03 0. -1.
        -11    1    4    4    0    0  0.17941847804E+02 -0.59961962979E+01 -0.25618003655E+02  0.31845665077E+02  0.51100000000E-03 0.  1.
         12    1    4    4    0    0  0.10395986293E+01 -0.23026906240E+00 -0.90832114265E+01  0.91454097212E+01  0.00000000000E+00 0. -1.
</event>
<event>
 8    1  0.2512298E-006  0.9118800E+02  0.7816164E-02  0.1184000E+00
        -11   -1    0    0    0    0  0.00000000000E+00  0.00000000000E+00  0.45593999997E+02  0.45594000000E+02  0.51100000000E-03 0.  1.
         11   -1    0    0    0    0 -0.00000000000E+00 -0.00000000000E+00 -0.45593999997E+02  0.45594000000E+02  0.51100000000E-03 0. -1.
         23    2    1    2    0    0 -0.88817841970E-15  0.00000000000E+00  0.44408920985E-15  0.91188000000E+02  0.91188000000E+02 0.  0.
    9900012    2    3    3    0    0 -0.79908859059E+01 -0.35796463447E+02 -0.32463816170E+01  0.54367081401E+02  0.39999993669E+02 0.  0.
        -12    1    3    3    0    0  0.79908859059E+01  0.35796463447E+02  0.32463816170E+01  0.36820918599E+02  0.00000000000E+00 0.  1.
         11    1    4    4    0    0  0.14474381544E+02 -0.19960125076E+02 -0.69571159094E+01  0.25618660701E+02  0.51100000000E-03 0. -1.
        -11    1    4    4    0    0 -0.14166169208E+02 -0.87528650419E+01 -0.13780775759E+01  0.16709042299E+02  0.51100000000E-03 0.  1.
         12    1    4    4    0    0 -0.82990982415E+01 -0.70834733300E+01  0.50888118683E+01  0.12039378400E+02  0.00000000000E+00 0. -1.
</event>
<event>
 8    1  0.2512298E-006  0.9118800E+02  0.7816164E-02  0.1184000E+00
        -11   -1    0    0    0    0  0.00000000000E+00  0.00000000000E+00  0.45593999997E+02  0.45594000000E+02  0.51100000000E-03 0.  1.
         11   -1    0    0    0    0 -0.00000000000E+00 -0.00000000000E+00 -0.45593999997E+02  0.45594000000E+02  0.51100000000E-03 0. -1.
         23    2    1    2    0    0  0.00000000000E+00  0.00000000000E+00  0.00000000000E+00  0.91188000000E+02  0.91188000000E+02 0.  0.
    9900012    2    3    3    0    0 -0.98855366679E+01 -0.98278332576E+01  0.34080339728E+02  0.54367086136E+02  0.40000004465E+02 0.  0.
         12    1    3    3    0    0  0.98855366679E+01  0.98278332576E+01 -0.34080339728E+02  0.36820913864E+02  0.00000000000E+00 0. -1.
         11    1    4    4    0    0  0.75731516114E+01  0.75265285391E+01  0.49832382331E+01  0.11782780687E+02  0.51100000000E-03 0. -1.
        -11    1    4    4    0    0 -0.18611227686E+01 -0.12373632577E+02  0.20687751103E+02  0.24177543446E+02  0.51100000000E-03 0.  1.
        -12    1    4    4    0    0 -0.15597565511E+02 -0.49807292196E+01  0.84093503924E+01  0.18406762003E+02  0.00000000000E+00 0.  1.
</event>
<event>
 8    1  0.2512298E-006  0.9118800E+02  0.7816164E-02  0.1184000E+00
        -11   -1    0    0    0    0  0.00000000000E+00  0.00000000000E+00  0.45593999997E+02  0.45594000000E+02  0.51100000000E-03 0.  1.
         11   -1    0    0    0    0 -0.00000000000E+00 -0.00000000000E+00 -0.45593999997E+02  0.45594000000E+02  0.51100000000E-03 0. -1.
         23    2    1    2    0    0 -0.17763568394E-14  0.35527136788E-14  0.00000000000E+00  0.91188000000E+02  0.91188000000E+02 0.  0.
    9900012    2    3    3    0    0  0.15614287039E+02 -0.27769308485E+02 -0.18461769221E+02  0.54367117660E+02  0.40000076331E+02 0.  0.
        -12    1    3    3    0    0 -0.15614287039E+02  0.27769308485E+02  0.18461769221E+02  0.36820882340E+02  0.00000000000E+00 0.  1.
         11    1    4    4    0    0  0.12255074180E+02 -0.70260821220E+01 -0.13188769206E+02  0.19326052534E+02  0.51100000000E-03 0. -1.
        -11    1    4    4    0    0  0.12026515027E+02 -0.79033874860E+01  0.62945336275E+01  0.15707378881E+02  0.51100000000E-03 0.  1.
         12    1    4    4    0    0 -0.86673021676E+01 -0.12839838877E+02 -0.11567533643E+02  0.19333686245E+02  0.00000000000E+00 0. -1.
</event>
<event>
 8    1  0.2512298E-006  0.9118800E+02  0.7816164E-02  0.1184000E+00
        -11   -1    0    0    0    0  0.00000000000E+00  0.00000000000E+00  0.45593999997E+02  0.45594000000E+02  0.51100000000E-03 0. -1.
         11   -1    0    0    0    0 -0.00000000000E+00 -0.00000000000E+00 -0.45593999997E+02  0.45594000000E+02  0.51100000000E-03 0.  1.
         23    2    1    2    0    0  0.71054273576E-14 -0.88817841970E-15  0.35527136788E-14  0.91188000000E+02  0.91188000000E+02 0.  0.
    9900012    2    3    3    0    0  0.17609988182E+02  0.62094346420E+01  0.31735012215E+02  0.54367085256E+02  0.40000002458E+02 0.  0.
        -12    1    3    3    0    0 -0.17609988182E+02 -0.62094346420E+01 -0.31735012215E+02  0.36820914744E+02  0.00000000000E+00 0.  1.
         11    1    4    4    0    0  0.24366176950E+02  0.11395638403E+01  0.15487046005E+02  0.28893905571E+02  0.51100000000E-03 0. -1.
        -11    1    4    4    0    0 -0.92935790815E+01 -0.26232341885E+01  0.33096657564E+01  0.10208127029E+02  0.51100000000E-03 0.  1.
        -12    1    4    4    0    0  0.25373903133E+01  0.76931049903E+01  0.12938300453E+02  0.15265052656E+02  0.00000000000E+00 0.  1.
</event>
<event>
 8    1  0.2512298E-006  0.9118800E+02  0.7816164E-02  0.1184000E+00
        -11   -1    0    0    0    0  0.00000000000E+00  0.00000000000E+00  0.45593999997E+02  0.45594000000E+02  0.51100000000E-03 0. -1.
         11   -1    0    0    0    0 -0.00000000000E+00 -0.00000000000E+00 -0.45593999997E+02  0.45594000000E+02  0.51100000000E-03 0.  1.
         23    2    1    2    0    0  0.17763568394E-14  0.00000000000E+00  0.00000000000E+00  0.91188000000E+02  0.91188000000E+02 0.  0.
    9900012    2    3    3    0    0 -0.12626257429E+02 -0.11768993153E+02  0.32524565020E+02  0.54367096885E+02  0.40000028968E+02 0.  0.
        -12    1    3    3    0    0  0.12626257429E+02  0.11768993153E+02 -0.32524565020E+02  0.36820903115E+02  0.00000000000E+00 0.  1.
         11    1    4    4    0    0 -0.86733656267E+01 -0.79773324747E+01  0.33016681395E+02  0.35056616427E+02  0.51100000000E-03 0. -1.
        -11    1    4    4    0    0 -0.85479700292E+01  0.26179701781E+01  0.44675453367E+01  0.99940242680E+01  0.51100000000E-03 0.  1.
         12    1    4    4    0    0  0.45950782271E+01 -0.64096308562E+01 -0.49596617120E+01  0.93164561891E+01  0.00000000000E+00 0. -1.
</event>
<event>
 8    1  0.2512298E-006  0.9118800E+02  0.7816164E-02  0.1184000E+00
        -11   -1    0    0    0    0  0.00000000000E+00  0.00000000000E+00  0.45593999997E+02  0.45594000000E+02  0.51100000000E-03 0. -1.
         11   -1    0    0    0    0 -0.00000000000E+00 -0.00000000000E+00 -0.45593999997E+02  0.45594000000E+02  0.51100000000E-03 0.  1.
         23    2    1    2    0    0  0.00000000000E+00 -0.35527136788E-14 -0.35527136788E-14  0.91188000000E+02  0.91188000000E+02 0.  0.
    9900012    2    3    3    0    0 -0.26407905868E+02 -0.21706229426E+02  0.13683653554E+02  0.54367078464E+02  0.39999986974E+02 0.  0.
        -12    1    3    3    0    0  0.26407905868E+02  0.21706229426E+02 -0.13683653554E+02  0.36820921536E+02  0.00000000000E+00 0.  1.
         11    1    4    4    0    0 -0.11511734123E+02 -0.13220558843E+02  0.14264845068E+02  0.22600641666E+02  0.51100000000E-03 0. -1.
        -11    1    4    4    0    0  0.29234469941E+01  0.61007371510E+01 -0.48785482467E+01  0.83406096521E+01  0.51100000000E-03 0.  1.
        -12    1    4    4    0    0 -0.17819618739E+02 -0.14586407733E+02  0.42973567332E+01  0.23425827146E+02  0.00000000000E+00 0.  1.
</event>
<event>
 8    1  0.2512298E-006  0.9118800E+02  0.7816164E-02  0.1184000E+00
        -11   -1    0    0    0    0  0.00000000000E+00  0.00000000000E+00  0.45593999997E+02  0.45594000000E+02  0.51100000000E-03 0.  1.
         11   -1    0    0    0    0 -0.00000000000E+00 -0.00000000000E+00 -0.45593999997E+02  0.45594000000E+02  0.51100000000E-03 0. -1.
         23    2    1    2    0    0  0.00000000000E+00  0.35527136788E-14 -0.35527136788E-14  0.91188000000E+02  0.91188000000E+02 0.  0.
    9900012    2    3    3    0    0  0.12258574383E+02 -0.26663651221E+02  0.22238737792E+02  0.54367022271E+02  0.39999858871E+02 0.  0.
         12    1    3    3    0    0 -0.12258574383E+02  0.26663651221E+02 -0.22238737792E+02  0.36820977729E+02  0.00000000000E+00 0. -1.
         11    1    4    4    0    0  0.53217182295E+01  0.35258818817E+01  0.59053476770E+01  0.86963014785E+01  0.51100000000E-03 0. -1.
        -11    1    4    4    0    0  0.10620743569E+02 -0.14374584928E+01  0.12445112224E+02  0.16423985491E+02  0.51100000000E-03 0.  1.
         12    1    4    4    0    0 -0.36838874151E+01 -0.28752074610E+02  0.38882778908E+01  0.29246735302E+02  0.00000000000E+00 0. -1.
</event>
<event>
 8    1  0.2512298E-006  0.9118800E+02  0.7816164E-02  0.1184000E+00
        -11   -1    0    0    0    0  0.00000000000E+00  0.00000000000E+00  0.45593999997E+02  0.45594000000E+02  0.51100000000E-03 0. -1.
         11   -1    0    0    0    0 -0.00000000000E+00 -0.00000000000E+00 -0.45593999997E+02  0.45594000000E+02  0.51100000000E-03 0.  1.
         23    2    1    2    0    0  0.00000000000E+00  0.13322676296E-14 -0.35527136788E-14  0.91188000000E+02  0.91188000000E+02 0.  0.
    9900012    2    3    3    0    0  0.21766797034E+02  0.33304398422E+01 -0.29510926323E+02  0.54367081284E+02  0.39999993403E+02 0.  0.
         12    1    3    3    0    0 -0.21766797034E+02 -0.33304398422E+01  0.29510926323E+02  0.36820918716E+02  0.00000000000E+00 0. -1.
         11    1    4    4    0    0  0.85135413079E+01 -0.59367164117E+01 -0.17051747713E+02  0.19962141360E+02  0.51100000000E-03 0. -1.
        -11    1    4    4    0    0  0.20809507199E+02  0.41590773609E+01 -0.13612066638E+02  0.25211542451E+02  0.51100000000E-03 0.  1.
         12    1    4    4    0    0 -0.75562514720E+01  0.51080788929E+01  0.11528880283E+01  0.91933974727E+01  0.00000000000E+00 0. -1.
</event>
<event>
 8    1  0.2512298E-006  0.9118800E+02  0.7816164E-02  0.1184000E+00
        -11   -1    0    0    0    0  0.00000000000E+00  0.00000000000E+00  0.45593999997E+02  0.45594000000E+02  0.51100000000E-03 0.  1.
         11   -1    0    0    0    0 -0.00000000000E+00 -0.00000000000E+00 -0.45593999997E+02  0.45594000000E+02  0.51100000000E-03 0. -1.
         23    2    1    2    0    0 -0.35527136788E-14  0.00000000000E+00  0.00000000000E+00  0.91188000000E+02  0.91188000000E+02 0.  0.
    9900012    2    3    3    0    0 -0.30883958666E+02  0.16261104230E+02  0.11727603028E+02  0.54367094438E+02  0.40000023390E+02 0.  0.
         12    1    3    3    0    0  0.30883958666E+02 -0.16261104230E+02 -0.11727603028E+02  0.36820905562E+02  0.00000000000E+00 0. -1.
         11    1    4    4    0    0 -0.15154043611E+02  0.59118849215E+01 -0.99795670391E+01  0.19083688838E+02  0.51100000000E-03 0. -1.
        -11    1    4    4    0    0 -0.10408662066E+02  0.69766349918E+01 -0.15513763773E+00  0.12531470375E+02  0.51100000000E-03 0.  1.
         12    1    4    4    0    0 -0.53212529883E+01  0.33725843164E+01  0.21862307705E+02  0.22751935226E+02  0.00000000000E+00 0. -1.
</event>
<event>
 8    1  0.2512298E-006  0.9118800E+02  0.7816164E-02  0.1184000E+00
        -11   -1    0    0    0    0  0.00000000000E+00  0.00000000000E+00  0.45593999997E+02  0.45594000000E+02  0.51100000000E-03 0.  1.
         11   -1    0    0    0    0 -0.00000000000E+00 -0.00000000000E+00 -0.45593999997E+02  0.45594000000E+02  0.51100000000E-03 0. -1.
         23    2    1    2    0    0  0.00000000000E+00  0.17763568394E-14 -0.17763568394E-14  0.91188000000E+02  0.91188000000E+02 0.  0.
    9900012    2    3    3    0    0  0.31715951769E+02 -0.10266885525E+02 -0.15635511693E+02  0.54367085279E+02  0.40000002511E+02 0.  0.
         12    1    3    3    0    0 -0.31715951769E+02  0.10266885525E+02  0.15635511693E+02  0.36820914721E+02  0.00000000000E+00 0. -1.
         11    1    4    4    0    0  0.80502891115E+01 -0.17314235118E+02 -0.17794467254E+02  0.26100439798E+02  0.51100000000E-03 0. -1.
        -11    1    4    4    0    0 -0.59494729422E+00 -0.53727190960E+00  0.27263322614E+01  0.28417444024E+01  0.51100000000E-03 0.  1.
        -12    1    4    4    0    0  0.24260609951E+02  0.75846215027E+01 -0.56737670007E+00  0.25424901079E+02  0.00000000000E+00 0.  1.
</event>
<event>
 8    1  0.2512298E-006  0.9118800E+02  0.7816164E-02  0.1184000E+00
        -11   -1    0    0    0    0  0.00000000000E+00  0.00000000000E+00  0.45593999997E+02  0.45594000000E+02  0.51100000000E-03 0. -1.
         11   -1    0    0    0    0 -0.00000000000E+00 -0.00000000000E+00 -0.45593999997E+02  0.45594000000E+02  0.51100000000E-03 0.  1.
         23    2    1    2    0    0  0.35527136788E-14  0.35527136788E-14  0.00000000000E+00  0.91188000000E+02  0.91188000000E+02 0.  0.
    9900012    2    3    3    0    0  0.16907854503E+02  0.24015326316E+02 -0.22207397383E+02  0.54367082840E+02  0.39999996950E+02 0.  0.
         12    1    3    3    0    0 -0.16907854503E+02 -0.24015326316E+02  0.22207397383E+02  0.36820917160E+02  0.00000000000E+00 0. -1.
         11    1    4    4    0    0  0.33422765320E+01  0.58238856498E+01  0.46466164062E+00  0.67308518911E+01  0.51100000000E-03 0. -1.
        -11    1    4    4    0    0 -0.20150381500E+01  0.23826024009E+02 -0.19300169738E+02  0.30728429036E+02  0.51100000000E-03 0.  1.
        -12    1    4    4    0    0  0.15580616121E+02 -0.56345833429E+01 -0.33718892852E+01  0.16907801913E+02  0.00000000000E+00 0.  1.
</event>
<event>
 8    1  0.2512298E-006  0.9118800E+02  0.7816164E-02  0.1184000E+00
        -11   -1    0    0    0    0  0.00000000000E+00  0.00000000000E+00  0.45593999997E+02  0.45594000000E+02  0.51100000000E-03 0. -1.
         11   -1    0    0    0    0 -0.00000000000E+00 -0.00000000000E+00 -0.45593999997E+02  0.45594000000E+02  0.51100000000E-03 0.  1.
         23    2    1    2    0    0  0.35527136788E-14  0.71054273576E-14 -0.35527136788E-14  0.91188000000E+02  0.91188000000E+02 0.  0.
    9900012    2    3    3    0    0 -0.20357457447E+02 -0.25628458472E+02  0.16868190940E+02  0.54367084436E+02  0.40000000590E+02 0.  0.
         12    1    3    3    0    0  0.20357457447E+02  0.25628458472E+02 -0.16868190940E+02  0.36820915564E+02  0.00000000000E+00 0. -1.
         11    1    4    4    0    0  0.18584266112E+01 -0.65350031675E+01 -0.11348604232E+02  0.13226898130E+02  0.51100000000E-03 0. -1.
        -11    1    4    4    0    0 -0.16823084788E+02 -0.16212304022E+02  0.25050919819E+02  0.34254978726E+02  0.51100000000E-03 0.  1.
         12    1    4    4    0    0 -0.53927992700E+01 -0.28811512828E+01  0.31658753531E+01  0.68852075809E+01  0.00000000000E+00 0. -1.
</event>
<event>
 8    1  0.2512298E-006  0.9118800E+02  0.7816164E-02  0.1184000E+00
        -11   -1    0    0    0    0  0.00000000000E+00  0.00000000000E+00  0.45593999997E+02  0.45594000000E+02  0.51100000000E-03 0. -1.
         11   -1    0    0    0    0 -0.00000000000E+00 -0.00000000000E+00 -0.45593999997E+02  0.45594000000E+02  0.51100000000E-03 0.  1.
         23    2    1    2    0    0  0.17763568394E-14  0.00000000000E+00 -0.71054273576E-14  0.91188000000E+02  0.91188000000E+02 0.  0.
    9900012    2    3    3    0    0  0.13562951718E+02 -0.44557026894E+01 -0.33940741102E+02  0.54367070458E+02  0.39999968723E+02 0.  0.
         12    1    3    3    0    0 -0.13562951718E+02  0.44557026894E+01  0.33940741102E+02  0.36820929542E+02  0.00000000000E+00 0. -1.
         11    1    4    4    0    0 -0.70937343944E+01  0.38128136253E+00 -0.10594745609E+01  0.71825434035E+01  0.51100000000E-03 0. -1.
        -11    1    4    4    0    0 -0.34479622961E+01 -0.98491359215E+00 -0.18517625190E+02  0.18861626168E+02  0.51100000000E-03 0.  1.
        -12    1    4    4    0    0  0.24104648409E+02 -0.38520704598E+01 -0.14363641352E+02  0.28322900886E+02  0.00000000000E+00 0.  1.
</event>
<event>
 8    1  0.2512298E-006  0.9118800E+02  0.7816164E-02  0.1184000E+00
        -11   -1    0    0    0    0  0.00000000000E+00  0.00000000000E+00  0.45593999997E+02  0.45594000000E+02  0.51100000000E-03 0. -1.
         11   -1    0    0    0    0 -0.00000000000E+00 -0.00000000000E+00 -0.45593999997E+02  0.45594000000E+02  0.51100000000E-03 0.  1.
         23    2    1    2    0    0 -0.88817841970E-15  0.71054273576E-14  0.00000000000E+00  0.91188000000E+02  0.91188000000E+02 0.  0.
    9900012    2    3    3    0    0 -0.51583709558E+01 -0.35372846852E+02  0.88280230223E+01  0.54367067423E+02  0.39999961805E+02 0.  0.
        -12    1    3    3    0    0  0.51583709558E+01  0.35372846852E+02 -0.88280230223E+01  0.36820932577E+02  0.00000000000E+00 0.  1.
         11    1    4    4    0    0 -0.45279645478E+01  0.14730588611E+01  0.50574383069E+01  0.69462254385E+01  0.51100000000E-03 0.  1.
        -11    1    4    4    0    0 -0.11615028007E+02 -0.33144086251E+02 -0.33990691882E+00  0.35121999743E+02  0.51100000000E-03 0. -1.
         12    1    4    4    0    0  0.10984621599E+02 -0.37018194624E+01  0.41104916342E+01  0.12298842241E+02  0.00000000000E+00 0. -1.
</event>
<event>
 8    1  0.2512298E-006  0.9118800E+02  0.7816164E-02  0.1184000E+00
        -11   -1    0    0    0    0  0.00000000000E+00  0.00000000000E+00  0.45593999997E+02  0.45594000000E+02  0.51100000000E-03 0.  1.
         11   -1    0    0    0    0 -0.00000000000E+00 -0.00000000000E+00 -0.45593999997E+02  0.45594000000E+02  0.51100000000E-03 0. -1.
         23    2    1    2    0    0  0.00000000000E+00  0.00000000000E+00  0.00000000000E+00  0.91188000000E+02  0.91188000000E+02 0.  0.
    9900012    2    3    3    0    0  0.18833618957E+02 -0.31618816351E+02  0.11507742693E+01  0.54367095178E+02  0.40000025078E+02 0.  0.
         12    1    3    3    0    0 -0.18833618957E+02  0.31618816351E+02 -0.11507742693E+01  0.36820904822E+02  0.00000000000E+00 0. -1.
         11    1    4    4    0    0  0.59364401664E+01 -0.12648672658E+02  0.10292296585E+02  0.17354008502E+02  0.51100000000E-03 0. -1.
        -11    1    4    4    0    0  0.14138119896E+02 -0.63176965660E+01  0.65534997500E+01  0.16815114729E+02  0.51100000000E-03 0.  1.
         12    1    4    4    0    0 -0.12409411055E+01 -0.12652447127E+02 -0.15695022065E+02  0.20197971947E+02  0.00000000000E+00 0. -1.
</event>
<event>
 8    1  0.2512298E-006  0.9118800E+02  0.7816164E-02  0.1184000E+00
        -11   -1    0    0    0    0  0.00000000000E+00  0.00000000000E+00  0.45593999997E+02  0.45594000000E+02  0.51100000000E-03 0.  1.
         11   -1    0    0    0    0 -0.00000000000E+00 -0.00000000000E+00 -0.45593999997E+02  0.45594000000E+02  0.51100000000E-03 0. -1.
         23    2    1    2    0    0  0.00000000000E+00  0.00000000000E+00  0.00000000000E+00  0.91188000000E+02  0.91188000000E+02 0.  0.
    9900012    2    3    3    0    0 -0.22051922088E+02 -0.25752289297E+02 -0.14363493217E+02  0.54367114498E+02  0.40000069121E+02 0.  0.
        -12    1    3    3    0    0  0.22051922088E+02  0.25752289297E+02  0.14363493217E+02  0.36820885502E+02  0.00000000000E+00 0.  1.
         11    1    4    4    0    0 -0.10769417786E+01 -0.32650146512E+01 -0.20470189748E+02  0.20756897476E+02  0.51100000000E-03 0. -1.
        -11    1    4    4    0    0 -0.19524151672E+02 -0.14795627663E+02  0.75853260820E+01  0.25644497820E+02  0.51100000000E-03 0.  1.
        -12    1    4    4    0    0 -0.14508286376E+01 -0.76916469826E+01 -0.14786295507E+01  0.79657192009E+01  0.00000000000E+00 0.  1.
</event>
<event>
 8    1  0.2512298E-006  0.9118800E+02  0.7816164E-02  0.1184000E+00
        -11   -1    0    0    0    0  0.00000000000E+00  0.00000000000E+00  0.45593999997E+02  0.45594000000E+02  0.51100000000E-03 0. -1.
         11   -1    0    0    0    0 -0.00000000000E+00 -0.00000000000E+00 -0.45593999997E+02  0.45594000000E+02  0.51100000000E-03 0.  1.
         23    2    1    2    0    0  0.00000000000E+00  0.00000000000E+00  0.00000000000E+00  0.91188000000E+02  0.91188000000E+02 0.  0.
    9900012    2    3    3    0    0  0.11236031945E+02 -0.33153292812E+02  0.11418869685E+02  0.54367084436E+02  0.40000000588E+02 0.  0.
        -12    1    3    3    0    0 -0.11236031945E+02  0.33153292812E+02 -0.11418869685E+02  0.36820915564E+02  0.00000000000E+00 0.  1.
         11    1    4    4    0    0  0.11259128988E+02 -0.23162367009E+02  0.53993050928E+00  0.25759556601E+02  0.51100000000E-03 0. -1.
        -11    1    4    4    0    0 -0.78679468126E+01 -0.67088127273E+01 -0.43083617263E+01  0.11201550620E+02  0.51100000000E-03 0.  1.
         12    1    4    4    0    0  0.78448497698E+01 -0.32821130752E+01  0.15187300902E+02  0.17405977215E+02  0.00000000000E+00 0. -1.
</event>
<event>
 8    1  0.2512298E-006  0.9118800E+02  0.7816164E-02  0.1184000E+00
        -11   -1    0    0    0    0  0.00000000000E+00  0.00000000000E+00  0.45593999997E+02  0.45594000000E+02  0.51100000000E-03 0.  1.
         11   -1    0    0    0    0 -0.00000000000E+00 -0.00000000000E+00 -0.45593999997E+02  0.45594000000E+02  0.51100000000E-03 0. -1.
         23    2    1    2    0    0  0.35527136788E-14 -0.17763568394E-14  0.00000000000E+00  0.91188000000E+02  0.91188000000E+02 0.  0.
    9900012    2    3    3    0    0 -0.24439998102E+02  0.13330838625E+02  0.24098903544E+02  0.54367055991E+02  0.39999935743E+02 0.  0.
         12    1    3    3    0    0  0.24439998102E+02 -0.13330838625E+02 -0.24098903544E+02  0.36820944009E+02  0.00000000000E+00 0. -1.
         11    1    4    4    0    0 -0.24088386577E+02  0.15314206832E+02  0.18881018441E+02  0.34223795179E+02  0.51100000000E-03 0. -1.
        -11    1    4    4    0    0 -0.64859593226E+01 -0.24580462204E+01  0.10125284401E+02  0.12273183940E+02  0.51100000000E-03 0.  1.
         12    1    4    4    0    0  0.61343477979E+01  0.47467801302E+00 -0.49073992974E+01  0.78700768730E+01  0.00000000000E+00 0. -1.
</event>
<event>
 8    1  0.2512298E-006  0.9118800E+02  0.7816164E-02  0.1184000E+00
        -11   -1    0    0    0    0  0.00000000000E+00  0.00000000000E+00  0.45593999997E+02  0.45594000000E+02  0.51100000000E-03 0.  1.
         11   -1    0    0    0    0 -0.00000000000E+00 -0.00000000000E+00 -0.45593999997E+02  0.45594000000E+02  0.51100000000E-03 0. -1.
         23    2    1    2    0    0  0.00000000000E+00  0.00000000000E+00  0.00000000000E+00  0.91188000000E+02  0.91188000000E+02 0.  0.
    9900012    2    3    3    0    0  0.31871873775E+02 -0.17094032380E+02 -0.69106579944E+01  0.54367089164E+02  0.40000011366E+02 0.  0.
        -12    1    3    3    0    0 -0.31871873775E+02  0.17094032380E+02  0.69106579944E+01  0.36820910836E+02  0.00000000000E+00 0.  1.
         11    1    4    4    0    0  0.29827123533E+02 -0.12720098391E+02  0.32851363649E+01  0.32592181924E+02  0.51100000000E-03 0. -1.
        -11    1    4    4    0    0 -0.74973059211E+01  0.62903162101E+00 -0.96113776096E+00  0.75847915536E+01  0.51100000000E-03 0.  1.
        -12    1    4    4    0    0  0.95420561623E+01 -0.50029656100E+01 -0.92346565984E+01  0.14190115686E+02  0.00000000000E+00 0.  1.
</event>
<event>
 8    1  0.2512298E-006  0.9118800E+02  0.7816164E-02  0.1184000E+00
        -11   -1    0    0    0    0  0.00000000000E+00  0.00000000000E+00  0.45593999997E+02  0.45594000000E+02  0.51100000000E-03 0.  1.
         11   -1    0    0    0    0 -0.00000000000E+00 -0.00000000000E+00 -0.45593999997E+02  0.45594000000E+02  0.51100000000E-03 0. -1.
         23    2    1    2    0    0 -0.71054273576E-14 -0.17763568394E-14  0.00000000000E+00  0.91188000000E+02  0.91188000000E+02 0.  0.
    9900012    2    3    3    0    0  0.36443634465E+02  0.50375157988E+01 -0.15047774865E+01  0.54367089993E+02  0.40000013258E+02 0.  0.
         12    1    3    3    0    0 -0.36443634465E+02 -0.50375157988E+01  0.15047774865E+01  0.36820910007E+02  0.00000000000E+00 0. -1.
         11    1    4    4    0    0  0.15004181983E+02  0.17250460589E+02 -0.77862159108E+01  0.24152205406E+02  0.51100000000E-03 0. -1.
        -11    1    4    4    0    0  0.37651241679E+00  0.33304472865E+01  0.11189504683E+01  0.35335097481E+01  0.51100000000E-03 0.  1.
        -12    1    4    4    0    0  0.21062940065E+02 -0.15543392076E+02  0.51624879561E+01  0.26681374839E+02  0.00000000000E+00 0.  1.
</event>
<event>
 8    1  0.2512298E-006  0.9118800E+02  0.7816164E-02  0.1184000E+00
        -11   -1    0    0    0    0  0.00000000000E+00  0.00000000000E+00  0.45593999997E+02  0.45594000000E+02  0.51100000000E-03 0. -1.
         11   -1    0    0    0    0 -0.00000000000E+00 -0.00000000000E+00 -0.45593999997E+02  0.45594000000E+02  0.51100000000E-03 0.  1.
         23    2    1    2    0    0  0.17763568394E-14  0.00000000000E+00  0.71054273576E-14  0.91188000000E+02  0.91188000000E+02 0.  0.
    9900012    2    3    3    0    0  0.90204856140E+01 -0.90978111144E+01 -0.34520161422E+02  0.54367070186E+02  0.39999968102E+02 0.  0.
         12    1    3    3    0    0 -0.90204856140E+01  0.90978111144E+01  0.34520161422E+02  0.36820929814E+02  0.00000000000E+00 0. -1.
         11    1    4    4    0    0 -0.77013636751E+01 -0.21074712409E+00 -0.16339912525E+02  0.18065108867E+02  0.51100000000E-03 0. -1.
        -11    1    4    4    0    0  0.14147084471E+00  0.26727251267E+01  0.49239655627E+01  0.56043653277E+01  0.51100000000E-03 0.  1.
        -12    1    4    4    0    0  0.16580378444E+02 -0.11559789117E+02 -0.23104214460E+02  0.30697595991E+02  0.00000000000E+00 0.  1.
</event>
<event>
 8    1  0.2512298E-006  0.9118800E+02  0.7816164E-02  0.1184000E+00
        -11   -1    0    0    0    0  0.00000000000E+00  0.00000000000E+00  0.45593999997E+02  0.45594000000E+02  0.51100000000E-03 0. -1.
         11   -1    0    0    0    0 -0.00000000000E+00 -0.00000000000E+00 -0.45593999997E+02  0.45594000000E+02  0.51100000000E-03 0.  1.
         23    2    1    2    0    0  0.00000000000E+00  0.00000000000E+00  0.17763568394E-14  0.91188000000E+02  0.91188000000E+02 0.  0.
    9900012    2    3    3    0    0  0.14144266252E+02 -0.32302879484E+02  0.10594512834E+02  0.54367082128E+02  0.39999995327E+02 0.  0.
        -12    1    3    3    0    0 -0.14144266252E+02  0.32302879484E+02 -0.10594512834E+02  0.36820917872E+02  0.00000000000E+00 0.  1.
         11    1    4    4    0    0  0.41903063865E+01 -0.18891109512E+02  0.21145699586E+02  0.28663099927E+02  0.51100000000E-03 0. -1.
        -11    1    4    4    0    0  0.22208695879E+01  0.34664401591E+01  0.42153722382E+00  0.41383768552E+01  0.51100000000E-03 0.  1.
         12    1    4    4    0    0  0.77330902775E+01 -0.16878210131E+02 -0.10972723976E+02  0.21565605345E+02  0.00000000000E+00 0. -1.
</event>
<event>
 8    1  0.2512298E-006  0.9118800E+02  0.7816164E-02  0.1184000E+00
        -11   -1    0    0    0    0  0.00000000000E+00  0.00000000000E+00  0.45593999997E+02  0.45594000000E+02  0.51100000000E-03 0. -1.
         11   -1    0    0    0    0 -0.00000000000E+00 -0.00000000000E+00 -0.45593999997E+02  0.45594000000E+02  0.51100000000E-03 0.  1.
         23    2    1    2    0    0  0.00000000000E+00  0.00000000000E+00  0.00000000000E+00  0.91188000000E+02  0.91188000000E+02 0.  0.
    9900012    2    3    3    0    0 -0.18652595275E+02 -0.27143692507E+01  0.31630842995E+02  0.54366846576E+02  0.39999458335E+02 0.  0.
        -12    1    3    3    0    0  0.18652595275E+02  0.27143692507E+01 -0.31630842995E+02  0.36821153424E+02  0.00000000000E+00 0.  1.
         11    1    4    4    0    0 -0.66675798892E+01  0.76276005715E+01  0.65256033226E+00  0.10151982432E+02  0.51100000000E-03 0. -1.
        -11    1    4    4    0    0 -0.14382734423E+02  0.53539703860E+01  0.12074026098E+02  0.19527164536E+02  0.51100000000E-03 0.  1.
        -12    1    4    4    0    0  0.23977190372E+01 -0.15695940208E+02  0.18904256565E+02  0.24687699607E+02  0.00000000000E+00 0.  1.
</event>
<event>
 8    1  0.2512298E-006  0.9118800E+02  0.7816164E-02  0.1184000E+00
        -11   -1    0    0    0    0  0.00000000000E+00  0.00000000000E+00  0.45593999997E+02  0.45594000000E+02  0.51100000000E-03 0. -1.
         11   -1    0    0    0    0 -0.00000000000E+00 -0.00000000000E+00 -0.45593999997E+02  0.45594000000E+02  0.51100000000E-03 0.  1.
         23    2    1    2    0    0 -0.35527136788E-14 -0.71054273576E-14 -0.22204460493E-14  0.91188000000E+02  0.91188000000E+02 0.  0.
    9900012    2    3    3    0    0  0.28133101662E+02  0.23643584564E+02  0.22994215105E+01  0.54367111371E+02  0.40000061992E+02 0.  0.
        -12    1    3    3    0    0 -0.28133101662E+02 -0.23643584564E+02 -0.22994215105E+01  0.36820888629E+02  0.00000000000E+00 0.  1.
         11    1    4    4    0    0  0.43508759964E+01  0.19744558260E+02 -0.32819254268E+01  0.20482888898E+02  0.51100000000E-03 0. -1.
        -11    1    4    4    0    0  0.73945176328E+01  0.28009186604E+01 -0.89582374742E+01  0.11948809785E+02  0.51100000000E-03 0.  1.
        -12    1    4    4    0    0  0.16387708032E+02  0.10981076440E+01  0.14539584411E+02  0.21935412688E+02  0.00000000000E+00 0.  1.
</event>
<event>
 8    1  0.2512298E-006  0.9118800E+02  0.7816164E-02  0.1184000E+00
        -11   -1    0    0    0    0  0.00000000000E+00  0.00000000000E+00  0.45593999997E+02  0.45594000000E+02  0.51100000000E-03 0.  1.
         11   -1    0    0    0    0 -0.00000000000E+00 -0.00000000000E+00 -0.45593999997E+02  0.45594000000E+02  0.51100000000E-03 0. -1.
         23    2    1    2    0    0  0.17763568394E-14 -0.35527136788E-14 -0.35527136788E-14  0.91188000000E+02  0.91188000000E+02 0.  0.
    9900012    2    3    3    0    0  0.11200477445E+02 -0.16260924448E+02 -0.31079111052E+02  0.54367088785E+02  0.40000010504E+02 0.  0.
        -12    1    3    3    0    0 -0.11200477445E+02  0.16260924448E+02  0.31079111052E+02  0.36820911215E+02  0.00000000000E+00 0.  1.
         11    1    4    4    0    0  0.12910094149E+02  0.60848888072E+01 -0.17236482020E+02  0.22378398410E+02  0.51100000000E-03 0. -1.
        -11    1    4    4    0    0  0.16355649503E+01  0.19430662744E+01  0.16101396047E+01  0.30071795858E+01  0.51100000000E-03 0.  1.
         12    1    4    4    0    0 -0.33451816537E+01 -0.24288879529E+02 -0.15452768637E+02  0.28981510789E+02  0.00000000000E+00 0. -1.
</event>
<event>
 8    1  0.2512298E-006  0.9118800E+02  0.7816164E-02  0.1184000E+00
        -11   -1    0    0    0    0  0.00000000000E+00  0.00000000000E+00  0.45593999997E+02  0.45594000000E+02  0.51100000000E-03 0.  1.
         11   -1    0    0    0    0 -0.00000000000E+00 -0.00000000000E+00 -0.45593999997E+02  0.45594000000E+02  0.51100000000E-03 0. -1.
         23    2    1    2    0    0  0.00000000000E+00  0.00000000000E+00  0.35527136788E-14  0.91188000000E+02  0.91188000000E+02 0.  0.
    9900012    2    3    3    0    0  0.29316382863E+02 -0.11777429805E+02  0.18910891548E+02  0.54367082356E+02  0.39999995846E+02 0.  0.
         12    1    3    3    0    0 -0.29316382863E+02  0.11777429805E+02 -0.18910891548E+02  0.36820917644E+02  0.00000000000E+00 0. -1.
         11    1    4    4    0    0  0.11050824851E+02  0.36275309402E+01 -0.37999788627E+01  0.12235994043E+02  0.51100000000E-03 0. -1.
        -11    1    4    4    0    0 -0.23394419036E+01 -0.12711683901E+02  0.25426322490E+01  0.13172884082E+02  0.51100000000E-03 0.  1.
        -12    1    4    4    0    0  0.20604999916E+02 -0.26932768445E+01  0.20168238162E+02  0.28958204231E+02  0.00000000000E+00 0.  1.
</event>
<event>
 8    1  0.2512298E-006  0.9118800E+02  0.7816164E-02  0.1184000E+00
        -11   -1    0    0    0    0  0.00000000000E+00  0.00000000000E+00  0.45593999997E+02  0.45594000000E+02  0.51100000000E-03 0. -1.
         11   -1    0    0    0    0 -0.00000000000E+00 -0.00000000000E+00 -0.45593999997E+02  0.45594000000E+02  0.51100000000E-03 0.  1.
         23    2    1    2    0    0 -0.88817841970E-15  0.00000000000E+00 -0.17763568394E-14  0.91188000000E+02  0.91188000000E+02 0.  0.
    9900012    2    3    3    0    0 -0.50920380892E+01 -0.35357333394E+02 -0.89280449797E+01  0.54367083882E+02  0.39999999325E+02 0.  0.
         12    1    3    3    0    0  0.50920380892E+01  0.35357333394E+02  0.89280449797E+01  0.36820916118E+02  0.00000000000E+00 0. -1.
         11    1    4    4    0    0  0.30552072131E+01  0.14740337562E+01 -0.11107965098E+02  0.11614385714E+02  0.51100000000E-03 0. -1.
        -11    1    4    4    0    0  0.42075761191E+01 -0.17024668198E+02 -0.51627333596E+01  0.18281051393E+02  0.51100000000E-03 0.  1.
         12    1    4    4    0    0 -0.12354821421E+02 -0.19806698952E+02  0.73426534782E+01  0.24471646774E+02  0.00000000000E+00 0. -1.
</event>
<event>
 8    1  0.2512298E-006  0.9118800E+02  0.7816164E-02  0.1184000E+00
        -11   -1    0    0    0    0  0.00000000000E+00  0.00000000000E+00  0.45593999997E+02  0.45594000000E+02  0.51100000000E-03 0.  1.
         11   -1    0    0    0    0 -0.00000000000E+00 -0.00000000000E+00 -0.45593999997E+02  0.45594000000E+02  0.51100000000E-03 0. -1.
         23    2    1    2    0    0  0.00000000000E+00  0.00000000000E+00  0.00000000000E+00  0.91188000000E+02  0.91188000000E+02 0.  0.
    9900012    2    3    3    0    0 -0.32961745006E+02  0.11633278460E+02 -0.11574541553E+02  0.54367084562E+02  0.40000000876E+02 0.  0.
        -12    1    3    3    0    0  0.32961745006E+02 -0.11633278460E+02  0.11574541553E+02  0.36820915438E+02  0.00000000000E+00 0.  1.
         11    1    4    4    0    0 -0.57295985962E+01 -0.25850013203E+01 -0.89703478668E+01  0.10953432020E+02  0.51100000000E-03 0. -1.
        -11    1    4    4    0    0 -0.10556532797E+02  0.20001410518E+02 -0.94115958878E+01  0.24496427184E+02  0.51100000000E-03 0.  1.
        -12    1    4    4    0    0 -0.16675613613E+02 -0.57831307379E+01  0.68074022016E+01  0.18917225358E+02  0.00000000000E+00 0.  1.
</event>
<event>
 8    1  0.2512298E-006  0.9118800E+02  0.7816164E-02  0.1184000E+00
        -11   -1    0    0    0    0  0.00000000000E+00  0.00000000000E+00  0.45593999997E+02  0.45594000000E+02  0.51100000000E-03 0.  1.
         11   -1    0    0    0    0 -0.00000000000E+00 -0.00000000000E+00 -0.45593999997E+02  0.45594000000E+02  0.51100000000E-03 0. -1.
         23    2    1    2    0    0  0.00000000000E+00  0.35527136788E-14  0.35527136788E-14  0.91188000000E+02  0.91188000000E+02 0.  0.
    9900012    2    3    3    0    0 -0.20938160007E+02 -0.20803496274E+02 -0.22013364043E+02  0.54367079340E+02  0.39999988972E+02 0.  0.
         12    1    3    3    0    0  0.20938160007E+02  0.20803496274E+02  0.22013364043E+02  0.36820920660E+02  0.00000000000E+00 0. -1.
         11    1    4    4    0    0 -0.10732416787E+02  0.39951642779E+01 -0.61148481960E+01  0.12982198443E+02  0.51100000000E-03 0. -1.
        -11    1    4    4    0    0 -0.20265006537E+01 -0.21766855395E+02  0.15100800008E+01  0.21913079212E+02  0.51100000000E-03 0.  1.
         12    1    4    4    0    0 -0.81792425668E+01 -0.30318051573E+01 -0.17408595848E+02  0.19471801685E+02  0.00000000000E+00 0. -1.
</event>
<event>
 8    1  0.2512298E-006  0.9118800E+02  0.7816164E-02  0.1184000E+00
        -11   -1    0    0    0    0  0.00000000000E+00  0.00000000000E+00  0.45593999997E+02  0.45594000000E+02  0.51100000000E-03 0.  1.
         11   -1    0    0    0    0 -0.00000000000E+00 -0.00000000000E+00 -0.45593999997E+02  0.45594000000E+02  0.51100000000E-03 0. -1.
         23    2    1    2    0    0 -0.35527136788E-14  0.14210854715E-13 -0.66613381478E-15  0.91188000000E+02  0.91188000000E+02 0.  0.
    9900012    2    3    3    0    0  0.15624875286E+02 -0.33338247460E+02 -0.45275940822E+00  0.54367075752E+02  0.39999980791E+02 0.  0.
         12    1    3    3    0    0 -0.15624875286E+02  0.33338247460E+02  0.45275940822E+00  0.36820924248E+02  0.00000000000E+00 0. -1.
         11    1    4    4    0    0  0.12807198131E+02  0.36434076377E+01  0.49151795360E+01  0.14193580708E+02  0.51100000000E-03 0. -1.
        -11    1    4    4    0    0  0.20727499604E+01 -0.14108820722E+01  0.27072799593E+01  0.36900197370E+01  0.51100000000E-03 0.  1.
        -12    1    4    4    0    0  0.74492719530E+00 -0.35570773025E+02 -0.80752189035E+01  0.36483475307E+02  0.00000000000E+00 0.  1.
</event>
<event>
 8    1  0.2512298E-006  0.9118800E+02  0.7816164E-02  0.1184000E+00
        -11   -1    0    0    0    0  0.00000000000E+00  0.00000000000E+00  0.45593999997E+02  0.45594000000E+02  0.51100000000E-03 0.  1.
         11   -1    0    0    0    0 -0.00000000000E+00 -0.00000000000E+00 -0.45593999997E+02  0.45594000000E+02  0.51100000000E-03 0. -1.
         23    2    1    2    0    0  0.17763568394E-14 -0.88817841970E-15  0.00000000000E+00  0.91188000000E+02  0.91188000000E+02 0.  0.
    9900012    2    3    3    0    0 -0.90249787044E+01 -0.42400601557E+01 -0.35445072079E+02  0.54367061861E+02  0.39999949124E+02 0.  0.
        -12    1    3    3    0    0  0.90249787044E+01  0.42400601557E+01  0.35445072079E+02  0.36820938139E+02  0.00000000000E+00 0.  1.
         11    1    4    4    0    0 -0.54907894071E+01 -0.94111980897E+01 -0.19105038502E+02  0.21993678961E+02  0.51100000000E-03 0. -1.
        -11    1    4    4    0    0  0.51796940858E+01 -0.24089420497E+01  0.53331024740E+01  0.78149993525E+01  0.51100000000E-03 0.  1.
         12    1    4    4    0    0 -0.87138833830E+01  0.75800799837E+01 -0.21673136051E+02  0.24558383547E+02  0.00000000000E+00 0. -1.
</event>
<event>
 8    1  0.2512298E-006  0.9118800E+02  0.7816164E-02  0.1184000E+00
        -11   -1    0    0    0    0  0.00000000000E+00  0.00000000000E+00  0.45593999997E+02  0.45594000000E+02  0.51100000000E-03 0. -1.
         11   -1    0    0    0    0 -0.00000000000E+00 -0.00000000000E+00 -0.45593999997E+02  0.45594000000E+02  0.51100000000E-03 0.  1.
         23    2    1    2    0    0  0.00000000000E+00  0.00000000000E+00 -0.35527136788E-14  0.91188000000E+02  0.91188000000E+02 0.  0.
    9900012    2    3    3    0    0  0.22059721857E+02 -0.22062297490E+02 -0.19555090971E+02  0.54367110795E+02  0.40000060680E+02 0.  0.
         12    1    3    3    0    0 -0.22059721857E+02  0.22062297490E+02  0.19555090971E+02  0.36820889205E+02  0.00000000000E+00 0. -1.
         11    1    4    4    0    0 -0.26331845300E+01 -0.83313304861E+01  0.52203046346E+00  0.87531276983E+01  0.51100000000E-03 0. -1.
        -11    1    4    4    0    0  0.27771445498E+02 -0.19821219484E+02 -0.16276617628E+02  0.37802939152E+02  0.51100000000E-03 0.  1.
         12    1    4    4    0    0 -0.30785391108E+01  0.60902524800E+01 -0.38005038068E+01  0.78110439451E+01  0.00000000000E+00 0. -1.
</event>
<event>
 8    1  0.2512298E-006  0.9118800E+02  0.7816164E-02  0.1184000E+00
        -11   -1    0    0    0    0  0.00000000000E+00  0.00000000000E+00  0.45593999997E+02  0.45594000000E+02  0.51100000000E-03 0. -1.
         11   -1    0    0    0    0 -0.00000000000E+00 -0.00000000000E+00 -0.45593999997E+02  0.45594000000E+02  0.51100000000E-03 0.  1.
         23    2    1    2    0    0  0.00000000000E+00  0.35527136788E-14  0.00000000000E+00  0.91188000000E+02  0.91188000000E+02 0.  0.
    9900012    2    3    3    0    0  0.23508465870E+02  0.17780117185E+02 -0.22067840904E+02  0.54367215966E+02  0.40000300438E+02 0.  0.
        -12    1    3    3    0    0 -0.23508465870E+02 -0.17780117185E+02  0.22067840904E+02  0.36820784034E+02  0.00000000000E+00 0.  1.
         11    1    4    4    0    0  0.18023198408E+02  0.18095510162E+02 -0.19079146975E+02  0.31879413709E+02  0.51100000000E-03 0. -1.
        -11    1    4    4    0    0  0.12143508449E+02 -0.21479773198E+01 -0.73153751726E+01  0.14338525663E+02  0.51100000000E-03 0.  1.
        -12    1    4    4    0    0 -0.66582409880E+01  0.18325843433E+01  0.43266812429E+01  0.81492765941E+01  0.00000000000E+00 0.  1.
</event>
<event>
 8    1  0.2512298E-006  0.9118800E+02  0.7816164E-02  0.1184000E+00
        -11   -1    0    0    0    0  0.00000000000E+00  0.00000000000E+00  0.45593999997E+02  0.45594000000E+02  0.51100000000E-03 0. -1.
         11   -1    0    0    0    0 -0.00000000000E+00 -0.00000000000E+00 -0.45593999997E+02  0.45594000000E+02  0.51100000000E-03 0.  1.
         23    2    1    2    0    0  0.00000000000E+00  0.71054273576E-14  0.35527136788E-14  0.91188000000E+02  0.91188000000E+02 0.  0.
    9900012    2    3    3    0    0 -0.77255110750E+01  0.34633764889E+02 -0.98288070607E+01  0.54366991867E+02  0.39999789558E+02 0.  0.
         12    1    3    3    0    0  0.77255110750E+01 -0.34633764889E+02  0.98288070607E+01  0.36821008133E+02  0.00000000000E+00 0. -1.
         11    1    4    4    0    0 -0.77664388332E+01 -0.23749778793E+01  0.71483583614E+01  0.10819293859E+02  0.51100000000E-03 0. -1.
        -11    1    4    4    0    0 -0.53558996042E+01  0.27560241901E+02 -0.16691442966E+02  0.32662774878E+02  0.51100000000E-03 0.  1.
        -12    1    4    4    0    0  0.53968273624E+01  0.94485008669E+01 -0.28572245612E+00  0.10884923129E+02  0.00000000000E+00 0.  1.
</event>
<event>
 8    1  0.2512298E-006  0.9118800E+02  0.7816164E-02  0.1184000E+00
        -11   -1    0    0    0    0  0.00000000000E+00  0.00000000000E+00  0.45593999997E+02  0.45594000000E+02  0.51100000000E-03 0. -1.
         11   -1    0    0    0    0 -0.00000000000E+00 -0.00000000000E+00 -0.45593999997E+02  0.45594000000E+02  0.51100000000E-03 0.  1.
         23    2    1    2    0    0  0.35527136788E-14  0.00000000000E+00 -0.17763568394E-14  0.91188000000E+02  0.91188000000E+02 0.  0.
    9900012    2    3    3    0    0  0.28809733418E+02 -0.21119085393E+02  0.89310219949E+01  0.54367086631E+02  0.40000005594E+02 0.  0.
        -12    1    3    3    0    0 -0.28809733418E+02  0.21119085393E+02 -0.89310219949E+01  0.36820913369E+02  0.00000000000E+00 0.  1.
         11    1    4    4    0    0  0.29105559803E+02 -0.18203290933E+02 -0.27526694616E+01  0.34439375745E+02  0.51100000000E-03 0. -1.
        -11    1    4    4    0    0 -0.31249145393E+01 -0.56059261727E+01 -0.11439143321E+01  0.65192054264E+01  0.51100000000E-03 0.  1.
        -12    1    4    4    0    0  0.28290881536E+01  0.26901317127E+01  0.12827605789E+02  0.13408505460E+02  0.00000000000E+00 0.  1.
</event>
<event>
 8    1  0.2512298E-006  0.9118800E+02  0.7816164E-02  0.1184000E+00
        -11   -1    0    0    0    0  0.00000000000E+00  0.00000000000E+00  0.45593999997E+02  0.45594000000E+02  0.51100000000E-03 0.  1.
         11   -1    0    0    0    0 -0.00000000000E+00 -0.00000000000E+00 -0.45593999997E+02  0.45594000000E+02  0.51100000000E-03 0. -1.
         23    2    1    2    0    0  0.00000000000E+00  0.00000000000E+00  0.00000000000E+00  0.91188000000E+02  0.91188000000E+02 0.  0.
    9900012    2    3    3    0    0  0.24030961027E+02 -0.21320716746E+02 -0.17992340650E+02  0.54367022656E+02  0.39999859750E+02 0.  0.
        -12    1    3    3    0    0 -0.24030961027E+02  0.21320716746E+02  0.17992340650E+02  0.36820977344E+02  0.00000000000E+00 0.  1.
         11    1    4    4    0    0  0.22773914988E+02 -0.17777433513E+02 -0.18306037180E+02  0.34202329507E+02  0.51100000000E-03 0. -1.
        -11    1    4    4    0    0  0.73518203391E+01 -0.85869303942E+01  0.31921491272E+01  0.11746252688E+02  0.51100000000E-03 0.  1.
         12    1    4    4    0    0 -0.60947742997E+01  0.50436471615E+01 -0.28784525971E+01  0.84184404617E+01  0.00000000000E+00 0. -1.
</event>
<event>
 8    1  0.2512298E-006  0.9118800E+02  0.7816164E-02  0.1184000E+00
        -11   -1    0    0    0    0  0.00000000000E+00  0.00000000000E+00  0.45593999997E+02  0.45594000000E+02  0.51100000000E-03 0. -1.
         11   -1    0    0    0    0 -0.00000000000E+00 -0.00000000000E+00 -0.45593999997E+02  0.45594000000E+02  0.51100000000E-03 0.  1.
         23    2    1    2    0    0  0.22204460493E-15  0.17763568394E-14  0.00000000000E+00  0.91188000000E+02  0.91188000000E+02 0.  0.
    9900012    2    3    3    0    0  0.11906072797E+01 -0.10531152876E+02 -0.35262689622E+02  0.54367081951E+02  0.39999994924E+02 0.  0.
         12    1    3    3    0    0 -0.11906072797E+01  0.10531152876E+02  0.35262689622E+02  0.36820918049E+02  0.00000000000E+00 0. -1.
         11    1    4    4    0    0 -0.13914240991E+01  0.62999683057E+01 -0.47616869966E+01  0.80186859890E+01  0.51100000000E-03 0. -1.
        -11    1    4    4    0    0 -0.76090201234E+01 -0.21321193406E+02 -0.14608633986E+02  0.26942580847E+02  0.51100000000E-03 0.  1.
         12    1    4    4    0    0  0.10191051502E+02  0.44900722245E+01 -0.15892368640E+02  0.19405815115E+02  0.00000000000E+00 0. -1.
</event>
<event>
 8    1  0.2512298E-006  0.9118800E+02  0.7816164E-02  0.1184000E+00
        -11   -1    0    0    0    0  0.00000000000E+00  0.00000000000E+00  0.45593999997E+02  0.45594000000E+02  0.51100000000E-03 0. -1.
         11   -1    0    0    0    0 -0.00000000000E+00 -0.00000000000E+00 -0.45593999997E+02  0.45594000000E+02  0.51100000000E-03 0.  1.
         23    2    1    2    0    0  0.22204460493E-15 -0.31086244690E-14  0.00000000000E+00  0.91188000000E+02  0.91188000000E+02 0.  0.
    9900012    2    3    3    0    0  0.15512569137E+01 -0.17193650849E+01 -0.36747915807E+02  0.54367191611E+02  0.40000244914E+02 0.  0.
         12    1    3    3    0    0 -0.15512569137E+01  0.17193650849E+01  0.36747915807E+02  0.36820808389E+02  0.00000000000E+00 0. -1.
         11    1    4    4    0    0  0.47461572201E+01 -0.18113716483E-01  0.28961470163E+01  0.55600363547E+01  0.51100000000E-03 0. -1.
        -11    1    4    4    0    0  0.39739279460E+01  0.11346539769E+02 -0.10011355110E+02  0.15644912893E+02  0.51100000000E-03 0.  1.
        -12    1    4    4    0    0 -0.71688282523E+01 -0.13047791137E+02 -0.29632707714E+02  0.33162242363E+02  0.00000000000E+00 0.  1.
</event>
<event>
 8    1  0.2512298E-006  0.9118800E+02  0.7816164E-02  0.1184000E+00
        -11   -1    0    0    0    0  0.00000000000E+00  0.00000000000E+00  0.45593999997E+02  0.45594000000E+02  0.51100000000E-03 0. -1.
         11   -1    0    0    0    0 -0.00000000000E+00 -0.00000000000E+00 -0.45593999997E+02  0.45594000000E+02  0.51100000000E-03 0.  1.
         23    2    1    2    0    0  0.17763568394E-14  0.35527136788E-14  0.35527136788E-14  0.91188000000E+02  0.91188000000E+02 0.  0.
    9900012    2    3    3    0    0  0.11720265668E+02  0.21548229599E+02  0.27460708393E+02  0.54367063950E+02  0.39999953886E+02 0.  0.
        -12    1    3    3    0    0 -0.11720265668E+02 -0.21548229599E+02 -0.27460708393E+02  0.36820936050E+02  0.00000000000E+00 0.  1.
         11    1    4    4    0    0  0.59898534017E+01 -0.28573339248E+01  0.13656669329E+02  0.15183784718E+02  0.51100000000E-03 0. -1.
        -11    1    4    4    0    0  0.11223784799E+02  0.27361948954E+01 -0.21085731110E+01  0.11743346565E+02  0.51100000000E-03 0.  1.
         12    1    4    4    0    0 -0.54933725324E+01  0.21669368629E+02  0.15912612174E+02  0.27439932667E+02  0.00000000000E+00 0. -1.
</event>
<event>
 8    1  0.2512298E-006  0.9118800E+02  0.7816164E-02  0.1184000E+00
        -11   -1    0    0    0    0  0.00000000000E+00  0.00000000000E+00  0.45593999997E+02  0.45594000000E+02  0.51100000000E-03 0. -1.
         11   -1    0    0    0    0 -0.00000000000E+00 -0.00000000000E+00 -0.45593999997E+02  0.45594000000E+02  0.51100000000E-03 0.  1.
         23    2    1    2    0    0  0.00000000000E+00 -0.44408920985E-15 -0.35527136788E-14  0.91188000000E+02  0.91188000000E+02 0.  0.
    9900012    2    3    3    0    0  0.32463332352E+02  0.16749513608E+01 -0.17294694437E+02  0.54367083863E+02  0.39999999283E+02 0.  0.
         12    1    3    3    0    0 -0.32463332352E+02 -0.16749513608E+01  0.17294694437E+02  0.36820916137E+02  0.00000000000E+00 0. -1.
         11    1    4    4    0    0  0.41086611340E+01 -0.12156517555E+01 -0.91430099381E+01  0.10097204390E+02  0.51100000000E-03 0. -1.
        -11    1    4    4    0    0  0.21646175729E+02 -0.55819028106E+01  0.89174731383E+01  0.24067319961E+02  0.51100000000E-03 0.  1.
        -12    1    4    4    0    0  0.67084954899E+01  0.84725059270E+01 -0.17069157637E+02  0.20202559513E+02  0.00000000000E+00 0.  1.
</event>
<event>
 8    1  0.2512298E-006  0.9118800E+02  0.7816164E-02  0.1184000E+00
        -11   -1    0    0    0    0  0.00000000000E+00  0.00000000000E+00  0.45593999997E+02  0.45594000000E+02  0.51100000000E-03 0. -1.
         11   -1    0    0    0    0 -0.00000000000E+00 -0.00000000000E+00 -0.45593999997E+02  0.45594000000E+02  0.51100000000E-03 0.  1.
         23    2    1    2    0    0  0.00000000000E+00 -0.35527136788E-14  0.35527136788E-14  0.91188000000E+02  0.91188000000E+02 0.  0.
    9900012    2    3    3    0    0 -0.12615015520E+02 -0.19063567520E+02  0.28865560070E+02  0.54367098581E+02  0.40000032834E+02 0.  0.
        -12    1    3    3    0    0  0.12615015520E+02  0.19063567520E+02 -0.28865560070E+02  0.36820901419E+02  0.00000000000E+00 0.  1.
         11    1    4    4    0    0 -0.19667058499E+02 -0.20029844435E+02  0.18887602672E+02  0.33833849811E+02  0.51100000000E-03 0. -1.
        -11    1    4    4    0    0 -0.42233412502E+01  0.37093432324E+01  0.67711726735E+00  0.56616540504E+01  0.51100000000E-03 0.  1.
         12    1    4    4    0    0  0.11275384230E+02 -0.27430663174E+01  0.93008401315E+01  0.14871594719E+02  0.00000000000E+00 0. -1.
</event>
<event>
 8    1  0.2512298E-006  0.9118800E+02  0.7816164E-02  0.1184000E+00
        -11   -1    0    0    0    0  0.00000000000E+00  0.00000000000E+00  0.45593999997E+02  0.45594000000E+02  0.51100000000E-03 0. -1.
         11   -1    0    0    0    0 -0.00000000000E+00 -0.00000000000E+00 -0.45593999997E+02  0.45594000000E+02  0.51100000000E-03 0.  1.
         23    2    1    2    0    0  0.00000000000E+00  0.00000000000E+00 -0.44408920985E-15  0.91188000000E+02  0.91188000000E+02 0.  0.
    9900012    2    3    3    0    0 -0.11025103160E+02 -0.35098617979E+02  0.15212258776E+01  0.54367081870E+02  0.39999994740E+02 0.  0.
         12    1    3    3    0    0  0.11025103160E+02  0.35098617979E+02 -0.15212258776E+01  0.36820918130E+02  0.00000000000E+00 0. -1.
         11    1    4    4    0    0  0.90532123033E+00 -0.12085610570E+01  0.21751532695E+01  0.26479271828E+01  0.51100000000E-03 0. -1.
        -11    1    4    4    0    0 -0.65655873438E+01  0.42078134843E+00 -0.13237196845E+02  0.14781994950E+02  0.51100000000E-03 0.  1.
         12    1    4    4    0    0 -0.53648370466E+01 -0.34310838271E+02  0.12583269453E+02  0.36937159738E+02  0.00000000000E+00 0. -1.
</event>
<event>
 8    1  0.2512298E-006  0.9118800E+02  0.7816164E-02  0.1184000E+00
        -11   -1    0    0    0    0  0.00000000000E+00  0.00000000000E+00  0.45593999997E+02  0.45594000000E+02  0.51100000000E-03 0.  1.
         11   -1    0    0    0    0 -0.00000000000E+00 -0.00000000000E+00 -0.45593999997E+02  0.45594000000E+02  0.51100000000E-03 0. -1.
         23    2    1    2    0    0  0.00000000000E+00  0.00000000000E+00  0.00000000000E+00  0.91188000000E+02  0.91188000000E+02 0.  0.
    9900012    2    3    3    0    0 -0.14905999424E+02  0.32599110896E+02 -0.84194239574E+01  0.54367115304E+02  0.40000070958E+02 0.  0.
         12    1    3    3    0    0  0.14905999424E+02 -0.32599110896E+02  0.84194239574E+01  0.36820884696E+02  0.00000000000E+00 0. -1.
         11    1    4    4    0    0 -0.11623050479E+02  0.73468675088E+01  0.97428587487E+01  0.16852153023E+02  0.51100000000E-03 0. -1.
        -11    1    4    4    0    0 -0.10729217297E+02  0.16665605915E+02 -0.56477185534E+01  0.20609591200E+02  0.51100000000E-03 0.  1.
         12    1    4    4    0    0  0.74462683522E+01  0.85866374722E+01 -0.12514564153E+02  0.16905371081E+02  0.00000000000E+00 0. -1.
</event>
<event>
 8    1  0.2512298E-006  0.9118800E+02  0.7816164E-02  0.1184000E+00
        -11   -1    0    0    0    0  0.00000000000E+00  0.00000000000E+00  0.45593999997E+02  0.45594000000E+02  0.51100000000E-03 0. -1.
         11   -1    0    0    0    0 -0.00000000000E+00 -0.00000000000E+00 -0.45593999997E+02  0.45594000000E+02  0.51100000000E-03 0.  1.
         23    2    1    2    0    0  0.35527136788E-14  0.49960036108E-15  0.35527136788E-14  0.91188000000E+02  0.91188000000E+02 0.  0.
    9900012    2    3    3    0    0 -0.23500166733E+02  0.38556496586E+00 -0.28343850132E+02  0.54367077454E+02  0.39999984672E+02 0.  0.
         12    1    3    3    0    0  0.23500166733E+02 -0.38556496586E+00  0.28343850132E+02  0.36820922546E+02  0.00000000000E+00 0. -1.
         11    1    4    4    0    0 -0.21589494743E+02 -0.57820070254E+01 -0.16224844845E+02  0.27618535062E+02  0.51100000000E-03 0. -1.
        -11    1    4    4    0    0  0.10278137109E+02  0.54216923159E+01 -0.54582957138E+01  0.12838529603E+02  0.51100000000E-03 0.  1.
        -12    1    4    4    0    0 -0.12188809100E+02  0.74587967529E+00 -0.66607095735E+01  0.13910012789E+02  0.00000000000E+00 0.  1.
</event>
<event>
 8    1  0.2512298E-006  0.9118800E+02  0.7816164E-02  0.1184000E+00
        -11   -1    0    0    0    0  0.00000000000E+00  0.00000000000E+00  0.45593999997E+02  0.45594000000E+02  0.51100000000E-03 0. -1.
         11   -1    0    0    0    0 -0.00000000000E+00 -0.00000000000E+00 -0.45593999997E+02  0.45594000000E+02  0.51100000000E-03 0.  1.
         23    2    1    2    0    0  0.00000000000E+00  0.00000000000E+00 -0.35527136788E-14  0.91188000000E+02  0.91188000000E+02 0.  0.
    9900012    2    3    3    0    0  0.20981672854E+02 -0.14170667406E+02  0.26734646183E+02  0.54367085875E+02  0.40000003868E+02 0.  0.
        -12    1    3    3    0    0 -0.20981672854E+02  0.14170667406E+02 -0.26734646183E+02  0.36820914125E+02  0.00000000000E+00 0.  1.
         11    1    4    4    0    0  0.21204288865E+02  0.10401251624E+01  0.57200365158E+01  0.21986872097E+02  0.51100000000E-03 0. -1.
        -11    1    4    4    0    0 -0.68405150046E+01  0.10625182338E+01  0.44141177998E+01  0.82101173401E+01  0.51100000000E-03 0.  1.
         12    1    4    4    0    0  0.66178989939E+01 -0.16273310802E+02  0.16600491868E+02  0.24170096438E+02  0.00000000000E+00 0. -1.
</event>
<event>
 8    1  0.2512298E-006  0.9118800E+02  0.7816164E-02  0.1184000E+00
        -11   -1    0    0    0    0  0.00000000000E+00  0.00000000000E+00  0.45593999997E+02  0.45594000000E+02  0.51100000000E-03 0.  1.
         11   -1    0    0    0    0 -0.00000000000E+00 -0.00000000000E+00 -0.45593999997E+02  0.45594000000E+02  0.51100000000E-03 0. -1.
         23    2    1    2    0    0  0.44408920985E-15 -0.17763568394E-14  0.00000000000E+00  0.91188000000E+02  0.91188000000E+02 0.  0.
    9900012    2    3    3    0    0 -0.30420544811E+01  0.10190756316E+02  0.35251589224E+02  0.54367079960E+02  0.39999990385E+02 0.  0.
         12    1    3    3    0    0  0.30420544811E+01 -0.10190756316E+02 -0.35251589224E+02  0.36820920040E+02  0.00000000000E+00 0. -1.
         11    1    4    4    0    0 -0.69733141560E+01  0.12038434368E+02 -0.27841993414E+01  0.14188121038E+02  0.51100000000E-03 0. -1.
        -11    1    4    4    0    0  0.54496364888E+01  0.82489226507E+00  0.36160811129E+02  0.36578453315E+02  0.51100000000E-03 0.  1.
        -12    1    4    4    0    0 -0.15183768138E+01 -0.26725703167E+01  0.18749774359E+01  0.36005056078E+01  0.00000000000E+00 0.  1.
</event>
<event>
 8    1  0.2512298E-006  0.9118800E+02  0.7816164E-02  0.1184000E+00
        -11   -1    0    0    0    0  0.00000000000E+00  0.00000000000E+00  0.45593999997E+02  0.45594000000E+02  0.51100000000E-03 0. -1.
         11   -1    0    0    0    0 -0.00000000000E+00 -0.00000000000E+00 -0.45593999997E+02  0.45594000000E+02  0.51100000000E-03 0.  1.
         23    2    1    2    0    0  0.88817841970E-15  0.35527136788E-14 -0.35527136788E-14  0.91188000000E+02  0.91188000000E+02 0.  0.
    9900012    2    3    3    0    0  0.53142396569E+01  0.17832940646E+02 -0.31773020523E+02  0.54367085449E+02  0.40000002897E+02 0.  0.
         12    1    3    3    0    0 -0.53142396569E+01 -0.17832940646E+02  0.31773020523E+02  0.36820914551E+02  0.00000000000E+00 0. -1.
         11    1    4    4    0    0  0.37058159148E+01  0.19566726611E+02 -0.56485624725E+01  0.20700147829E+02  0.51100000000E-03 0. -1.
        -11    1    4    4    0    0  0.97302836409E+01  0.15391584522E+00 -0.22615442823E+02  0.24620324209E+02  0.51100000000E-03 0.  1.
        -12    1    4    4    0    0 -0.81218598988E+01 -0.18877018101E+01 -0.35090152282E+01  0.90466134112E+01  0.00000000000E+00 0.  1.
</event>
<event>
 8    1  0.2512298E-006  0.9118800E+02  0.7816164E-02  0.1184000E+00
        -11   -1    0    0    0    0  0.00000000000E+00  0.00000000000E+00  0.45593999997E+02  0.45594000000E+02  0.51100000000E-03 0. -1.
         11   -1    0    0    0    0 -0.00000000000E+00 -0.00000000000E+00 -0.45593999997E+02  0.45594000000E+02  0.51100000000E-03 0.  1.
         23    2    1    2    0    0  0.00000000000E+00  0.00000000000E+00  0.00000000000E+00  0.91188000000E+02  0.91188000000E+02 0.  0.
    9900012    2    3    3    0    0 -0.27266289999E+02  0.12690877655E+02  0.21243135579E+02  0.54367085356E+02  0.40000002687E+02 0.  0.
        -12    1    3    3    0    0  0.27266289999E+02 -0.12690877655E+02 -0.21243135579E+02  0.36820914644E+02  0.00000000000E+00 0.  1.
         11    1    4    4    0    0 -0.70513942400E+00 -0.56957674127E+01  0.60245627512E+01  0.83207177954E+01  0.51100000000E-03 0. -1.
        -11    1    4    4    0    0  0.30100380082E+01  0.83539506956E+01  0.11603141358E+02  0.14611013335E+02  0.51100000000E-03 0.  1.
         12    1    4    4    0    0 -0.29571188583E+02  0.10032694372E+02  0.36154314695E+01  0.31435354226E+02  0.00000000000E+00 0. -1.
</event>
<event>
 8    1  0.2512298E-006  0.9118800E+02  0.7816164E-02  0.1184000E+00
        -11   -1    0    0    0    0  0.00000000000E+00  0.00000000000E+00  0.45593999997E+02  0.45594000000E+02  0.51100000000E-03 0.  1.
         11   -1    0    0    0    0 -0.00000000000E+00 -0.00000000000E+00 -0.45593999997E+02  0.45594000000E+02  0.51100000000E-03 0. -1.
         23    2    1    2    0    0  0.35527136788E-14  0.17763568394E-14  0.00000000000E+00  0.91188000000E+02  0.91188000000E+02 0.  0.
    9900012    2    3    3    0    0  0.25494462012E+02  0.94541920276E+01  0.24828026880E+02  0.54367078516E+02  0.39999987094E+02 0.  0.
        -12    1    3    3    0    0 -0.25494462012E+02 -0.94541920276E+01 -0.24828026880E+02  0.36820921484E+02  0.00000000000E+00 0.  1.
         11    1    4    4    0    0  0.16181696648E+01  0.76867082618E+01  0.52326148711E+01  0.94384434954E+01  0.51100000000E-03 0. -1.
        -11    1    4    4    0    0 -0.24042550840E+01 -0.33845940607E+01  0.17589512885E+02  0.18072821674E+02  0.51100000000E-03 0.  1.
        -12    1    4    4    0    0  0.26280547431E+02  0.51520778265E+01  0.20058991232E+01  0.26855813347E+02  0.00000000000E+00 0.  1.
</event>
<event>
 8    1  0.2512298E-006  0.9118800E+02  0.7816164E-02  0.1184000E+00
        -11   -1    0    0    0    0  0.00000000000E+00  0.00000000000E+00  0.45593999997E+02  0.45594000000E+02  0.51100000000E-03 0.  1.
         11   -1    0    0    0    0 -0.00000000000E+00 -0.00000000000E+00 -0.45593999997E+02  0.45594000000E+02  0.51100000000E-03 0. -1.
         23    2    1    2    0    0 -0.17763568394E-14  0.00000000000E+00  0.00000000000E+00  0.91188000000E+02  0.91188000000E+02 0.  0.
    9900012    2    3    3    0    0  0.13127904986E+02  0.18635309245E+02  0.28916473868E+02  0.54367094240E+02  0.40000022940E+02 0.  0.
         12    1    3    3    0    0 -0.13127904986E+02 -0.18635309245E+02 -0.28916473868E+02  0.36820905760E+02  0.00000000000E+00 0. -1.
         11    1    4    4    0    0  0.77878233752E+01  0.16051690665E+02  0.47861865361E+01  0.18471993610E+02  0.51100000000E-03 0. -1.
        -11    1    4    4    0    0  0.76452081000E+01 -0.49785605741E+01 -0.13444333972E+01  0.92218638952E+01  0.51100000000E-03 0.  1.
        -12    1    4    4    0    0 -0.23051264891E+01  0.75621791549E+01  0.25474720729E+02  0.26673236735E+02  0.00000000000E+00 0.  1.
</event>
<event>
 8    1  0.2512298E-006  0.9118800E+02  0.7816164E-02  0.1184000E+00
        -11   -1    0    0    0    0  0.00000000000E+00  0.00000000000E+00  0.45593999997E+02  0.45594000000E+02  0.51100000000E-03 0.  1.
         11   -1    0    0    0    0 -0.00000000000E+00 -0.00000000000E+00 -0.45593999997E+02  0.45594000000E+02  0.51100000000E-03 0. -1.
         23    2    1    2    0    0  0.44408920985E-15  0.00000000000E+00  0.00000000000E+00  0.91188000000E+02  0.91188000000E+02 0.  0.
    9900012    2    3    3    0    0 -0.38287336734E+01  0.32712827691E+02 -0.16462003703E+02  0.54367002417E+02  0.39999813610E+02 0.  0.
        -12    1    3    3    0    0  0.38287336734E+01 -0.32712827691E+02  0.16462003703E+02  0.36820997583E+02  0.00000000000E+00 0.  1.
         11    1    4    4    0    0  0.55175214754E+01  0.37416100487E+02 -0.19367352377E+02  0.42491198586E+02  0.51100000000E-03 0. -1.
        -11    1    4    4    0    0 -0.91460804739E+01 -0.27723095517E+01  0.26511750688E+01  0.99179240666E+01  0.51100000000E-03 0.  1.
         12    1    4    4    0    0 -0.20017467500E+00 -0.19309632448E+01  0.25417360481E+00  0.19578797651E+01  0.00000000000E+00 0. -1.
</event>
<event>
 8    1  0.2512298E-006  0.9118800E+02  0.7816164E-02  0.1184000E+00
        -11   -1    0    0    0    0  0.00000000000E+00  0.00000000000E+00  0.45593999997E+02  0.45594000000E+02  0.51100000000E-03 0.  1.
         11   -1    0    0    0    0 -0.00000000000E+00 -0.00000000000E+00 -0.45593999997E+02  0.45594000000E+02  0.51100000000E-03 0. -1.
         23    2    1    2    0    0  0.35527136788E-14  0.00000000000E+00  0.00000000000E+00  0.91188000000E+02  0.91188000000E+02 0.  0.
    9900012    2    3    3    0    0  0.19050108384E+02  0.48449376747E+01 -0.31135188303E+02  0.54367082016E+02  0.39999995072E+02 0.  0.
        -12    1    3    3    0    0 -0.19050108384E+02 -0.48449376747E+01  0.31135188303E+02  0.36820917984E+02  0.00000000000E+00 0.  1.
         11    1    4    4    0    0 -0.28457023540E+01  0.30727790404E+00 -0.27782304275E+02  0.27929355035E+02  0.51100000000E-03 0. -1.
        -11    1    4    4    0    0  0.98290315672E+01  0.83801213310E+01 -0.46034584456E+01  0.13712334775E+02  0.51100000000E-03 0.  1.
         12    1    4    4    0    0  0.12066779171E+02 -0.38424615604E+01  0.12505744177E+01  0.12725392205E+02  0.00000000000E+00 0. -1.
</event>
<event>
 8    1  0.2512298E-006  0.9118800E+02  0.7816164E-02  0.1184000E+00
        -11   -1    0    0    0    0  0.00000000000E+00  0.00000000000E+00  0.45593999997E+02  0.45594000000E+02  0.51100000000E-03 0. -1.
         11   -1    0    0    0    0 -0.00000000000E+00 -0.00000000000E+00 -0.45593999997E+02  0.45594000000E+02  0.51100000000E-03 0.  1.
         23    2    1    2    0    0  0.00000000000E+00  0.00000000000E+00 -0.26645352591E-14  0.91188000000E+02  0.91188000000E+02 0.  0.
    9900012    2    3    3    0    0  0.72315662677E+00 -0.36229685253E+02  0.65320116814E+01  0.54367078968E+02  0.39999988123E+02 0.  0.
        -12    1    3    3    0    0 -0.72315662677E+00  0.36229685253E+02 -0.65320116814E+01  0.36820921032E+02  0.00000000000E+00 0.  1.
         11    1    4    4    0    0  0.26758310878E+00 -0.29996999512E+02  0.13567695451E+02  0.32923759515E+02  0.51100000000E-03 0. -1.
        -11    1    4    4    0    0  0.78013163190E+00 -0.33172997237E+01  0.66363305202E+01  0.74601585677E+01  0.51100000000E-03 0.  1.
         12    1    4    4    0    0 -0.32455811391E+00 -0.29153860173E+01 -0.13672014290E+02  0.13983160886E+02  0.00000000000E+00 0. -1.
</event>
<event>
 8    1  0.2512298E-006  0.9118800E+02  0.7816164E-02  0.1184000E+00
        -11   -1    0    0    0    0  0.00000000000E+00  0.00000000000E+00  0.45593999997E+02  0.45594000000E+02  0.51100000000E-03 0.  1.
         11   -1    0    0    0    0 -0.00000000000E+00 -0.00000000000E+00 -0.45593999997E+02  0.45594000000E+02  0.51100000000E-03 0. -1.
         23    2    1    2    0    0  0.17763568394E-14  0.00000000000E+00 -0.88817841970E-15  0.91188000000E+02  0.91188000000E+02 0.  0.
    9900012    2    3    3    0    0 -0.12059983145E+02  0.34406004684E+02  0.51539728690E+01  0.54367084910E+02  0.40000001669E+02 0.  0.
         12    1    3    3    0    0  0.12059983145E+02 -0.34406004684E+02 -0.51539728690E+01  0.36820915090E+02  0.00000000000E+00 0. -1.
         11    1    4    4    0    0 -0.26563238120E+01  0.24341261182E+02  0.44874202966E+00  0.24489884071E+02  0.51100000000E-03 0. -1.
        -11    1    4    4    0    0 -0.71579675216E+01  0.82570270284E+01  0.15353664214E+02  0.18845423833E+02  0.51100000000E-03 0.  1.
         12    1    4    4    0    0 -0.22456918115E+01  0.18077164728E+01 -0.10648433375E+02  0.11031777005E+02  0.00000000000E+00 0. -1.
</event>
<event>
 8    1  0.2512298E-006  0.9118800E+02  0.7816164E-02  0.1184000E+00
        -11   -1    0    0    0    0  0.00000000000E+00  0.00000000000E+00  0.45593999997E+02  0.45594000000E+02  0.51100000000E-03 0. -1.
         11   -1    0    0    0    0 -0.00000000000E+00 -0.00000000000E+00 -0.45593999997E+02  0.45594000000E+02  0.51100000000E-03 0.  1.
         23    2    1    2    0    0  0.17763568394E-14  0.00000000000E+00  0.00000000000E+00  0.91188000000E+02  0.91188000000E+02 0.  0.
    9900012    2    3    3    0    0 -0.10206732876E+02  0.31012564142E+02  0.17024197828E+02  0.54367084173E+02  0.39999999989E+02 0.  0.
        -12    1    3    3    0    0  0.10206732876E+02 -0.31012564142E+02 -0.17024197828E+02  0.36820915827E+02  0.00000000000E+00 0.  1.
         11    1    4    4    0    0 -0.39452403976E+01  0.16363166414E+02  0.14978396977E+02  0.22531544846E+02  0.51100000000E-03 0. -1.
        -11    1    4    4    0    0  0.10243996043E+02  0.92240565718E+00  0.11448245066E+01  0.10348956978E+02  0.51100000000E-03 0.  1.
         12    1    4    4    0    0 -0.16505488522E+02  0.13726992071E+02  0.90097634437E+00  0.21486582348E+02  0.00000000000E+00 0. -1.
</event>
<event>
 8    1  0.2512298E-006  0.9118800E+02  0.7816164E-02  0.1184000E+00
        -11   -1    0    0    0    0  0.00000000000E+00  0.00000000000E+00  0.45593999997E+02  0.45594000000E+02  0.51100000000E-03 0. -1.
         11   -1    0    0    0    0 -0.00000000000E+00 -0.00000000000E+00 -0.45593999997E+02  0.45594000000E+02  0.51100000000E-03 0.  1.
         23    2    1    2    0    0  0.17763568394E-14  0.11102230246E-14  0.00000000000E+00  0.91188000000E+02  0.91188000000E+02 0.  0.
    9900012    2    3    3    0    0  0.42890690801E+01 -0.13977509931E+01 -0.36543534454E+02  0.54367085674E+02  0.40000003410E+02 0.  0.
         12    1    3    3    0    0 -0.42890690801E+01  0.13977509931E+01  0.36543534454E+02  0.36820914326E+02  0.00000000000E+00 0. -1.
         11    1    4    4    0    0  0.60092222831E+01 -0.98810859636E+01 -0.22560533520E+01  0.11782885438E+02  0.51100000000E-03 0. -1.
        -11    1    4    4    0    0 -0.12681142723E+02  0.32853859940E+01 -0.16882866587E+02  0.21369050665E+02  0.51100000000E-03 0.  1.
        -12    1    4    4    0    0  0.10960989520E+02  0.51979489765E+01 -0.17404614516E+02  0.21215149570E+02  0.00000000000E+00 0.  1.
</event>
<event>
 8    1  0.2512298E-006  0.9118800E+02  0.7816164E-02  0.1184000E+00
        -11   -1    0    0    0    0  0.00000000000E+00  0.00000000000E+00  0.45593999997E+02  0.45594000000E+02  0.51100000000E-03 0. -1.
         11   -1    0    0    0    0 -0.00000000000E+00 -0.00000000000E+00 -0.45593999997E+02  0.45594000000E+02  0.51100000000E-03 0.  1.
         23    2    1    2    0    0  0.17763568394E-14 -0.17763568394E-14  0.00000000000E+00  0.91188000000E+02  0.91188000000E+02 0.  0.
    9900012    2    3    3    0    0  0.70331504166E+01 -0.15213337340E+02 -0.32785190867E+02  0.54367087762E+02  0.40000008172E+02 0.  0.
         12    1    3    3    0    0 -0.70331504166E+01  0.15213337340E+02  0.32785190867E+02  0.36820912238E+02  0.00000000000E+00 0. -1.
         11    1    4    4    0    0 -0.77643719267E+01  0.38442295631E+01 -0.25257734843E+02  0.26702373340E+02  0.51100000000E-03 0. -1.
        -11    1    4    4    0    0  0.55662059194E+01 -0.32183702842E+01 -0.67398673313E+01  0.93148466186E+01  0.51100000000E-03 0.  1.
        -12    1    4    4    0    0  0.92313164239E+01 -0.15839196619E+02 -0.78758869336E+00  0.18349867804E+02  0.00000000000E+00 0.  1.
</event>
<event>
 8    1  0.2512298E-006  0.9118800E+02  0.7816164E-02  0.1184000E+00
        -11   -1    0    0    0    0  0.00000000000E+00  0.00000000000E+00  0.45593999997E+02  0.45594000000E+02  0.51100000000E-03 0.  1.
         11   -1    0    0    0    0 -0.00000000000E+00 -0.00000000000E+00 -0.45593999997E+02  0.45594000000E+02  0.51100000000E-03 0. -1.
         23    2    1    2    0    0  0.00000000000E+00 -0.35527136788E-14  0.00000000000E+00  0.91188000000E+02  0.91188000000E+02 0.  0.
    9900012    2    3    3    0    0  0.19292478543E+02 -0.29535635782E+02  0.10546192883E+02  0.54367140509E+02  0.40000128417E+02 0.  0.
         12    1    3    3    0    0 -0.19292478543E+02  0.29535635782E+02 -0.10546192883E+02  0.36820859491E+02  0.00000000000E+00 0. -1.
         11    1    4    4    0    0  0.12299914870E+02 -0.71520129025E+00  0.59657187734E-01  0.12320835115E+02  0.51100000000E-03 0. -1.
        -11    1    4    4    0    0  0.14394047504E+02 -0.21849668265E+02  0.15809215214E+02  0.30570048949E+02  0.51100000000E-03 0.  1.
         12    1    4    4    0    0 -0.74014838316E+01 -0.69707662271E+01 -0.53226795188E+01  0.11476256444E+02  0.00000000000E+00 0. -1.
</event>
<event>
 8    1  0.2512298E-006  0.9118800E+02  0.7816164E-02  0.1184000E+00
        -11   -1    0    0    0    0  0.00000000000E+00  0.00000000000E+00  0.45593999997E+02  0.45594000000E+02  0.51100000000E-03 0.  1.
         11   -1    0    0    0    0 -0.00000000000E+00 -0.00000000000E+00 -0.45593999997E+02  0.45594000000E+02  0.51100000000E-03 0. -1.
         23    2    1    2    0    0 -0.17763568394E-14 -0.88817841970E-15  0.00000000000E+00  0.91188000000E+02  0.91188000000E+02 0.  0.
    9900012    2    3    3    0    0 -0.14792180435E+02 -0.63603383977E+01  0.33113708511E+02  0.54367079345E+02  0.39999988983E+02 0.  0.
         12    1    3    3    0    0  0.14792180435E+02  0.63603383977E+01 -0.33113708511E+02  0.36820920655E+02  0.00000000000E+00 0. -1.
         11    1    4    4    0    0 -0.19001851095E+02 -0.19267296270E+01  0.44028863751E+01  0.19600205121E+02  0.51100000000E-03 0. -1.
        -11    1    4    4    0    0 -0.40638873654E+01  0.22625568900E+01  0.57698051247E+00  0.46869234015E+01  0.51100000000E-03 0.  1.
         12    1    4    4    0    0  0.82735580262E+01 -0.66961656607E+01  0.28133841623E+02  0.30079950822E+02  0.00000000000E+00 0. -1.
</event>
<event>
 8    1  0.2512298E-006  0.9118800E+02  0.7816164E-02  0.1184000E+00
        -11   -1    0    0    0    0  0.00000000000E+00  0.00000000000E+00  0.45593999997E+02  0.45594000000E+02  0.51100000000E-03 0.  1.
         11   -1    0    0    0    0 -0.00000000000E+00 -0.00000000000E+00 -0.45593999997E+02  0.45594000000E+02  0.51100000000E-03 0. -1.
         23    2    1    2    0    0 -0.35527136788E-14  0.35527136788E-14  0.88817841970E-15  0.91188000000E+02  0.91188000000E+02 0.  0.
    9900012    2    3    3    0    0  0.24324236389E+02 -0.26752858293E+02  0.69562753336E+01  0.54367167999E+02  0.40000191086E+02 0.  0.
        -12    1    3    3    0    0 -0.24324236389E+02  0.26752858293E+02 -0.69562753336E+01  0.36820832001E+02  0.00000000000E+00 0.  1.
         11    1    4    4    0    0  0.17599453361E+02 -0.72100657401E+01  0.83785084988E+01  0.20782810482E+02  0.51100000000E-03 0.  1.
        -11    1    4    4    0    0  0.68520881846E+01 -0.68719151310E+01 -0.13133457286E+02  0.16329789668E+02  0.51100000000E-03 0. -1.
         12    1    4    4    0    0 -0.12730515744E+00 -0.12670877422E+02  0.11711224121E+02  0.17254567849E+02  0.00000000000E+00 0. -1.
</event>
<event>
 8    1  0.2512298E-006  0.9118800E+02  0.7816164E-02  0.1184000E+00
        -11   -1    0    0    0    0  0.00000000000E+00  0.00000000000E+00  0.45593999997E+02  0.45594000000E+02  0.51100000000E-03 0. -1.
         11   -1    0    0    0    0 -0.00000000000E+00 -0.00000000000E+00 -0.45593999997E+02  0.45594000000E+02  0.51100000000E-03 0.  1.
         23    2    1    2    0    0  0.00000000000E+00  0.00000000000E+00  0.00000000000E+00  0.91188000000E+02  0.91188000000E+02 0.  0.
    9900012    2    3    3    0    0 -0.82966616031E+01 -0.31766556056E+02  0.16668449283E+02  0.54367002201E+02  0.39999813116E+02 0.  0.
         12    1    3    3    0    0  0.82966616031E+01  0.31766556056E+02 -0.16668449283E+02  0.36820997799E+02  0.00000000000E+00 0. -1.
         11    1    4    4    0    0 -0.53087994282E-01 -0.34670676179E+01  0.20642531068E+02  0.20931733453E+02  0.51100000000E-03 0. -1.
        -11    1    4    4    0    0 -0.21831708517E+01 -0.62361433827E+01 -0.78158685421E+01  0.10234428200E+02  0.51100000000E-03 0.  1.
        -12    1    4    4    0    0 -0.60604027571E+01 -0.22063345056E+02  0.38417867578E+01  0.23200840548E+02  0.00000000000E+00 0.  1.
</event>
<event>
 8    1  0.2512298E-006  0.9118800E+02  0.7816164E-02  0.1184000E+00
        -11   -1    0    0    0    0  0.00000000000E+00  0.00000000000E+00  0.45593999997E+02  0.45594000000E+02  0.51100000000E-03 0. -1.
         11   -1    0    0    0    0 -0.00000000000E+00 -0.00000000000E+00 -0.45593999997E+02  0.45594000000E+02  0.51100000000E-03 0.  1.
         23    2    1    2    0    0 -0.35527136788E-14  0.35527136788E-14 -0.44408920985E-15  0.91188000000E+02  0.91188000000E+02 0.  0.
    9900012    2    3    3    0    0 -0.25462383350E+02 -0.26315108656E+02  0.38681590083E+01  0.54367074380E+02  0.39999977663E+02 0.  0.
        -12    1    3    3    0    0  0.25462383350E+02  0.26315108656E+02 -0.38681590083E+01  0.36820925620E+02  0.00000000000E+00 0.  1.
         11    1    4    4    0    0 -0.11139763519E+02 -0.10944316650E+02  0.13362520306E+02  0.20553086079E+02  0.51100000000E-03 0. -1.
        -11    1    4    4    0    0  0.41154048955E+01 -0.13268477610E+02 -0.43328008953E+01  0.14552052068E+02  0.51100000000E-03 0.  1.
        -12    1    4    4    0    0 -0.18438024727E+02 -0.21023143968E+01 -0.51615604023E+01  0.19261936233E+02  0.00000000000E+00 0.  1.
</event>
<event>
 8    1  0.2512298E-006  0.9118800E+02  0.7816164E-02  0.1184000E+00
        -11   -1    0    0    0    0  0.00000000000E+00  0.00000000000E+00  0.45593999997E+02  0.45594000000E+02  0.51100000000E-03 0. -1.
         11   -1    0    0    0    0 -0.00000000000E+00 -0.00000000000E+00 -0.45593999997E+02  0.45594000000E+02  0.51100000000E-03 0.  1.
         23    2    1    2    0    0  0.00000000000E+00  0.00000000000E+00  0.00000000000E+00  0.91188000000E+02  0.91188000000E+02 0.  0.
    9900012    2    3    3    0    0  0.34131218291E+02 -0.68887929767E+01  0.11974485786E+02  0.54367029881E+02  0.39999876219E+02 0.  0.
        -12    1    3    3    0    0 -0.34131218291E+02  0.68887929767E+01 -0.11974485786E+02  0.36820970119E+02  0.00000000000E+00 0.  1.
         11    1    4    4    0    0  0.25990348305E+02 -0.96902312934E+01  0.17473340065E+02  0.32782867489E+02  0.51100000000E-03 0. -1.
        -11    1    4    4    0    0  0.41366833916E+01 -0.27802109567E+01 -0.11454898765E+02  0.12492254737E+02  0.51100000000E-03 0.  1.
         12    1    4    4    0    0  0.40041865945E+01  0.55816492734E+01  0.59560444852E+01  0.90919076549E+01  0.00000000000E+00 0. -1.
</event>
<event>
 8    1  0.2512298E-006  0.9118800E+02  0.7816164E-02  0.1184000E+00
        -11   -1    0    0    0    0  0.00000000000E+00  0.00000000000E+00  0.45593999997E+02  0.45594000000E+02  0.51100000000E-03 0.  1.
         11   -1    0    0    0    0 -0.00000000000E+00 -0.00000000000E+00 -0.45593999997E+02  0.45594000000E+02  0.51100000000E-03 0. -1.
         23    2    1    2    0    0 -0.35527136788E-14  0.00000000000E+00  0.00000000000E+00  0.91188000000E+02  0.91188000000E+02 0.  0.
    9900012    2    3    3    0    0  0.28849591905E+02  0.91952842272E+01  0.20950588280E+02  0.54367090799E+02  0.40000015095E+02 0.  0.
         12    1    3    3    0    0 -0.28849591905E+02 -0.91952842272E+01 -0.20950588280E+02  0.36820909201E+02  0.00000000000E+00 0. -1.
         11    1    4    4    0    0  0.55529457716E+01 -0.68429468508E+01  0.11811408220E+01  0.88913566033E+01  0.51100000000E-03 0. -1.
        -11    1    4    4    0    0  0.16490521404E+02  0.30794343505E+01 -0.42882544210E+01  0.17315003273E+02  0.51100000000E-03 0.  1.
         12    1    4    4    0    0  0.68061247295E+01  0.12958796727E+02  0.24057701879E+02  0.28160730924E+02  0.00000000000E+00 0. -1.
</event>
<event>
 8    1  0.2512298E-006  0.9118800E+02  0.7816164E-02  0.1184000E+00
        -11   -1    0    0    0    0  0.00000000000E+00  0.00000000000E+00  0.45593999997E+02  0.45594000000E+02  0.51100000000E-03 0. -1.
         11   -1    0    0    0    0 -0.00000000000E+00 -0.00000000000E+00 -0.45593999997E+02  0.45594000000E+02  0.51100000000E-03 0.  1.
         23    2    1    2    0    0  0.00000000000E+00 -0.35527136788E-14  0.35527136788E-14  0.91188000000E+02  0.91188000000E+02 0.  0.
    9900012    2    3    3    0    0 -0.31142730828E+02 -0.89962501406E+01  0.17463608942E+02  0.54367084241E+02  0.40000000145E+02 0.  0.
        -12    1    3    3    0    0  0.31142730828E+02  0.89962501406E+01 -0.17463608942E+02  0.36820915759E+02  0.00000000000E+00 0.  1.
         11    1    4    4    0    0 -0.88499599147E+01 -0.36804939499E+01  0.24408232659E+01  0.98906746323E+01  0.51100000000E-03 0. -1.
        -11    1    4    4    0    0 -0.26627477301E+02  0.69826208929E+01  0.15179381791E+02  0.31435539979E+02  0.51100000000E-03 0.  1.
        -12    1    4    4    0    0  0.43347063880E+01 -0.12298377084E+02 -0.15659611469E+00  0.13040869630E+02  0.00000000000E+00 0.  1.
</event>
<event>
 8    1  0.2512298E-006  0.9118800E+02  0.7816164E-02  0.1184000E+00
        -11   -1    0    0    0    0  0.00000000000E+00  0.00000000000E+00  0.45593999997E+02  0.45594000000E+02  0.51100000000E-03 0.  1.
         11   -1    0    0    0    0 -0.00000000000E+00 -0.00000000000E+00 -0.45593999997E+02  0.45594000000E+02  0.51100000000E-03 0. -1.
         23    2    1    2    0    0  0.53290705182E-14  0.00000000000E+00  0.00000000000E+00  0.91188000000E+02  0.91188000000E+02 0.  0.
    9900012    2    3    3    0    0  0.11304718305E+02  0.34812041669E+02  0.40130535606E+01  0.54367088822E+02  0.40000010588E+02 0.  0.
        -12    1    3    3    0    0 -0.11304718305E+02 -0.34812041669E+02 -0.40130535606E+01  0.36820911178E+02  0.00000000000E+00 0.  1.
         11    1    4    4    0    0 -0.45592385174E+01  0.47677317871E+01  0.41145449522E+01  0.77747927739E+01  0.51100000000E-03 0. -1.
        -11    1    4    4    0    0 -0.71213985549E+01 -0.15293247515E+01 -0.17944324025E+01  0.75015424735E+01  0.51100000000E-03 0.  1.
         12    1    4    4    0    0  0.22985355377E+02  0.31573634633E+02  0.16929410108E+01  0.39090753575E+02  0.00000000000E+00 0. -1.
</event>
<event>
 8    1  0.2512298E-006  0.9118800E+02  0.7816164E-02  0.1184000E+00
        -11   -1    0    0    0    0  0.00000000000E+00  0.00000000000E+00  0.45593999997E+02  0.45594000000E+02  0.51100000000E-03 0.  1.
         11   -1    0    0    0    0 -0.00000000000E+00 -0.00000000000E+00 -0.45593999997E+02  0.45594000000E+02  0.51100000000E-03 0. -1.
         23    2    1    2    0    0  0.00000000000E+00  0.00000000000E+00 -0.44408920985E-15  0.91188000000E+02  0.91188000000E+02 0.  0.
    9900012    2    3    3    0    0  0.36627265198E+02 -0.27871034804E+01 -0.25431168732E+01  0.54366919827E+02  0.39999625328E+02 0.  0.
        -12    1    3    3    0    0 -0.36627265198E+02  0.27871034804E+01  0.25431168732E+01  0.36821080173E+02  0.00000000000E+00 0.  1.
         11    1    4    4    0    0  0.26744851950E+02  0.22157617907E+01  0.17320432023E+01  0.26892316375E+02  0.51100000000E-03 0. -1.
        -11    1    4    4    0    0 -0.57355302409E+01  0.28758458978E+01  0.45656354865E+01  0.78747586901E+01  0.51100000000E-03 0.  1.
        -12    1    4    4    0    0  0.15617943489E+02 -0.78787111690E+01 -0.88407955620E+01  0.19599844761E+02  0.00000000000E+00 0.  1.
</event>
<event>
 8    1  0.2512298E-006  0.9118800E+02  0.7816164E-02  0.1184000E+00
        -11   -1    0    0    0    0  0.00000000000E+00  0.00000000000E+00  0.45593999997E+02  0.45594000000E+02  0.51100000000E-03 0. -1.
         11   -1    0    0    0    0 -0.00000000000E+00 -0.00000000000E+00 -0.45593999997E+02  0.45594000000E+02  0.51100000000E-03 0.  1.
         23    2    1    2    0    0  0.71054273576E-14 -0.88817841970E-15  0.44408920985E-14  0.91188000000E+02  0.91188000000E+02 0.  0.
    9900012    2    3    3    0    0 -0.35789285225E+02  0.67018991432E+01 -0.54765717984E+01  0.54367065361E+02  0.39999957104E+02 0.  0.
         12    1    3    3    0    0  0.35789285225E+02 -0.67018991432E+01  0.54765717984E+01  0.36820934639E+02  0.00000000000E+00 0. -1.
         11    1    4    4    0    0 -0.23033155756E+01  0.61245597995E+01  0.13759445426E+02  0.15236070165E+02  0.51100000000E-03 0. -1.
        -11    1    4    4    0    0 -0.31819079395E+02  0.15847789178E+01 -0.19171715440E+02  0.37182253978E+02  0.51100000000E-03 0.  1.
         12    1    4    4    0    0 -0.16668902545E+01 -0.10074395741E+01 -0.64301784495E-01  0.19487412182E+01  0.00000000000E+00 0. -1.
</event>
<event>
 8    1  0.2512298E-006  0.9118800E+02  0.7816164E-02  0.1184000E+00
        -11   -1    0    0    0    0  0.00000000000E+00  0.00000000000E+00  0.45593999997E+02  0.45594000000E+02  0.51100000000E-03 0.  1.
         11   -1    0    0    0    0 -0.00000000000E+00 -0.00000000000E+00 -0.45593999997E+02  0.45594000000E+02  0.51100000000E-03 0. -1.
         23    2    1    2    0    0  0.00000000000E+00  0.00000000000E+00 -0.17763568394E-14  0.91188000000E+02  0.91188000000E+02 0.  0.
    9900012    2    3    3    0    0 -0.18420561696E+02  0.29949709212E+02  0.10930567471E+02  0.54367089089E+02  0.40000011196E+02 0.  0.
         12    1    3    3    0    0  0.18420561696E+02 -0.29949709212E+02 -0.10930567471E+02  0.36820910911E+02  0.00000000000E+00 0. -1.
         11    1    4    4    0    0 -0.20808720736E+02  0.80839298576E+01 -0.26595980540E+01  0.22481686830E+02  0.51100000000E-03 0. -1.
        -11    1    4    4    0    0 -0.13760101888E+01  0.20790576967E+02  0.16845600508E+02  0.26793949903E+02  0.51100000000E-03 0.  1.
        -12    1    4    4    0    0  0.37641692291E+01  0.10752023872E+01 -0.32554349838E+01  0.50914523559E+01  0.00000000000E+00 0.  1.
</event>
<event>
 8    1  0.2512298E-006  0.9118800E+02  0.7816164E-02  0.1184000E+00
        -11   -1    0    0    0    0  0.00000000000E+00  0.00000000000E+00  0.45593999997E+02  0.45594000000E+02  0.51100000000E-03 0. -1.
         11   -1    0    0    0    0 -0.00000000000E+00 -0.00000000000E+00 -0.45593999997E+02  0.45594000000E+02  0.51100000000E-03 0.  1.
         23    2    1    2    0    0 -0.44408920985E-15  0.88817841970E-15  0.00000000000E+00  0.91188000000E+02  0.91188000000E+02 0.  0.
    9900012    2    3    3    0    0  0.28144778504E+01  0.57500396119E+01  0.36260109855E+02  0.54367084642E+02  0.40000001059E+02 0.  0.
        -12    1    3    3    0    0 -0.28144778504E+01 -0.57500396119E+01 -0.36260109855E+02  0.36820915358E+02  0.00000000000E+00 0.  1.
         11    1    4    4    0    0 -0.64379376636E+01  0.68105822671E+01  0.99273358420E+01  0.13652218478E+02  0.51100000000E-03 0. -1.
        -11    1    4    4    0    0  0.19954165221E+02  0.14585903422E+01  0.15862387131E+02  0.25532558063E+02  0.51100000000E-03 0.  1.
        -12    1    4    4    0    0 -0.10701749707E+02 -0.25191329973E+01  0.10470386881E+02  0.15182308102E+02  0.00000000000E+00 0.  1.
</event>
<event>
 8    1  0.2512298E-006  0.9118800E+02  0.7816164E-02  0.1184000E+00
        -11   -1    0    0    0    0  0.00000000000E+00  0.00000000000E+00  0.45593999997E+02  0.45594000000E+02  0.51100000000E-03 0.  1.
         11   -1    0    0    0    0 -0.00000000000E+00 -0.00000000000E+00 -0.45593999997E+02  0.45594000000E+02  0.51100000000E-03 0. -1.
         23    2    1    2    0    0  0.88817841970E-15  0.00000000000E+00 -0.88817841970E-15  0.91188000000E+02  0.91188000000E+02 0.  0.
    9900012    2    3    3    0    0 -0.64756636383E+01  0.35815782886E+02  0.55743791018E+01  0.54367106127E+02  0.40000050037E+02 0.  0.
        -12    1    3    3    0    0  0.64756636383E+01 -0.35815782886E+02 -0.55743791018E+01  0.36820893873E+02  0.00000000000E+00 0.  1.
         11    1    4    4    0    0  0.38211503625E+00  0.36097006007E+02  0.12577334825E+02  0.38227335849E+02  0.51100000000E-03 0. -1.
        -11    1    4    4    0    0 -0.52690245349E+01 -0.55646715075E+01 -0.59874014829E+00  0.76867859708E+01  0.51100000000E-03 0.  1.
         12    1    4    4    0    0 -0.15887541397E+01  0.52834483865E+01 -0.64042155747E+01  0.84529843071E+01  0.00000000000E+00 0. -1.
</event>
<event>
 8    1  0.2512298E-006  0.9118800E+02  0.7816164E-02  0.1184000E+00
        -11   -1    0    0    0    0  0.00000000000E+00  0.00000000000E+00  0.45593999997E+02  0.45594000000E+02  0.51100000000E-03 0.  1.
         11   -1    0    0    0    0 -0.00000000000E+00 -0.00000000000E+00 -0.45593999997E+02  0.45594000000E+02  0.51100000000E-03 0. -1.
         23    2    1    2    0    0 -0.35527136788E-14  0.88817841970E-15  0.00000000000E+00  0.91188000000E+02  0.91188000000E+02 0.  0.
    9900012    2    3    3    0    0 -0.24367075761E+02 -0.39037751222E+01 -0.27327418521E+02  0.54367059703E+02  0.39999944205E+02 0.  0.
        -12    1    3    3    0    0  0.24367075761E+02  0.39037751222E+01  0.27327418521E+02  0.36820940297E+02  0.00000000000E+00 0.  1.
         11    1    4    4    0    0 -0.18819350618E+01 -0.96758892963E+01 -0.35032884346E+01  0.10461240049E+02  0.51100000000E-03 0. -1.
        -11    1    4    4    0    0  0.98886498840E+00  0.80944231811E+01  0.25288637886E+01  0.85377217642E+01  0.51100000000E-03 0.  1.
         12    1    4    4    0    0 -0.23474005688E+02 -0.23223090071E+01 -0.26352993875E+02  0.35368097889E+02  0.00000000000E+00 0. -1.
</event>
<event>
 8    1  0.2512298E-006  0.9118800E+02  0.7816164E-02  0.1184000E+00
        -11   -1    0    0    0    0  0.00000000000E+00  0.00000000000E+00  0.45593999997E+02  0.45594000000E+02  0.51100000000E-03 0. -1.
         11   -1    0    0    0    0 -0.00000000000E+00 -0.00000000000E+00 -0.45593999997E+02  0.45594000000E+02  0.51100000000E-03 0.  1.
         23    2    1    2    0    0  0.00000000000E+00  0.00000000000E+00 -0.88817841970E-15  0.91188000000E+02  0.91188000000E+02 0.  0.
    9900012    2    3    3    0    0  0.27391435898E+02 -0.23736416823E+02  0.64859601930E+01  0.54367137384E+02  0.40000121294E+02 0.  0.
        -12    1    3    3    0    0 -0.27391435898E+02  0.23736416823E+02 -0.64859601930E+01  0.36820862616E+02  0.00000000000E+00 0.  1.
         11    1    4    4    0    0  0.31133306984E+02 -0.14493505036E+02  0.14808627878E+02  0.37398395045E+02  0.51100000000E-03 0. -1.
        -11    1    4    4    0    0  0.18027637081E+00 -0.74843860955E+01 -0.98807933015E+01  0.12396717764E+02  0.51100000000E-03 0.  1.
         12    1    4    4    0    0 -0.39221474571E+01 -0.17585256913E+01  0.15581256160E+01  0.45720245753E+01  0.00000000000E+00 0. -1.
</event>
<event>
 8    1  0.2512298E-006  0.9118800E+02  0.7816164E-02  0.1184000E+00
        -11   -1    0    0    0    0  0.00000000000E+00  0.00000000000E+00  0.45593999997E+02  0.45594000000E+02  0.51100000000E-03 0.  1.
         11   -1    0    0    0    0 -0.00000000000E+00 -0.00000000000E+00 -0.45593999997E+02  0.45594000000E+02  0.51100000000E-03 0. -1.
         23    2    1    2    0    0  0.00000000000E+00 -0.35527136788E-14 -0.35527136788E-14  0.91188000000E+02  0.91188000000E+02 0.  0.
    9900012    2    3    3    0    0  0.16590850170E+02 -0.26484531124E+02 -0.19470310248E+02  0.54367086386E+02  0.40000005034E+02 0.  0.
        -12    1    3    3    0    0 -0.16590850170E+02  0.26484531124E+02  0.19470310248E+02  0.36820913614E+02  0.00000000000E+00 0.  1.
         11    1    4    4    0    0 -0.39917011405E+01  0.44320821927E+01 -0.13287047926E+02  0.14564431791E+02  0.51100000000E-03 0. -1.
        -11    1    4    4    0    0  0.10883653534E+02 -0.17212428781E+02  0.31293482322E+01  0.20603748188E+02  0.51100000000E-03 0.  1.
         12    1    4    4    0    0  0.96988977767E+01 -0.13704184535E+02 -0.93126105540E+01  0.19198906406E+02  0.00000000000E+00 0. -1.
</event>
<event>
 8    1  0.2512298E-006  0.9118800E+02  0.7816164E-02  0.1184000E+00
        -11   -1    0    0    0    0  0.00000000000E+00  0.00000000000E+00  0.45593999997E+02  0.45594000000E+02  0.51100000000E-03 0. -1.
         11   -1    0    0    0    0 -0.00000000000E+00 -0.00000000000E+00 -0.45593999997E+02  0.45594000000E+02  0.51100000000E-03 0.  1.
         23    2    1    2    0    0 -0.17763568394E-14  0.35527136788E-14  0.00000000000E+00  0.91188000000E+02  0.91188000000E+02 0.  0.
    9900012    2    3    3    0    0 -0.11087798380E+02  0.25352903891E+02 -0.24291370277E+02  0.54367086397E+02  0.40000005060E+02 0.  0.
        -12    1    3    3    0    0  0.11087798380E+02 -0.25352903891E+02  0.24291370277E+02  0.36820913603E+02  0.00000000000E+00 0.  1.
         11    1    4    4    0    0 -0.12520803088E+02  0.20848624819E+02 -0.13661940542E+01  0.24357794507E+02  0.51100000000E-03 0. -1.
        -11    1    4    4    0    0  0.11043280005E+01  0.11754563583E+02 -0.16673509963E+02  0.20430253060E+02  0.51100000000E-03 0.  1.
        -12    1    4    4    0    0  0.32867670762E+00 -0.72502845112E+01 -0.62516662605E+01  0.95790388299E+01  0.00000000000E+00 0.  1.
</event>
<event>
 8    1  0.2512298E-006  0.9118800E+02  0.7816164E-02  0.1184000E+00
        -11   -1    0    0    0    0  0.00000000000E+00  0.00000000000E+00  0.45593999997E+02  0.45594000000E+02  0.51100000000E-03 0. -1.
         11   -1    0    0    0    0 -0.00000000000E+00 -0.00000000000E+00 -0.45593999997E+02  0.45594000000E+02  0.51100000000E-03 0.  1.
         23    2    1    2    0    0 -0.35527136788E-14 -0.17763568394E-14  0.00000000000E+00  0.91188000000E+02  0.91188000000E+02 0.  0.
    9900012    2    3    3    0    0  0.30184830732E+02  0.13687231786E+02 -0.16041139183E+02  0.54367048538E+02  0.39999918752E+02 0.  0.
         12    1    3    3    0    0 -0.30184830732E+02 -0.13687231786E+02  0.16041139183E+02  0.36820951462E+02  0.00000000000E+00 0. -1.
         11    1    4    4    0    0  0.27271461990E+02  0.46278568971E+01  0.11843351472E+01  0.27686681790E+02  0.51100000000E-03 0. -1.
        -11    1    4    4    0    0  0.10078664137E+02  0.19994145463E+01 -0.95444565602E+01  0.14024042948E+02  0.51100000000E-03 0.  1.
        -12    1    4    4    0    0 -0.71652953955E+01  0.70599603430E+01 -0.76810177703E+01  0.12656323800E+02  0.00000000000E+00 0.  1.
</event>
<event>
 8    1  0.2512298E-006  0.9118800E+02  0.7816164E-02  0.1184000E+00
        -11   -1    0    0    0    0  0.00000000000E+00  0.00000000000E+00  0.45593999997E+02  0.45594000000E+02  0.51100000000E-03 0. -1.
         11   -1    0    0    0    0 -0.00000000000E+00 -0.00000000000E+00 -0.45593999997E+02  0.45594000000E+02  0.51100000000E-03 0.  1.
         23    2    1    2    0    0  0.00000000000E+00  0.00000000000E+00  0.00000000000E+00  0.91188000000E+02  0.91188000000E+02 0.  0.
    9900012    2    3    3    0    0  0.13568011815E+02 -0.28916776324E+02 -0.18316862574E+02  0.54367104409E+02  0.40000046121E+02 0.  0.
         12    1    3    3    0    0 -0.13568011815E+02  0.28916776324E+02  0.18316862574E+02  0.36820895591E+02  0.00000000000E+00 0. -1.
         11    1    4    4    0    0  0.15214344055E+02  0.36357767695E+01 -0.36029266552E+01  0.16052296362E+02  0.51100000000E-03 0. -1.
        -11    1    4    4    0    0 -0.52085628228E+01 -0.20552914231E+02 -0.14695693430E+02  0.25797573834E+02  0.51100000000E-03 0.  1.
         12    1    4    4    0    0  0.35622305829E+01 -0.11999638863E+02 -0.18242488177E-01  0.12517234213E+02  0.00000000000E+00 0. -1.
</event>
<event>
 8    1  0.2512298E-006  0.9118800E+02  0.7816164E-02  0.1184000E+00
        -11   -1    0    0    0    0  0.00000000000E+00  0.00000000000E+00  0.45593999997E+02  0.45594000000E+02  0.51100000000E-03 0.  1.
         11   -1    0    0    0    0 -0.00000000000E+00 -0.00000000000E+00 -0.45593999997E+02  0.45594000000E+02  0.51100000000E-03 0. -1.
         23    2    1    2    0    0  0.00000000000E+00  0.35527136788E-14 -0.88817841970E-15  0.91188000000E+02  0.91188000000E+02 0.  0.
    9900012    2    3    3    0    0 -0.21872986081E+02 -0.28607488817E+02 -0.76788118817E+01  0.54367080831E+02  0.39999992371E+02 0.  0.
        -12    1    3    3    0    0  0.21872986081E+02  0.28607488817E+02  0.76788118817E+01  0.36820919169E+02  0.00000000000E+00 0.  1.
         11    1    4    4    0    0 -0.82982056301E-01 -0.92526995331E+01 -0.18986186086E+02  0.21120951613E+02  0.51100000000E-03 0. -1.
        -11    1    4    4    0    0 -0.12219786576E+02 -0.15958902469E+02  0.11366145879E+02  0.23091102710E+02  0.51100000000E-03 0.  1.
        -12    1    4    4    0    0 -0.95702174488E+01 -0.33958868156E+01 -0.58771674792E-01  0.10155026509E+02  0.00000000000E+00 0.  1.
</event>
<event>
 8    1  0.2512298E-006  0.9118800E+02  0.7816164E-02  0.1184000E+00
        -11   -1    0    0    0    0  0.00000000000E+00  0.00000000000E+00  0.45593999997E+02  0.45594000000E+02  0.51100000000E-03 0. -1.
         11   -1    0    0    0    0 -0.00000000000E+00 -0.00000000000E+00 -0.45593999997E+02  0.45594000000E+02  0.51100000000E-03 0.  1.
         23    2    1    2    0    0  0.17763568394E-14 -0.44408920985E-15 -0.71054273576E-14  0.91188000000E+02  0.91188000000E+02 0.  0.
    9900012    2    3    3    0    0  0.15604864682E+02  0.32586748936E+01 -0.33191109078E+02  0.54367075438E+02  0.39999980076E+02 0.  0.
         12    1    3    3    0    0 -0.15604864682E+02 -0.32586748936E+01  0.33191109078E+02  0.36820924562E+02  0.00000000000E+00 0. -1.
         11    1    4    4    0    0  0.84235047749E+01 -0.56050133092E+01 -0.34981701199E+01  0.10705550025E+02  0.51100000000E-03 0. -1.
        -11    1    4    4    0    0  0.17123903498E+02  0.12141158345E+02 -0.15836940641E+02  0.26295332021E+02  0.51100000000E-03 0.  1.
         12    1    4    4    0    0 -0.99425435909E+01 -0.32774701418E+01 -0.13855998317E+02  0.17366193392E+02  0.00000000000E+00 0. -1.
</event>
<event>
 8    1  0.2512298E-006  0.9118800E+02  0.7816164E-02  0.1184000E+00
        -11   -1    0    0    0    0  0.00000000000E+00  0.00000000000E+00  0.45593999997E+02  0.45594000000E+02  0.51100000000E-03 0.  1.
         11   -1    0    0    0    0 -0.00000000000E+00 -0.00000000000E+00 -0.45593999997E+02  0.45594000000E+02  0.51100000000E-03 0. -1.
         23    2    1    2    0    0  0.17763568394E-14  0.71054273576E-14  0.00000000000E+00  0.91188000000E+02  0.91188000000E+02 0.  0.
    9900012    2    3    3    0    0 -0.11847782082E+02 -0.28664721025E+02  0.19842960506E+02  0.54367092171E+02  0.40000018223E+02 0.  0.
         12    1    3    3    0    0  0.11847782082E+02  0.28664721025E+02 -0.19842960506E+02  0.36820907829E+02  0.00000000000E+00 0. -1.
         11    1    4    4    0    0 -0.39977707586E+01 -0.12294370769E+02 -0.59086072178E+01  0.14214266184E+02  0.51100000000E-03 0. -1.
        -11    1    4    4    0    0 -0.27528183108E+01  0.44242765394E+01  0.15620341495E+02  0.16466550951E+02  0.51100000000E-03 0.  1.
        -12    1    4    4    0    0 -0.50971930127E+01 -0.20794626795E+02  0.10131226229E+02  0.23686275036E+02  0.00000000000E+00 0.  1.
</event>
<event>
 8    1  0.2512298E-006  0.9118800E+02  0.7816164E-02  0.1184000E+00
        -11   -1    0    0    0    0  0.00000000000E+00  0.00000000000E+00  0.45593999997E+02  0.45594000000E+02  0.51100000000E-03 0.  1.
         11   -1    0    0    0    0 -0.00000000000E+00 -0.00000000000E+00 -0.45593999997E+02  0.45594000000E+02  0.51100000000E-03 0. -1.
         23    2    1    2    0    0  0.17763568394E-14  0.00000000000E+00  0.00000000000E+00  0.91188000000E+02  0.91188000000E+02 0.  0.
    9900012    2    3    3    0    0 -0.10963918683E+02 -0.31012258806E+01  0.35013499989E+02  0.54367213801E+02  0.40000295500E+02 0.  0.
         12    1    3    3    0    0  0.10963918683E+02  0.31012258806E+01 -0.35013499989E+02  0.36820786199E+02  0.00000000000E+00 0. -1.
         11    1    4    4    0    0 -0.26886653915E+01  0.18016050471E+01  0.49516566981E+01  0.59155394217E+01  0.51100000000E-03 0. -1.
        -11    1    4    4    0    0 -0.17865886811E+02 -0.10580796849E+02  0.30951161742E+02  0.37270867805E+02  0.51100000000E-03 0.  1.
         12    1    4    4    0    0  0.95906335201E+01  0.56779659218E+01 -0.88931845106E+00  0.11180806573E+02  0.00000000000E+00 0. -1.
</event>
<event>
 8    1  0.2512298E-006  0.9118800E+02  0.7816164E-02  0.1184000E+00
        -11   -1    0    0    0    0  0.00000000000E+00  0.00000000000E+00  0.45593999997E+02  0.45594000000E+02  0.51100000000E-03 0. -1.
         11   -1    0    0    0    0 -0.00000000000E+00 -0.00000000000E+00 -0.45593999997E+02  0.45594000000E+02  0.51100000000E-03 0.  1.
         23    2    1    2    0    0 -0.17763568394E-14 -0.17763568394E-14  0.00000000000E+00  0.91188000000E+02  0.91188000000E+02 0.  0.
    9900012    2    3    3    0    0 -0.10613111875E+02 -0.13885042531E+02  0.32409077090E+02  0.54367070794E+02  0.39999969489E+02 0.  0.
        -12    1    3    3    0    0  0.10613111875E+02  0.13885042531E+02 -0.32409077090E+02  0.36820929206E+02  0.00000000000E+00 0.  1.
         11    1    4    4    0    0  0.80294816044E+01 -0.87654327424E+01  0.29819972451E+02  0.32101964788E+02  0.51100000000E-03 0. -1.
        -11    1    4    4    0    0 -0.11280466277E+02  0.23959004114E+01  0.21812123651E+01  0.11736564482E+02  0.51100000000E-03 0.  1.
         12    1    4    4    0    0 -0.73621272023E+01 -0.75155102003E+01  0.40789227430E+00  0.10528541524E+02  0.00000000000E+00 0. -1.
</event>
<event>
 8    1  0.2512298E-006  0.9118800E+02  0.7816164E-02  0.1184000E+00
        -11   -1    0    0    0    0  0.00000000000E+00  0.00000000000E+00  0.45593999997E+02  0.45594000000E+02  0.51100000000E-03 0. -1.
         11   -1    0    0    0    0 -0.00000000000E+00 -0.00000000000E+00 -0.45593999997E+02  0.45594000000E+02  0.51100000000E-03 0.  1.
         23    2    1    2    0    0  0.00000000000E+00  0.44408920985E-15 -0.71054273576E-14  0.91188000000E+02  0.91188000000E+02 0.  0.
    9900012    2    3    3    0    0 -0.12250864494E+01 -0.35028932399E+01 -0.36633446408E+02  0.54367075329E+02  0.39999979828E+02 0.  0.
         12    1    3    3    0    0  0.12250864494E+01  0.35028932399E+01  0.36633446408E+02  0.36820924671E+02  0.00000000000E+00 0. -1.
         11    1    4    4    0    0 -0.51787188017E+01 -0.30392791636E+01 -0.36460130285E+01  0.70249382579E+01  0.51100000000E-03 0. -1.
        -11    1    4    4    0    0 -0.38141025054E+01 -0.48530031483E+01  0.52342066979E+01  0.80929560419E+01  0.51100000000E-03 0.  1.
        -12    1    4    4    0    0  0.77677348577E+01  0.43893890720E+01 -0.38221640078E+02  0.39249181029E+02  0.00000000000E+00 0.  1.
</event>
<event>
 8    1  0.2512298E-006  0.9118800E+02  0.7816164E-02  0.1184000E+00
        -11   -1    0    0    0    0  0.00000000000E+00  0.00000000000E+00  0.45593999997E+02  0.45594000000E+02  0.51100000000E-03 0. -1.
         11   -1    0    0    0    0 -0.00000000000E+00 -0.00000000000E+00 -0.45593999997E+02  0.45594000000E+02  0.51100000000E-03 0.  1.
         23    2    1    2    0    0 -0.35527136788E-14 -0.35527136788E-14  0.00000000000E+00  0.91188000000E+02  0.91188000000E+02 0.  0.
    9900012    2    3    3    0    0  0.26627186033E+02  0.24276024643E+02 -0.75794136420E+01  0.54367083123E+02  0.39999997596E+02 0.  0.
         12    1    3    3    0    0 -0.26627186033E+02 -0.24276024643E+02  0.75794136420E+01  0.36820916877E+02  0.00000000000E+00 0. -1.
         11    1    4    4    0    0  0.39288751763E+01  0.19716322637E+02 -0.97501174344E+01  0.22343550047E+02  0.51100000000E-03 0. -1.
        -11    1    4    4    0    0  0.59161228324E+01  0.23142215668E+01 -0.95221197699E+01  0.11446698039E+02  0.51100000000E-03 0.  1.
         12    1    4    4    0    0  0.16782188024E+02  0.22454804399E+01  0.11692823562E+02  0.20576835037E+02  0.00000000000E+00 0. -1.
</event>
<event>
 8    1  0.2512298E-006  0.9118800E+02  0.7816164E-02  0.1184000E+00
        -11   -1    0    0    0    0  0.00000000000E+00  0.00000000000E+00  0.45593999997E+02  0.45594000000E+02  0.51100000000E-03 0.  1.
         11   -1    0    0    0    0 -0.00000000000E+00 -0.00000000000E+00 -0.45593999997E+02  0.45594000000E+02  0.51100000000E-03 0. -1.
         23    2    1    2    0    0  0.00000000000E+00  0.00000000000E+00  0.35527136788E-14  0.91188000000E+02  0.91188000000E+02 0.  0.
    9900012    2    3    3    0    0 -0.13293443871E+02 -0.21046286450E+02 -0.27131518710E+02  0.54367066677E+02  0.39999960103E+02 0.  0.
        -12    1    3    3    0    0  0.13293443871E+02  0.21046286450E+02  0.27131518710E+02  0.36820933323E+02  0.00000000000E+00 0.  1.
         11    1    4    4    0    0 -0.38128811092E+01 -0.15555276569E+02 -0.16951649432E+02  0.23320872844E+02  0.51100000000E-03 0. -1.
        -11    1    4    4    0    0 -0.50197591652E+01  0.10734810037E+02 -0.10389793005E+01  0.11895949178E+02  0.51100000000E-03 0.  1.
        -12    1    4    4    0    0 -0.44608035965E+01 -0.16225819918E+02 -0.91408899773E+01  0.19150244654E+02  0.00000000000E+00 0.  1.
</event>
<event>
 8    1  0.2512298E-006  0.9118800E+02  0.7816164E-02  0.1184000E+00
        -11   -1    0    0    0    0  0.00000000000E+00  0.00000000000E+00  0.45593999997E+02  0.45594000000E+02  0.51100000000E-03 0. -1.
         11   -1    0    0    0    0 -0.00000000000E+00 -0.00000000000E+00 -0.45593999997E+02  0.45594000000E+02  0.51100000000E-03 0.  1.
         23    2    1    2    0    0 -0.35527136788E-14 -0.17763568394E-14  0.00000000000E+00  0.91188000000E+02  0.91188000000E+02 0.  0.
    9900012    2    3    3    0    0  0.18965288527E+02  0.11705297168E+02 -0.29310096348E+02  0.54367110567E+02  0.40000060159E+02 0.  0.
         12    1    3    3    0    0 -0.18965288527E+02 -0.11705297168E+02  0.29310096348E+02  0.36820889433E+02  0.00000000000E+00 0. -1.
         11    1    4    4    0    0  0.11047962600E+02  0.44318059310E+01  0.25766476503E+01  0.12179388113E+02  0.51100000000E-03 0. -1.
        -11    1    4    4    0    0  0.62290682622E+01  0.13241412015E+02 -0.64254908145E+01  0.15981965337E+02  0.51100000000E-03 0.  1.
        -12    1    4    4    0    0  0.16882576646E+01 -0.59679207785E+01 -0.25461253184E+02  0.26205757117E+02  0.00000000000E+00 0.  1.
</event>
<event>
 8    1  0.2512298E-006  0.9118800E+02  0.7816164E-02  0.1184000E+00
        -11   -1    0    0    0    0  0.00000000000E+00  0.00000000000E+00  0.45593999997E+02  0.45594000000E+02  0.51100000000E-03 0. -1.
         11   -1    0    0    0    0 -0.00000000000E+00 -0.00000000000E+00 -0.45593999997E+02  0.45594000000E+02  0.51100000000E-03 0.  1.
         23    2    1    2    0    0  0.00000000000E+00  0.00000000000E+00  0.00000000000E+00  0.91188000000E+02  0.91188000000E+02 0.  0.
    9900012    2    3    3    0    0  0.10487368812E+02  0.58159899222E+01 -0.34813388640E+02  0.54367045749E+02  0.39999912395E+02 0.  0.
         12    1    3    3    0    0 -0.10487368812E+02 -0.58159899222E+01  0.34813388640E+02  0.36820954251E+02  0.00000000000E+00 0. -1.
         11    1    4    4    0    0 -0.54520469443E+01 -0.74658413571E+01  0.53281620794E+00  0.92599944074E+01  0.51100000000E-03 0. -1.
        -11    1    4    4    0    0 -0.14894021351E+00  0.11125520847E+02 -0.19329470145E+02  0.22303089778E+02  0.51100000000E-03 0.  1.
        -12    1    4    4    0    0  0.16088355969E+02  0.21563104324E+01 -0.16016734702E+02  0.22803961564E+02  0.00000000000E+00 0.  1.
</event>
<event>
 8    1  0.2512298E-006  0.9118800E+02  0.7816164E-02  0.1184000E+00
        -11   -1    0    0    0    0  0.00000000000E+00  0.00000000000E+00  0.45593999997E+02  0.45594000000E+02  0.51100000000E-03 0. -1.
         11   -1    0    0    0    0 -0.00000000000E+00 -0.00000000000E+00 -0.45593999997E+02  0.45594000000E+02  0.51100000000E-03 0.  1.
         23    2    1    2    0    0  0.00000000000E+00  0.88817841970E-15  0.00000000000E+00  0.91188000000E+02  0.91188000000E+02 0.  0.
    9900012    2    3    3    0    0  0.24138614201E+02  0.42476289880E+01  0.27478427580E+02  0.54367095206E+02  0.40000025141E+02 0.  0.
         12    1    3    3    0    0 -0.24138614201E+02 -0.42476289880E+01 -0.27478427580E+02  0.36820904794E+02  0.00000000000E+00 0. -1.
         11    1    4    4    0    0  0.95612806322E+01 -0.25047118225E+01  0.14273085103E+02  0.17361239220E+02  0.51100000000E-03 0. -1.
        -11    1    4    4    0    0 -0.56497616311E+01  0.51521335049E+01  0.14794345683E+02  0.16653436600E+02  0.51100000000E-03 0.  1.
        -12    1    4    4    0    0  0.20227095200E+02  0.16002073056E+01 -0.15890032064E+01  0.20352419386E+02  0.00000000000E+00 0.  1.
</event>
<event>
 8    1  0.2512298E-006  0.9118800E+02  0.7816164E-02  0.1184000E+00
        -11   -1    0    0    0    0  0.00000000000E+00  0.00000000000E+00  0.45593999997E+02  0.45594000000E+02  0.51100000000E-03 0.  1.
         11   -1    0    0    0    0 -0.00000000000E+00 -0.00000000000E+00 -0.45593999997E+02  0.45594000000E+02  0.51100000000E-03 0. -1.
         23    2    1    2    0    0  0.00000000000E+00 -0.35527136788E-14  0.00000000000E+00  0.91188000000E+02  0.91188000000E+02 0.  0.
    9900012    2    3    3    0    0  0.88966446114E+01 -0.22469525020E+02 -0.27780382281E+02  0.54367089098E+02  0.40000011217E+02 0.  0.
        -12    1    3    3    0    0 -0.88966446114E+01  0.22469525020E+02  0.27780382281E+02  0.36820910902E+02  0.00000000000E+00 0.  1.
         11    1    4    4    0    0  0.58432686226E+01 -0.21421620497E+01 -0.63726407370E+01  0.89074798157E+01  0.51100000000E-03 0. -1.
        -11    1    4    4    0    0  0.12236008573E+02 -0.21113735238E+02 -0.25571003238E+02  0.35346653708E+02  0.51100000000E-03 0.  1.
        -12    1    4    4    0    0 -0.91826325842E+01  0.78637226714E+00  0.41632616945E+01  0.10112955575E+02  0.00000000000E+00 0.  1.
</event>
<event>
 8    1  0.2512298E-006  0.9118800E+02  0.7816164E-02  0.1184000E+00
        -11   -1    0    0    0    0  0.00000000000E+00  0.00000000000E+00  0.45593999997E+02  0.45594000000E+02  0.51100000000E-03 0.  1.
         11   -1    0    0    0    0 -0.00000000000E+00 -0.00000000000E+00 -0.45593999997E+02  0.45594000000E+02  0.51100000000E-03 0. -1.
         23    2    1    2    0    0 -0.17763568394E-14 -0.71054273576E-14  0.53290705182E-14  0.91188000000E+02  0.91188000000E+02 0.  0.
    9900012    2    3    3    0    0  0.10784570824E+02 -0.34061449290E+02  0.89044758149E+01  0.54367095813E+02  0.40000026524E+02 0.  0.
         12    1    3    3    0    0 -0.10784570824E+02  0.34061449290E+02 -0.89044758149E+01  0.36820904187E+02  0.00000000000E+00 0. -1.
         11    1    4    4    0    0  0.60249546666E+01  0.92481591044E+00 -0.21319777615E+01  0.64576073464E+01  0.51100000000E-03 0. -1.
        -11    1    4    4    0    0  0.75680295991E+01 -0.31293238874E+01 -0.73638670350E+01  0.11013368149E+02  0.51100000000E-03 0.  1.
        -12    1    4    4    0    0 -0.28084134413E+01 -0.31856941313E+02  0.18400320611E+02  0.36896120318E+02  0.00000000000E+00 0.  1.
</event>
<event>
 8    1  0.2512298E-006  0.9118800E+02  0.7816164E-02  0.1184000E+00
        -11   -1    0    0    0    0  0.00000000000E+00  0.00000000000E+00  0.45593999997E+02  0.45594000000E+02  0.51100000000E-03 0. -1.
         11   -1    0    0    0    0 -0.00000000000E+00 -0.00000000000E+00 -0.45593999997E+02  0.45594000000E+02  0.51100000000E-03 0.  1.
         23    2    1    2    0    0  0.17763568394E-14 -0.35527136788E-14  0.35527136788E-14  0.91188000000E+02  0.91188000000E+02 0.  0.
    9900012    2    3    3    0    0 -0.74036625013E+01  0.28409697616E+02 -0.22222853520E+02  0.54367077203E+02  0.39999984099E+02 0.  0.
         12    1    3    3    0    0  0.74036625013E+01 -0.28409697616E+02  0.22222853520E+02  0.36820922797E+02  0.00000000000E+00 0. -1.
         11    1    4    4    0    0 -0.33216542124E+01  0.93814160371E+01  0.93275148050E+01  0.13639900523E+02  0.51100000000E-03 0. -1.
        -11    1    4    4    0    0 -0.56809693471E+00  0.91017743329E+01 -0.19719308259E+01  0.93302487415E+01  0.51100000000E-03 0.  1.
        -12    1    4    4    0    0 -0.35139113542E+01  0.99265072464E+01 -0.29578437499E+02  0.31396927939E+02  0.00000000000E+00 0.  1.
</event>
<event>
 8    1  0.2512298E-006  0.9118800E+02  0.7816164E-02  0.1184000E+00
        -11   -1    0    0    0    0  0.00000000000E+00  0.00000000000E+00  0.45593999997E+02  0.45594000000E+02  0.51100000000E-03 0. -1.
         11   -1    0    0    0    0 -0.00000000000E+00 -0.00000000000E+00 -0.45593999997E+02  0.45594000000E+02  0.51100000000E-03 0.  1.
         23    2    1    2    0    0  0.00000000000E+00  0.00000000000E+00 -0.17763568394E-14  0.91188000000E+02  0.91188000000E+02 0.  0.
    9900012    2    3    3    0    0  0.24077899105E+02  0.24071296155E+02 -0.14021670554E+02  0.54367085169E+02  0.40000002259E+02 0.  0.
        -12    1    3    3    0    0 -0.24077899105E+02 -0.24071296155E+02  0.14021670554E+02  0.36820914831E+02  0.00000000000E+00 0.  1.
         11    1    4    4    0    0  0.92185051214E+01  0.29258067937E+01 -0.19284150850E+02  0.21573587007E+02  0.51100000000E-03 0. -1.
        -11    1    4    4    0    0  0.10122863304E+02 -0.33633360988E+00 -0.18920797795E+00  0.10130216271E+02  0.51100000000E-03 0.  1.
         12    1    4    4    0    0  0.47365306794E+01  0.21481822971E+02  0.54516882745E+01  0.22663281891E+02  0.00000000000E+00 0. -1.
</event>
<event>
 8    1  0.2512298E-006  0.9118800E+02  0.7816164E-02  0.1184000E+00
        -11   -1    0    0    0    0  0.00000000000E+00  0.00000000000E+00  0.45593999997E+02  0.45594000000E+02  0.51100000000E-03 0.  1.
         11   -1    0    0    0    0 -0.00000000000E+00 -0.00000000000E+00 -0.45593999997E+02  0.45594000000E+02  0.51100000000E-03 0. -1.
         23    2    1    2    0    0 -0.13322676296E-14  0.35527136788E-14  0.00000000000E+00  0.91188000000E+02  0.91188000000E+02 0.  0.
    9900012    2    3    3    0    0 -0.37462511859E+01 -0.28083083870E+02 -0.23517787015E+02  0.54367077908E+02  0.39999985707E+02 0.  0.
         12    1    3    3    0    0  0.37462511859E+01  0.28083083870E+02  0.23517787015E+02  0.36820922092E+02  0.00000000000E+00 0. -1.
         11    1    4    4    0    0 -0.25013087077E+01  0.32696676748E+01 -0.15939398358E+01  0.44145120247E+01  0.51100000000E-03 0. -1.
        -11    1    4    4    0    0 -0.10331839853E+02 -0.33221831643E+02 -0.13179779788E+02  0.37204080528E+02  0.51100000000E-03 0.  1.
        -12    1    4    4    0    0  0.90868973743E+01  0.18690800972E+01 -0.87440673915E+01  0.12748485355E+02  0.00000000000E+00 0.  1.
</event>
<event>
 8    1  0.2512298E-006  0.9118800E+02  0.7816164E-02  0.1184000E+00
        -11   -1    0    0    0    0  0.00000000000E+00  0.00000000000E+00  0.45593999997E+02  0.45594000000E+02  0.51100000000E-03 0.  1.
         11   -1    0    0    0    0 -0.00000000000E+00 -0.00000000000E+00 -0.45593999997E+02  0.45594000000E+02  0.51100000000E-03 0. -1.
         23    2    1    2    0    0 -0.88817841970E-15  0.35527136788E-14  0.00000000000E+00  0.91188000000E+02  0.91188000000E+02 0.  0.
    9900012    2    3    3    0    0 -0.15377057835E+01 -0.27131440924E+02  0.24845528510E+02  0.54367083219E+02  0.39999997813E+02 0.  0.
         12    1    3    3    0    0  0.15377057835E+01  0.27131440924E+02 -0.24845528510E+02  0.36820916781E+02  0.00000000000E+00 0. -1.
         11    1    4    4    0    0  0.40063663640E+01 -0.31762827616E+01  0.17053863341E+02  0.17803763611E+02  0.51100000000E-03 0. -1.
        -11    1    4    4    0    0  0.65830846699E+01 -0.71649139851E+01  0.11978694636E+02  0.15432502118E+02  0.51100000000E-03 0.  1.
         12    1    4    4    0    0 -0.12127156817E+02 -0.16790244177E+02 -0.41870294666E+01  0.21130817489E+02  0.00000000000E+00 0. -1.
</event>
<event>
 8    1  0.2512298E-006  0.9118800E+02  0.7816164E-02  0.1184000E+00
        -11   -1    0    0    0    0  0.00000000000E+00  0.00000000000E+00  0.45593999997E+02  0.45594000000E+02  0.51100000000E-03 0. -1.
         11   -1    0    0    0    0 -0.00000000000E+00 -0.00000000000E+00 -0.45593999997E+02  0.45594000000E+02  0.51100000000E-03 0.  1.
         23    2    1    2    0    0 -0.71054273576E-14  0.17763568394E-14 -0.35527136788E-14  0.91188000000E+02  0.91188000000E+02 0.  0.
    9900012    2    3    3    0    0 -0.29879905177E+02 -0.11736092500E+02  0.18034283337E+02  0.54367082358E+02  0.39999995851E+02 0.  0.
         12    1    3    3    0    0  0.29879905177E+02  0.11736092500E+02 -0.18034283337E+02  0.36820917642E+02  0.00000000000E+00 0. -1.
         11    1    4    4    0    0 -0.14733672720E+02  0.61414388204E+01  0.21019539229E+02  0.26393548687E+02  0.51100000000E-03 0.  1.
        -11    1    4    4    0    0  0.27202750994E+01 -0.46436380943E+00  0.42784249063E+00  0.27925937445E+01  0.51100000000E-03 0. -1.
        -12    1    4    4    0    0 -0.17866507557E+02 -0.17413167511E+02 -0.34130983833E+01  0.25180939927E+02  0.00000000000E+00 0.  1.
</event>
<event>
 8    1  0.2512298E-006  0.9118800E+02  0.7816164E-02  0.1184000E+00
        -11   -1    0    0    0    0  0.00000000000E+00  0.00000000000E+00  0.45593999997E+02  0.45594000000E+02  0.51100000000E-03 0.  1.
         11   -1    0    0    0    0 -0.00000000000E+00 -0.00000000000E+00 -0.45593999997E+02  0.45594000000E+02  0.51100000000E-03 0. -1.
         23    2    1    2    0    0  0.00000000000E+00  0.35527136788E-14  0.00000000000E+00  0.91188000000E+02  0.91188000000E+02 0.  0.
    9900012    2    3    3    0    0  0.17582963666E+02 -0.31550288619E+02 -0.71553826384E+01  0.54367070844E+02  0.39999969603E+02 0.  0.
         12    1    3    3    0    0 -0.17582963666E+02  0.31550288619E+02  0.71553826384E+01  0.36820929156E+02  0.00000000000E+00 0. -1.
         11    1    4    4    0    0  0.21367371330E+02 -0.57292215200E+01 -0.68292821560E+01  0.23152270554E+02  0.51100000000E-03 0. -1.
        -11    1    4    4    0    0  0.66019371824E+01 -0.68233949698E+01 -0.10421370648E+01  0.95514576583E+01  0.51100000000E-03 0.  1.
         12    1    4    4    0    0 -0.10386344847E+02 -0.18997672129E+02  0.71603658237E+00  0.21663342632E+02  0.00000000000E+00 0. -1.
</event>
<event>
 8    1  0.2512298E-006  0.9118800E+02  0.7816164E-02  0.1184000E+00
        -11   -1    0    0    0    0  0.00000000000E+00  0.00000000000E+00  0.45593999997E+02  0.45594000000E+02  0.51100000000E-03 0.  1.
         11   -1    0    0    0    0 -0.00000000000E+00 -0.00000000000E+00 -0.45593999997E+02  0.45594000000E+02  0.51100000000E-03 0. -1.
         23    2    1    2    0    0  0.66613381478E-15  0.55511151231E-15  0.00000000000E+00  0.91188000000E+02  0.91188000000E+02 0.  0.
    9900012    2    3    3    0    0  0.16839514946E+01  0.23288624273E+00  0.36781655570E+02  0.54367080469E+02  0.39999991546E+02 0.  0.
         12    1    3    3    0    0 -0.16839514946E+01 -0.23288624273E+00 -0.36781655570E+02  0.36820919531E+02  0.00000000000E+00 0. -1.
         11    1    4    4    0    0  0.62151948599E+01 -0.97790494912E+01  0.25432165077E+02  0.27947333985E+02  0.51100000000E-03 0. -1.
        -11    1    4    4    0    0  0.55380970136E+01  0.13120253539E+01  0.11804431940E+02  0.13104828986E+02  0.51100000000E-03 0.  1.
        -12    1    4    4    0    0 -0.10069340379E+02  0.86999103800E+01 -0.45494144708E+00  0.13314917499E+02  0.00000000000E+00 0.  1.
</event>
<event>
 8    1  0.2512298E-006  0.9118800E+02  0.7816164E-02  0.1184000E+00
        -11   -1    0    0    0    0  0.00000000000E+00  0.00000000000E+00  0.45593999997E+02  0.45594000000E+02  0.51100000000E-03 0.  1.
         11   -1    0    0    0    0 -0.00000000000E+00 -0.00000000000E+00 -0.45593999997E+02  0.45594000000E+02  0.51100000000E-03 0. -1.
         23    2    1    2    0    0  0.00000000000E+00  0.00000000000E+00  0.35527136788E-14  0.91188000000E+02  0.91188000000E+02 0.  0.
    9900012    2    3    3    0    0  0.14450146247E+02  0.14630778532E+02 -0.30543635297E+02  0.54367081161E+02  0.39999993122E+02 0.  0.
        -12    1    3    3    0    0 -0.14450146247E+02 -0.14630778532E+02  0.30543635297E+02  0.36820918839E+02  0.00000000000E+00 0.  1.
         11    1    4    4    0    0  0.80006352289E+01 -0.48846287701E+01 -0.12246198912E+02  0.15422034572E+02  0.51100000000E-03 0. -1.
        -11    1    4    4    0    0 -0.24568088950E+01 -0.48794145426E+01 -0.10489599971E+02  0.11826931303E+02  0.51100000000E-03 0.  1.
         12    1    4    4    0    0  0.89063199129E+01  0.24394821844E+02 -0.78078364146E+01  0.27118115286E+02  0.00000000000E+00 0. -1.
</event>
<event>
 8    1  0.2512298E-006  0.9118800E+02  0.7816164E-02  0.1184000E+00
        -11   -1    0    0    0    0  0.00000000000E+00  0.00000000000E+00  0.45593999997E+02  0.45594000000E+02  0.51100000000E-03 0.  1.
         11   -1    0    0    0    0 -0.00000000000E+00 -0.00000000000E+00 -0.45593999997E+02  0.45594000000E+02  0.51100000000E-03 0. -1.
         23    2    1    2    0    0  0.53290705182E-14 -0.35527136788E-14  0.71054273576E-14  0.91188000000E+02  0.91188000000E+02 0.  0.
    9900012    2    3    3    0    0 -0.13021594102E+02  0.24306670802E+02 -0.24400920433E+02  0.54367067415E+02  0.39999961786E+02 0.  0.
        -12    1    3    3    0    0  0.13021594102E+02 -0.24306670802E+02  0.24400920433E+02  0.36820932585E+02  0.00000000000E+00 0.  1.
         11    1    4    4    0    0  0.33001961373E+01  0.35273234777E+01  0.31449645652E+01  0.57640357249E+01  0.51100000000E-03 0. -1.
        -11    1    4    4    0    0 -0.11212318373E+02 -0.59020822092E+01 -0.11109752831E+02  0.16851625023E+02  0.51100000000E-03 0.  1.
         12    1    4    4    0    0 -0.51094718665E+01  0.26681429534E+02 -0.16436132168E+02  0.31751406667E+02  0.00000000000E+00 0. -1.
</event>
<event>
 8    1  0.2512298E-006  0.9118800E+02  0.7816164E-02  0.1184000E+00
        -11   -1    0    0    0    0  0.00000000000E+00  0.00000000000E+00  0.45593999997E+02  0.45594000000E+02  0.51100000000E-03 0. -1.
         11   -1    0    0    0    0 -0.00000000000E+00 -0.00000000000E+00 -0.45593999997E+02  0.45594000000E+02  0.51100000000E-03 0.  1.
         23    2    1    2    0    0  0.00000000000E+00  0.00000000000E+00 -0.17763568394E-14  0.91188000000E+02  0.91188000000E+02 0.  0.
    9900012    2    3    3    0    0  0.18898073846E+02  0.30406126923E+02  0.86085544674E+01  0.54367123319E+02  0.40000089230E+02 0.  0.
         12    1    3    3    0    0 -0.18898073846E+02 -0.30406126923E+02 -0.86085544674E+01  0.36820876681E+02  0.00000000000E+00 0. -1.
         11    1    4    4    0    0 -0.37966507485E+01  0.42569863034E+01 -0.33532100692E+01  0.66166840126E+01  0.51100000000E-03 0. -1.
        -11    1    4    4    0    0  0.12265058442E+02  0.89840409245E+01 -0.98376671666E+01  0.18108681494E+02  0.51100000000E-03 0.  1.
         12    1    4    4    0    0  0.10429666152E+02  0.17165099695E+02  0.21799431703E+02  0.29641757812E+02  0.00000000000E+00 0. -1.
</event>
<event>
 8    1  0.2512298E-006  0.9118800E+02  0.7816164E-02  0.1184000E+00
        -11   -1    0    0    0    0  0.00000000000E+00  0.00000000000E+00  0.45593999997E+02  0.45594000000E+02  0.51100000000E-03 0.  1.
         11   -1    0    0    0    0 -0.00000000000E+00 -0.00000000000E+00 -0.45593999997E+02  0.45594000000E+02  0.51100000000E-03 0. -1.
         23    2    1    2    0    0  0.35527136788E-14 -0.44408920985E-15 -0.35527136788E-14  0.91188000000E+02  0.91188000000E+02 0.  0.
    9900012    2    3    3    0    0  0.23968542986E+02  0.25923739872E+01  0.27831065348E+02  0.54367086729E+02  0.40000005816E+02 0.  0.
         12    1    3    3    0    0 -0.23968542986E+02 -0.25923739872E+01 -0.27831065348E+02  0.36820913271E+02  0.00000000000E+00 0. -1.
         11    1    4    4    0    0  0.16941031520E+02 -0.34305011327E+01  0.32077520940E+02  0.36438087723E+02  0.51100000000E-03 0. -1.
        -11    1    4    4    0    0  0.52811236035E+01  0.15465828632E+01  0.50470127661E+01  0.74668951506E+01  0.51100000000E-03 0.  1.
         12    1    4    4    0    0  0.17463878616E+01  0.44762922566E+01 -0.92934683589E+01  0.10462103855E+02  0.00000000000E+00 0. -1.
</event>
<event>
 8    1  0.2512298E-006  0.9118800E+02  0.7816164E-02  0.1184000E+00
        -11   -1    0    0    0    0  0.00000000000E+00  0.00000000000E+00  0.45593999997E+02  0.45594000000E+02  0.51100000000E-03 0. -1.
         11   -1    0    0    0    0 -0.00000000000E+00 -0.00000000000E+00 -0.45593999997E+02  0.45594000000E+02  0.51100000000E-03 0.  1.
         23    2    1    2    0    0  0.71054273576E-14  0.88817841970E-15  0.00000000000E+00  0.91188000000E+02  0.91188000000E+02 0.  0.
    9900012    2    3    3    0    0  0.35674815252E+02  0.57029376697E+01 -0.71107429326E+01  0.54367100956E+02  0.40000038250E+02 0.  0.
         12    1    3    3    0    0 -0.35674815252E+02 -0.57029376697E+01  0.71107429326E+01  0.36820899044E+02  0.00000000000E+00 0. -1.
         11    1    4    4    0    0  0.72030452702E+01 -0.56807253059E+01 -0.77055369972E+01  0.11980392391E+02  0.51100000000E-03 0. -1.
        -11    1    4    4    0    0  0.30994968850E+02  0.10972604390E+02 -0.76471038291E+01  0.33757433823E+02  0.51100000000E-03 0.  1.
         12    1    4    4    0    0 -0.25231988679E+01  0.41105858569E+00  0.82418978936E+01  0.86292747422E+01  0.00000000000E+00 0. -1.
</event>
<event>
 8    1  0.2512298E-006  0.9118800E+02  0.7816164E-02  0.1184000E+00
        -11   -1    0    0    0    0  0.00000000000E+00  0.00000000000E+00  0.45593999997E+02  0.45594000000E+02  0.51100000000E-03 0. -1.
         11   -1    0    0    0    0 -0.00000000000E+00 -0.00000000000E+00 -0.45593999997E+02  0.45594000000E+02  0.51100000000E-03 0.  1.
         23    2    1    2    0    0  0.00000000000E+00  0.00000000000E+00  0.88817841970E-15  0.91188000000E+02  0.91188000000E+02 0.  0.
    9900012    2    3    3    0    0  0.30342659126E+02 -0.19822826781E+02  0.64930354257E+01  0.54367069356E+02  0.39999966212E+02 0.  0.
         12    1    3    3    0    0 -0.30342659126E+02  0.19822826781E+02 -0.64930354257E+01  0.36820930644E+02  0.00000000000E+00 0. -1.
         11    1    4    4    0    0  0.11240367489E+02 -0.16854603667E+02 -0.46035564519E+01  0.20775376250E+02  0.51100000000E-03 0. -1.
        -11    1    4    4    0    0  0.24771272325E+02 -0.54287176204E+01  0.75164487425E+01  0.26449648572E+02  0.51100000000E-03 0.  1.
         12    1    4    4    0    0 -0.56689806890E+01  0.24604945059E+01  0.35801431351E+01  0.71420445345E+01  0.00000000000E+00 0. -1.
</event>
<event>
 8    1  0.2512298E-006  0.9118800E+02  0.7816164E-02  0.1184000E+00
        -11   -1    0    0    0    0  0.00000000000E+00  0.00000000000E+00  0.45593999997E+02  0.45594000000E+02  0.51100000000E-03 0.  1.
         11   -1    0    0    0    0 -0.00000000000E+00 -0.00000000000E+00 -0.45593999997E+02  0.45594000000E+02  0.51100000000E-03 0. -1.
         23    2    1    2    0    0  0.00000000000E+00 -0.88817841970E-15  0.00000000000E+00  0.91188000000E+02  0.91188000000E+02 0.  0.
    9900012    2    3    3    0    0 -0.42507366512E+01  0.48550919697E+01  0.36251065168E+02  0.54367076520E+02  0.39999982543E+02 0.  0.
         12    1    3    3    0    0  0.42507366512E+01 -0.48550919697E+01 -0.36251065168E+02  0.36820923480E+02  0.00000000000E+00 0. -1.
         11    1    4    4    0    0  0.85296489740E+01  0.88334852228E+01  0.58260408120E+01  0.13591472496E+02  0.51100000000E-03 0. -1.
        -11    1    4    4    0    0 -0.36041903468E+01 -0.11811190669E+02  0.24271413039E+02  0.27232258523E+02  0.51100000000E-03 0.  1.
         12    1    4    4    0    0 -0.91761952784E+01  0.78327974159E+01  0.61536113167E+01  0.13543345502E+02  0.00000000000E+00 0. -1.
</event>
<event>
 8    1  0.2512298E-006  0.9118800E+02  0.7816164E-02  0.1184000E+00
        -11   -1    0    0    0    0  0.00000000000E+00  0.00000000000E+00  0.45593999997E+02  0.45594000000E+02  0.51100000000E-03 0.  1.
         11   -1    0    0    0    0 -0.00000000000E+00 -0.00000000000E+00 -0.45593999997E+02  0.45594000000E+02  0.51100000000E-03 0. -1.
         23    2    1    2    0    0 -0.88817841970E-15  0.22204460493E-15  0.00000000000E+00  0.91188000000E+02  0.91188000000E+02 0.  0.
    9900012    2    3    3    0    0  0.34867192229E+01 -0.49850834857E+00 -0.36652057968E+02  0.54367094595E+02  0.40000023748E+02 0.  0.
        -12    1    3    3    0    0 -0.34867192229E+01  0.49850834857E+00  0.36652057968E+02  0.36820905405E+02  0.00000000000E+00 0.  1.
         11    1    4    4    0    0 -0.64278781901E+01  0.97329825293E+01 -0.75854875526E+01  0.13913597256E+02  0.51100000000E-03 0. -1.
        -11    1    4    4    0    0  0.11138150275E+02  0.54152509012E+01 -0.11555595506E+02  0.16938569055E+02  0.51100000000E-03 0.  1.
        -12    1    4    4    0    0 -0.12235528616E+01 -0.15646741779E+02 -0.17510974910E+02  0.23514928284E+02  0.00000000000E+00 0.  1.
</event>
<event>
 8    1  0.2512298E-006  0.9118800E+02  0.7816164E-02  0.1184000E+00
        -11   -1    0    0    0    0  0.00000000000E+00  0.00000000000E+00  0.45593999997E+02  0.45594000000E+02  0.51100000000E-03 0. -1.
         11   -1    0    0    0    0 -0.00000000000E+00 -0.00000000000E+00 -0.45593999997E+02  0.45594000000E+02  0.51100000000E-03 0.  1.
         23    2    1    2    0    0 -0.88817841970E-15 -0.88817841970E-15  0.00000000000E+00  0.91188000000E+02  0.91188000000E+02 0.  0.
    9900012    2    3    3    0    0 -0.64091275032E+01 -0.28799358177E+01 -0.36144281156E+02  0.54367081952E+02  0.39999994925E+02 0.  0.
         12    1    3    3    0    0  0.64091275032E+01  0.28799358177E+01  0.36144281156E+02  0.36820918048E+02  0.00000000000E+00 0. -1.
         11    1    4    4    0    0 -0.52117051551E+01  0.46341414445E+01  0.45353582059E+01  0.83190511399E+01  0.51100000000E-03 0. -1.
        -11    1    4    4    0    0 -0.69636388979E+01  0.28347052395E+01 -0.67294763732E+01  0.10090276161E+02  0.51100000000E-03 0.  1.
        -12    1    4    4    0    0  0.57662165497E+01 -0.10348782502E+02 -0.33950162988E+02  0.35957754650E+02  0.00000000000E+00 0.  1.
</event>
<event>
 8    1  0.2512298E-006  0.9118800E+02  0.7816164E-02  0.1184000E+00
        -11   -1    0    0    0    0  0.00000000000E+00  0.00000000000E+00  0.45593999997E+02  0.45594000000E+02  0.51100000000E-03 0. -1.
         11   -1    0    0    0    0 -0.00000000000E+00 -0.00000000000E+00 -0.45593999997E+02  0.45594000000E+02  0.51100000000E-03 0.  1.
         23    2    1    2    0    0  0.00000000000E+00  0.88817841970E-15  0.00000000000E+00  0.91188000000E+02  0.91188000000E+02 0.  0.
    9900012    2    3    3    0    0  0.17972965352E+02  0.11551226085E+01  0.32115760441E+02  0.54367029610E+02  0.39999875601E+02 0.  0.
        -12    1    3    3    0    0 -0.17972965352E+02 -0.11551226085E+01 -0.32115760441E+02  0.36820970390E+02  0.00000000000E+00 0.  1.
         11    1    4    4    0    0  0.30246653540E+01 -0.84817092666E+01  0.13375030832E+02  0.16123878026E+02  0.51100000000E-03 0. -1.
        -11    1    4    4    0    0  0.19232689882E+02  0.64785441983E+00  0.27977531317E+01  0.19445912123E+02  0.51100000000E-03 0.  1.
        -12    1    4    4    0    0 -0.42843898842E+01  0.89889774553E+01  0.15942976478E+02  0.18797239461E+02  0.00000000000E+00 0.  1.
</event>
<event>
 8    1  0.2512298E-006  0.9118800E+02  0.7816164E-02  0.1184000E+00
        -11   -1    0    0    0    0  0.00000000000E+00  0.00000000000E+00  0.45593999997E+02  0.45594000000E+02  0.51100000000E-03 0.  1.
         11   -1    0    0    0    0 -0.00000000000E+00 -0.00000000000E+00 -0.45593999997E+02  0.45594000000E+02  0.51100000000E-03 0. -1.
         23    2    1    2    0    0  0.00000000000E+00 -0.35527136788E-14  0.00000000000E+00  0.91188000000E+02  0.91188000000E+02 0.  0.
    9900012    2    3    3    0    0  0.29247002530E+02  0.19441803727E+02 -0.11063843874E+02  0.54367088409E+02  0.40000009646E+02 0.  0.
        -12    1    3    3    0    0 -0.29247002530E+02 -0.19441803727E+02  0.11063843874E+02  0.36820911591E+02  0.00000000000E+00 0.  1.
         11    1    4    4    0    0  0.92589428878E+01  0.11079204660E+02 -0.64808589307E+01  0.15826507260E+02  0.51100000000E-03 0. -1.
        -11    1    4    4    0    0  0.23099329109E+02  0.16084935988E+02 -0.84102449103E+01  0.29377481014E+02  0.51100000000E-03 0.  1.
        -12    1    4    4    0    0 -0.31112694672E+01 -0.77223369214E+01  0.38272599672E+01  0.91631001349E+01  0.00000000000E+00 0.  1.
</event>
<event>
 8    1  0.2512298E-006  0.9118800E+02  0.7816164E-02  0.1184000E+00
        -11   -1    0    0    0    0  0.00000000000E+00  0.00000000000E+00  0.45593999997E+02  0.45594000000E+02  0.51100000000E-03 0. -1.
         11   -1    0    0    0    0 -0.00000000000E+00 -0.00000000000E+00 -0.45593999997E+02  0.45594000000E+02  0.51100000000E-03 0.  1.
         23    2    1    2    0    0  0.00000000000E+00  0.44408920985E-15  0.66613381478E-15  0.91188000000E+02  0.91188000000E+02 0.  0.
    9900012    2    3    3    0    0  0.36791619643E+02  0.30688432443E+00 -0.14361681202E+01  0.54367081587E+02  0.39999994093E+02 0.  0.
         12    1    3    3    0    0 -0.36791619643E+02 -0.30688432443E+00  0.14361681202E+01  0.36820918413E+02  0.00000000000E+00 0. -1.
         11    1    4    4    0    0  0.24350075335E+02  0.13529129929E+01  0.11429984891E+02  0.26933271195E+02  0.51100000000E-03 0. -1.
        -11    1    4    4    0    0  0.12501101147E+02 -0.85502019262E+01 -0.12952897403E+02  0.19928899474E+02  0.51100000000E-03 0.  1.
         12    1    4    4    0    0 -0.59556838731E-01  0.75041732577E+01  0.86744391231E-01  0.75049109181E+01  0.00000000000E+00 0. -1.
</event>
<event>
 8    1  0.2512298E-006  0.9118800E+02  0.7816164E-02  0.1184000E+00
        -11   -1    0    0    0    0  0.00000000000E+00  0.00000000000E+00  0.45593999997E+02  0.45594000000E+02  0.51100000000E-03 0. -1.
         11   -1    0    0    0    0 -0.00000000000E+00 -0.00000000000E+00 -0.45593999997E+02  0.45594000000E+02  0.51100000000E-03 0.  1.
         23    2    1    2    0    0  0.00000000000E+00  0.35527136788E-14  0.00000000000E+00  0.91188000000E+02  0.91188000000E+02 0.  0.
    9900012    2    3    3    0    0  0.17928110789E+02 -0.27118700561E+02  0.17289835098E+02  0.54367089170E+02  0.40000011382E+02 0.  0.
        -12    1    3    3    0    0 -0.17928110789E+02  0.27118700561E+02 -0.17289835098E+02  0.36820910830E+02  0.00000000000E+00 0.  1.
         11    1    4    4    0    0  0.12644566489E+02 -0.50057102913E+01 -0.45082441055E+00  0.13606815943E+02  0.51100000000E-03 0. -1.
        -11    1    4    4    0    0  0.12625367053E+02 -0.24233562307E+02  0.81850874350E+01  0.28524745255E+02  0.51100000000E-03 0.  1.
        -12    1    4    4    0    0 -0.73418227526E+01  0.21205720367E+01  0.95555720735E+01  0.12235527972E+02  0.00000000000E+00 0.  1.
</event>
<event>
 8    1  0.2512298E-006  0.9118800E+02  0.7816164E-02  0.1184000E+00
        -11   -1    0    0    0    0  0.00000000000E+00  0.00000000000E+00  0.45593999997E+02  0.45594000000E+02  0.51100000000E-03 0.  1.
         11   -1    0    0    0    0 -0.00000000000E+00 -0.00000000000E+00 -0.45593999997E+02  0.45594000000E+02  0.51100000000E-03 0. -1.
         23    2    1    2    0    0  0.00000000000E+00  0.00000000000E+00  0.00000000000E+00  0.91188000000E+02  0.91188000000E+02 0.  0.
    9900012    2    3    3    0    0  0.14200699572E+02  0.19402688406E+02 -0.27886380330E+02  0.54367158163E+02  0.40000168664E+02 0.  0.
        -12    1    3    3    0    0 -0.14200699572E+02 -0.19402688406E+02  0.27886380330E+02  0.36820841837E+02  0.00000000000E+00 0.  1.
         11    1    4    4    0    0  0.30769306490E+01  0.19978486218E+02 -0.18444624868E+02  0.27364422168E+02  0.51100000000E-03 0. -1.
        -11    1    4    4    0    0  0.78730211725E+01  0.44935881292E+01  0.56993955109E+01  0.10707936594E+02  0.51100000000E-03 0.  1.
        -12    1    4    4    0    0  0.32507477503E+01 -0.50693859412E+01 -0.15141150972E+02  0.16294799401E+02  0.00000000000E+00 0.  1.
</event>
<event>
 8    1  0.2512298E-006  0.9118800E+02  0.7816164E-02  0.1184000E+00
        -11   -1    0    0    0    0  0.00000000000E+00  0.00000000000E+00  0.45593999997E+02  0.45594000000E+02  0.51100000000E-03 0. -1.
         11   -1    0    0    0    0 -0.00000000000E+00 -0.00000000000E+00 -0.45593999997E+02  0.45594000000E+02  0.51100000000E-03 0.  1.
         23    2    1    2    0    0  0.22204460493E-15 -0.88817841970E-15  0.00000000000E+00  0.91188000000E+02  0.91188000000E+02 0.  0.
    9900012    2    3    3    0    0 -0.15766838555E+01 -0.73151509124E+01 -0.36052493751E+02  0.54367086507E+02  0.40000005309E+02 0.  0.
         12    1    3    3    0    0  0.15766838555E+01  0.73151509124E+01  0.36052493751E+02  0.36820913493E+02  0.00000000000E+00 0. -1.
         11    1    4    4    0    0 -0.12833200914E+02 -0.15853313054E+02 -0.95538307875E+01  0.22523193900E+02  0.51100000000E-03 0. -1.
        -11    1    4    4    0    0  0.94636372925E+00  0.71783091471E+01 -0.11618366395E+02  0.13689783215E+02  0.51100000000E-03 0.  1.
        -12    1    4    4    0    0  0.10310153329E+02  0.13598529949E+01 -0.14880296568E+02  0.18154109392E+02  0.00000000000E+00 0.  1.
</event>
<event>
 8    1  0.2512298E-006  0.9118800E+02  0.7816164E-02  0.1184000E+00
        -11   -1    0    0    0    0  0.00000000000E+00  0.00000000000E+00  0.45593999997E+02  0.45594000000E+02  0.51100000000E-03 0.  1.
         11   -1    0    0    0    0 -0.00000000000E+00 -0.00000000000E+00 -0.45593999997E+02  0.45594000000E+02  0.51100000000E-03 0. -1.
         23    2    1    2    0    0  0.00000000000E+00 -0.35527136788E-14  0.00000000000E+00  0.91188000000E+02  0.91188000000E+02 0.  0.
    9900012    2    3    3    0    0  0.86637264633E+01 -0.27361244794E+02 -0.23066911299E+02  0.54367078369E+02  0.39999986757E+02 0.  0.
        -12    1    3    3    0    0 -0.86637264633E+01  0.27361244794E+02  0.23066911299E+02  0.36820921631E+02  0.00000000000E+00 0.  1.
         11    1    4    4    0    0  0.81062108054E+01  0.18774165911E+01  0.21104781554E+01  0.85842568102E+01  0.51100000000E-03 0. -1.
        -11    1    4    4    0    0  0.68386103417E+01 -0.15749096582E+02 -0.25683446813E+02  0.30894013579E+02  0.51100000000E-03 0.  1.
        -12    1    4    4    0    0 -0.62810946837E+01 -0.13489564803E+02  0.50605735868E+00  0.14888807980E+02  0.00000000000E+00 0.  1.
</event>
<event>
 8    1  0.2512298E-006  0.9118800E+02  0.7816164E-02  0.1184000E+00
        -11   -1    0    0    0    0  0.00000000000E+00  0.00000000000E+00  0.45593999997E+02  0.45594000000E+02  0.51100000000E-03 0.  1.
         11   -1    0    0    0    0 -0.00000000000E+00 -0.00000000000E+00 -0.45593999997E+02  0.45594000000E+02  0.51100000000E-03 0. -1.
         23    2    1    2    0    0  0.00000000000E+00  0.00000000000E+00 -0.35527136788E-14  0.91188000000E+02  0.91188000000E+02 0.  0.
    9900012    2    3    3    0    0 -0.25488330929E+02 -0.10538424095E+02  0.24393977043E+02  0.54367088659E+02  0.40000010216E+02 0.  0.
         12    1    3    3    0    0  0.25488330929E+02  0.10538424095E+02 -0.24393977043E+02  0.36820911341E+02  0.00000000000E+00 0. -1.
         11    1    4    4    0    0 -0.25110594228E+00 -0.82491891457E+01  0.10618408849E+02  0.13448523432E+02  0.51100000000E-03 0. -1.
        -11    1    4    4    0    0 -0.15426223311E+02 -0.17746767735E+00  0.22728539772E+02  0.27469735725E+02  0.51100000000E-03 0.  1.
        -12    1    4    4    0    0 -0.98110016764E+01 -0.21117672723E+01 -0.89529715772E+01  0.13448829502E+02  0.00000000000E+00 0.  1.
</event>
<event>
 8    1  0.2512298E-006  0.9118800E+02  0.7816164E-02  0.1184000E+00
        -11   -1    0    0    0    0  0.00000000000E+00  0.00000000000E+00  0.45593999997E+02  0.45594000000E+02  0.51100000000E-03 0.  1.
         11   -1    0    0    0    0 -0.00000000000E+00 -0.00000000000E+00 -0.45593999997E+02  0.45594000000E+02  0.51100000000E-03 0. -1.
         23    2    1    2    0    0 -0.17763568394E-14  0.35527136788E-14  0.00000000000E+00  0.91188000000E+02  0.91188000000E+02 0.  0.
    9900012    2    3    3    0    0  0.85188049932E+01  0.29183732733E+02 -0.20773043695E+02  0.54367086933E+02  0.40000006282E+02 0.  0.
        -12    1    3    3    0    0 -0.85188049932E+01 -0.29183732733E+02  0.20773043695E+02  0.36820913067E+02  0.00000000000E+00 0.  1.
         11    1    4    4    0    0  0.12081444269E+02  0.13154209867E+02 -0.16778724385E+02  0.24505512137E+02  0.51100000000E-03 0. -1.
        -11    1    4    4    0    0  0.74275644354E+01  0.11816390365E+02  0.52329832186E+01  0.14905700531E+02  0.51100000000E-03 0.  1.
         12    1    4    4    0    0 -0.10990203711E+02  0.42131325012E+01 -0.92273025282E+01  0.14955874265E+02  0.00000000000E+00 0. -1.
</event>
<event>
 8    1  0.2512298E-006  0.9118800E+02  0.7816164E-02  0.1184000E+00
        -11   -1    0    0    0    0  0.00000000000E+00  0.00000000000E+00  0.45593999997E+02  0.45594000000E+02  0.51100000000E-03 0. -1.
         11   -1    0    0    0    0 -0.00000000000E+00 -0.00000000000E+00 -0.45593999997E+02  0.45594000000E+02  0.51100000000E-03 0.  1.
         23    2    1    2    0    0  0.35527136788E-14  0.35527136788E-14  0.00000000000E+00  0.91188000000E+02  0.91188000000E+02 0.  0.
    9900012    2    3    3    0    0 -0.19339835596E+02 -0.30216018697E+02  0.82911473853E+01  0.54367079972E+02  0.39999990411E+02 0.  0.
        -12    1    3    3    0    0  0.19339835596E+02  0.30216018697E+02 -0.82911473853E+01  0.36820920028E+02  0.00000000000E+00 0.  1.
         11    1    4    4    0    0 -0.13618691450E+02 -0.29802711589E+02  0.42816825799E+01  0.33045471412E+02  0.51100000000E-03 0. -1.
        -11    1    4    4    0    0 -0.12587308284E+02  0.39107095016E+00  0.62439715904E+01  0.14056331235E+02  0.51100000000E-03 0.  1.
        -12    1    4    4    0    0  0.68661641375E+01 -0.80437805769E+00 -0.22345067850E+01  0.72652773240E+01  0.00000000000E+00 0.  1.
</event>
<event>
 8    1  0.2512298E-006  0.9118800E+02  0.7816164E-02  0.1184000E+00
        -11   -1    0    0    0    0  0.00000000000E+00  0.00000000000E+00  0.45593999997E+02  0.45594000000E+02  0.51100000000E-03 0.  1.
         11   -1    0    0    0    0 -0.00000000000E+00 -0.00000000000E+00 -0.45593999997E+02  0.45594000000E+02  0.51100000000E-03 0. -1.
         23    2    1    2    0    0 -0.17763568394E-14  0.00000000000E+00  0.00000000000E+00  0.91188000000E+02  0.91188000000E+02 0.  0.
    9900012    2    3    3    0    0 -0.10476875204E+02 -0.13052305420E+01  0.35274803521E+02  0.54367077900E+02  0.39999985689E+02 0.  0.
         12    1    3    3    0    0  0.10476875204E+02  0.13052305420E+01 -0.35274803521E+02  0.36820922100E+02  0.00000000000E+00 0. -1.
         11    1    4    4    0    0  0.89411122550E+01 -0.54060015021E+01  0.12917484339E+02  0.16614142846E+02  0.51100000000E-03 0.  1.
        -11    1    4    4    0    0 -0.15282443790E+02  0.67387106742E+01  0.26505415337E+02  0.31328906017E+02  0.51100000000E-03 0. -1.
         12    1    4    4    0    0 -0.41355436694E+01 -0.26379397141E+01 -0.41480961543E+01  0.64240290381E+01  0.00000000000E+00 0. -1.
</event>
<event>
 8    1  0.2512298E-006  0.9118800E+02  0.7816164E-02  0.1184000E+00
        -11   -1    0    0    0    0  0.00000000000E+00  0.00000000000E+00  0.45593999997E+02  0.45594000000E+02  0.51100000000E-03 0. -1.
         11   -1    0    0    0    0 -0.00000000000E+00 -0.00000000000E+00 -0.45593999997E+02  0.45594000000E+02  0.51100000000E-03 0.  1.
         23    2    1    2    0    0  0.00000000000E+00  0.00000000000E+00 -0.35527136788E-14  0.91188000000E+02  0.91188000000E+02 0.  0.
    9900012    2    3    3    0    0 -0.90858012445E+01 -0.25501635017E+02 -0.24957828254E+02  0.54367104248E+02  0.40000045754E+02 0.  0.
         12    1    3    3    0    0  0.90858012445E+01  0.25501635017E+02  0.24957828254E+02  0.36820895752E+02  0.00000000000E+00 0. -1.
         11    1    4    4    0    0 -0.15430497680E+02 -0.24139724720E+01 -0.58825208586E+01  0.16689265223E+02  0.51100000000E-03 0. -1.
        -11    1    4    4    0    0  0.82445190506E+00  0.35787323515E+01 -0.69666006708E+01  0.78753140480E+01  0.51100000000E-03 0.  1.
         12    1    4    4    0    0  0.55202445307E+01 -0.26666394897E+02 -0.12108706725E+02  0.29802524977E+02  0.00000000000E+00 0. -1.
</event>
<event>
 8    1  0.2512298E-006  0.9118800E+02  0.7816164E-02  0.1184000E+00
        -11   -1    0    0    0    0  0.00000000000E+00  0.00000000000E+00  0.45593999997E+02  0.45594000000E+02  0.51100000000E-03 0.  1.
         11   -1    0    0    0    0 -0.00000000000E+00 -0.00000000000E+00 -0.45593999997E+02  0.45594000000E+02  0.51100000000E-03 0. -1.
         23    2    1    2    0    0  0.00000000000E+00  0.35527136788E-14  0.35527136788E-14  0.91188000000E+02  0.91188000000E+02 0.  0.
    9900012    2    3    3    0    0  0.69526189419E+01  0.17498146467E+02  0.31642626747E+02  0.54367083833E+02  0.39999999213E+02 0.  0.
         12    1    3    3    0    0 -0.69526189419E+01 -0.17498146467E+02 -0.31642626747E+02  0.36820916167E+02  0.00000000000E+00 0. -1.
         11    1    4    4    0    0  0.75299849029E+01  0.59224167515E+01 -0.67784087909E+01  0.11735523798E+02  0.51100000000E-03 0. -1.
        -11    1    4    4    0    0  0.51379393706E+01  0.10938497816E+02  0.20354090256E+02  0.23671462690E+02  0.51100000000E-03 0.  1.
         12    1    4    4    0    0 -0.57153053316E+01  0.63723190037E+00  0.18066945282E+02  0.18960097345E+02  0.00000000000E+00 0. -1.
</event>
<event>
 8    1  0.2512298E-006  0.9118800E+02  0.7816164E-02  0.1184000E+00
        -11   -1    0    0    0    0  0.00000000000E+00  0.00000000000E+00  0.45593999997E+02  0.45594000000E+02  0.51100000000E-03 0. -1.
         11   -1    0    0    0    0 -0.00000000000E+00 -0.00000000000E+00 -0.45593999997E+02  0.45594000000E+02  0.51100000000E-03 0.  1.
         23    2    1    2    0    0  0.00000000000E+00  0.00000000000E+00  0.00000000000E+00  0.91188000000E+02  0.91188000000E+02 0.  0.
    9900012    2    3    3    0    0  0.19800075846E+02  0.10428797493E+02  0.29240017051E+02  0.54367062779E+02  0.39999951217E+02 0.  0.
        -12    1    3    3    0    0 -0.19800075846E+02 -0.10428797493E+02 -0.29240017051E+02  0.36820937221E+02  0.00000000000E+00 0.  1.
         11    1    4    4    0    0  0.12761844334E+02  0.80051192428E+01  0.39039849656E+02  0.41845626610E+02  0.51100000000E-03 0. -1.
        -11    1    4    4    0    0  0.28588896866E+01  0.15544361805E+01 -0.26608369473E+01  0.42035194303E+01  0.51100000000E-03 0.  1.
         12    1    4    4    0    0  0.41793418261E+01  0.86924207002E+00 -0.71389956580E+01  0.83179167392E+01  0.00000000000E+00 0. -1.
</event>
<event>
 8    1  0.2512298E-006  0.9118800E+02  0.7816164E-02  0.1184000E+00
        -11   -1    0    0    0    0  0.00000000000E+00  0.00000000000E+00  0.45593999997E+02  0.45594000000E+02  0.51100000000E-03 0.  1.
         11   -1    0    0    0    0 -0.00000000000E+00 -0.00000000000E+00 -0.45593999997E+02  0.45594000000E+02  0.51100000000E-03 0. -1.
         23    2    1    2    0    0 -0.88817841970E-15 -0.17763568394E-14  0.71054273576E-14  0.91188000000E+02  0.91188000000E+02 0.  0.
    9900012    2    3    3    0    0 -0.59145605792E+01  0.13041750923E+02  0.33922117675E+02  0.54367090702E+02  0.40000014874E+02 0.  0.
         12    1    3    3    0    0  0.59145605792E+01 -0.13041750923E+02 -0.33922117675E+02  0.36820909298E+02  0.00000000000E+00 0. -1.
         11    1    4    4    0    0  0.46490859732E+00 -0.34179476777E+01 -0.99324976179E+00  0.35895754180E+01  0.51100000000E-03 0. -1.
        -11    1    4    4    0    0 -0.14273273300E+02 -0.28329539559E+01  0.21593625388E+02  0.26039136246E+02  0.51100000000E-03 0.  1.
        -12    1    4    4    0    0  0.78938041235E+01  0.19292652556E+02  0.13321742049E+02  0.24738379038E+02  0.00000000000E+00 0.  1.
</event>
<event>
 8    1  0.2512298E-006  0.9118800E+02  0.7816164E-02  0.1184000E+00
        -11   -1    0    0    0    0  0.00000000000E+00  0.00000000000E+00  0.45593999997E+02  0.45594000000E+02  0.51100000000E-03 0. -1.
         11   -1    0    0    0    0 -0.00000000000E+00 -0.00000000000E+00 -0.45593999997E+02  0.45594000000E+02  0.51100000000E-03 0.  1.
         23    2    1    2    0    0 -0.35527136788E-14  0.00000000000E+00  0.35527136788E-14  0.91188000000E+02  0.91188000000E+02 0.  0.
    9900012    2    3    3    0    0 -0.22803115868E+02  0.26110573865E+02  0.12411064711E+02  0.54367099846E+02  0.40000035720E+02 0.  0.
        -12    1    3    3    0    0  0.22803115868E+02 -0.26110573865E+02 -0.12411064711E+02  0.36820900154E+02  0.00000000000E+00 0.  1.
         11    1    4    4    0    0  0.38016064103E+01  0.17369145281E+02 -0.63370315406E+01  0.18875841388E+02  0.51100000000E-03 0. -1.
        -11    1    4    4    0    0 -0.18277743849E+02  0.14502150615E+01  0.78065217124E+01  0.19927890642E+02  0.51100000000E-03 0.  1.
         12    1    4    4    0    0 -0.83269784292E+01  0.72912135230E+01  0.10941574539E+02  0.15563367817E+02  0.00000000000E+00 0. -1.
</event>
<event>
 8    1  0.2512298E-006  0.9118800E+02  0.7816164E-02  0.1184000E+00
        -11   -1    0    0    0    0  0.00000000000E+00  0.00000000000E+00  0.45593999997E+02  0.45594000000E+02  0.51100000000E-03 0.  1.
         11   -1    0    0    0    0 -0.00000000000E+00 -0.00000000000E+00 -0.45593999997E+02  0.45594000000E+02  0.51100000000E-03 0. -1.
         23    2    1    2    0    0  0.00000000000E+00 -0.17763568394E-14 -0.71054273576E-14  0.91188000000E+02  0.91188000000E+02 0.  0.
    9900012    2    3    3    0    0  0.49324455186E+01 -0.15604222175E+02 -0.32984196166E+02  0.54367109664E+02  0.40000058100E+02 0.  0.
        -12    1    3    3    0    0 -0.49324455186E+01  0.15604222175E+02  0.32984196166E+02  0.36820890336E+02  0.00000000000E+00 0.  1.
         11    1    4    4    0    0  0.35598240164E+01 -0.23953066947E+02 -0.25189134414E+02  0.34941583478E+02  0.51100000000E-03 0. -1.
        -11    1    4    4    0    0  0.44495165628E+01  0.36792568014E+01  0.35495541998E+01  0.67774968485E+01  0.51100000000E-03 0.  1.
        -12    1    4    4    0    0 -0.30768950606E+01  0.46695879700E+01 -0.11344615951E+02  0.12648029337E+02  0.00000000000E+00 0.  1.
</event>
<event>
 8    1  0.2512298E-006  0.9118800E+02  0.7816164E-02  0.1184000E+00
        -11   -1    0    0    0    0  0.00000000000E+00  0.00000000000E+00  0.45593999997E+02  0.45594000000E+02  0.51100000000E-03 0.  1.
         11   -1    0    0    0    0 -0.00000000000E+00 -0.00000000000E+00 -0.45593999997E+02  0.45594000000E+02  0.51100000000E-03 0. -1.
         23    2    1    2    0    0  0.00000000000E+00 -0.17763568394E-14 -0.35527136788E-14  0.91188000000E+02  0.91188000000E+02 0.  0.
    9900012    2    3    3    0    0 -0.28855845584E+02  0.78458605853E+01  0.21484003390E+02  0.54367085368E+02  0.40000002713E+02 0.  0.
         12    1    3    3    0    0  0.28855845584E+02 -0.78458605853E+01 -0.21484003390E+02  0.36820914632E+02  0.00000000000E+00 0. -1.
         11    1    4    4    0    0 -0.20693116928E+02  0.16332779443E+02  0.14957292650E+02  0.30309823097E+02  0.51100000000E-03 0. -1.
        -11    1    4    4    0    0 -0.32079603173E+01 -0.14543156809E+02  0.64566006167E+01  0.16232132058E+02  0.51100000000E-03 0.  1.
        -12    1    4    4    0    0 -0.49547683390E+01  0.60562379513E+01  0.70110123322E-01  0.78251302127E+01  0.00000000000E+00 0.  1.
</event>
<event>
 8    1  0.2512298E-006  0.9118800E+02  0.7816164E-02  0.1184000E+00
        -11   -1    0    0    0    0  0.00000000000E+00  0.00000000000E+00  0.45593999997E+02  0.45594000000E+02  0.51100000000E-03 0.  1.
         11   -1    0    0    0    0 -0.00000000000E+00 -0.00000000000E+00 -0.45593999997E+02  0.45594000000E+02  0.51100000000E-03 0. -1.
         23    2    1    2    0    0 -0.35527136788E-14  0.00000000000E+00 -0.88817841970E-15  0.91188000000E+02  0.91188000000E+02 0.  0.
    9900012    2    3    3    0    0  0.27145102795E+02  0.23967791931E+02  0.66684829214E+01  0.54367077683E+02  0.39999985195E+02 0.  0.
        -12    1    3    3    0    0 -0.27145102795E+02 -0.23967791931E+02 -0.66684829214E+01  0.36820922317E+02  0.00000000000E+00 0.  1.
         11    1    4    4    0    0  0.32498497097E+01 -0.10239473361E+02  0.15743375006E+01  0.10857572319E+02  0.51100000000E-03 0. -1.
        -11    1    4    4    0    0  0.19209801057E+02  0.20012224067E+02  0.65120511380E+01  0.28494076209E+02  0.51100000000E-03 0.  1.
         12    1    4    4    0    0  0.46854520278E+01  0.14195041225E+02 -0.14179057172E+01  0.15015429155E+02  0.00000000000E+00 0. -1.
</event>
<event>
 8    1  0.2512298E-006  0.9118800E+02  0.7816164E-02  0.1184000E+00
        -11   -1    0    0    0    0  0.00000000000E+00  0.00000000000E+00  0.45593999997E+02  0.45594000000E+02  0.51100000000E-03 0. -1.
         11   -1    0    0    0    0 -0.00000000000E+00 -0.00000000000E+00 -0.45593999997E+02  0.45594000000E+02  0.51100000000E-03 0.  1.
         23    2    1    2    0    0  0.17763568394E-14  0.17763568394E-14  0.00000000000E+00  0.91188000000E+02  0.91188000000E+02 0.  0.
    9900012    2    3    3    0    0 -0.11298707404E+02 -0.12075796990E+02 -0.32898245357E+02  0.54367079187E+02  0.39999988623E+02 0.  0.
         12    1    3    3    0    0  0.11298707404E+02  0.12075796990E+02  0.32898245357E+02  0.36820920813E+02  0.00000000000E+00 0. -1.
         11    1    4    4    0    0 -0.39560130089E+01  0.65218962183E+01 -0.21023278853E+02  0.22364333731E+02  0.51100000000E-03 0. -1.
        -11    1    4    4    0    0 -0.92003542760E+01 -0.97411407852E+01  0.37786019715E+01  0.13921715976E+02  0.51100000000E-03 0.  1.
         12    1    4    4    0    0  0.18576598809E+01 -0.88565524232E+01 -0.15653568475E+02  0.18081029480E+02  0.00000000000E+00 0. -1.
</event>
<event>
 8    1  0.2512298E-006  0.9118800E+02  0.7816164E-02  0.1184000E+00
        -11   -1    0    0    0    0  0.00000000000E+00  0.00000000000E+00  0.45593999997E+02  0.45594000000E+02  0.51100000000E-03 0.  1.
         11   -1    0    0    0    0 -0.00000000000E+00 -0.00000000000E+00 -0.45593999997E+02  0.45594000000E+02  0.51100000000E-03 0. -1.
         23    2    1    2    0    0  0.17763568394E-14  0.00000000000E+00  0.35527136788E-14  0.91188000000E+02  0.91188000000E+02 0.  0.
    9900012    2    3    3    0    0 -0.10846960209E+02 -0.19115025686E+02 -0.29542157930E+02  0.54367084097E+02  0.39999999816E+02 0.  0.
         12    1    3    3    0    0  0.10846960209E+02  0.19115025686E+02  0.29542157930E+02  0.36820915903E+02  0.00000000000E+00 0. -1.
         11    1    4    4    0    0 -0.88518363276E+01 -0.11048698091E+02 -0.16186322853E+02  0.21504087603E+02  0.51100000000E-03 0. -1.
        -11    1    4    4    0    0 -0.56695698582E+01 -0.17423927950E+02 -0.32514105017E+01  0.18609378230E+02  0.51100000000E-03 0.  1.
         12    1    4    4    0    0  0.36744459763E+01  0.93576003548E+01 -0.10104424576E+02  0.14253618265E+02  0.00000000000E+00 0. -1.
</event>
<event>
 8    1  0.2512298E-006  0.9118800E+02  0.7816164E-02  0.1184000E+00
        -11   -1    0    0    0    0  0.00000000000E+00  0.00000000000E+00  0.45593999997E+02  0.45594000000E+02  0.51100000000E-03 0. -1.
         11   -1    0    0    0    0 -0.00000000000E+00 -0.00000000000E+00 -0.45593999997E+02  0.45594000000E+02  0.51100000000E-03 0.  1.
         23    2    1    2    0    0  0.00000000000E+00 -0.35527136788E-14 -0.35527136788E-14  0.91188000000E+02  0.91188000000E+02 0.  0.
    9900012    2    3    3    0    0  0.23007146366E+02  0.17422893249E+02 -0.22866888661E+02  0.54367074019E+02  0.39999976841E+02 0.  0.
         12    1    3    3    0    0 -0.23007146366E+02 -0.17422893249E+02  0.22866888661E+02  0.36820925981E+02  0.00000000000E+00 0. -1.
         11    1    4    4    0    0 -0.17950869954E+01  0.30310944017E+01 -0.86802784963E+00  0.36281321918E+01  0.51100000000E-03 0. -1.
        -11    1    4    4    0    0  0.25474440650E+02  0.18912554317E+02 -0.28596476823E+02  0.42712882415E+02  0.51100000000E-03 0.  1.
        -12    1    4    4    0    0 -0.67220728909E+00 -0.45207554696E+01  0.65976160113E+01  0.80260594122E+01  0.00000000000E+00 0.  1.
</event>
<event>
 8    1  0.2512298E-006  0.9118800E+02  0.7816164E-02  0.1184000E+00
        -11   -1    0    0    0    0  0.00000000000E+00  0.00000000000E+00  0.45593999997E+02  0.45594000000E+02  0.51100000000E-03 0. -1.
         11   -1    0    0    0    0 -0.00000000000E+00 -0.00000000000E+00 -0.45593999997E+02  0.45594000000E+02  0.51100000000E-03 0.  1.
         23    2    1    2    0    0 -0.35527136788E-14  0.00000000000E+00  0.35527136788E-14  0.91188000000E+02  0.91188000000E+02 0.  0.
    9900012    2    3    3    0    0  0.22817883822E+02 -0.16258967375E+02 -0.23890884325E+02  0.54367025053E+02  0.39999865214E+02 0.  0.
         12    1    3    3    0    0 -0.22817883822E+02  0.16258967375E+02  0.23890884325E+02  0.36820974947E+02  0.00000000000E+00 0. -1.
         11    1    4    4    0    0  0.86632784724E+01 -0.16842686569E+00 -0.23546187682E+02  0.25089912636E+02  0.51100000000E-03 0. -1.
        -11    1    4    4    0    0  0.16064535289E+02 -0.18058680622E+02 -0.42139141753E+01  0.24534512688E+02  0.51100000000E-03 0.  1.
        -12    1    4    4    0    0 -0.19099299403E+01  0.19681401131E+01  0.38692175319E+01  0.47425997292E+01  0.00000000000E+00 0.  1.
</event>
<event>
 8    1  0.2512298E-006  0.9118800E+02  0.7816164E-02  0.1184000E+00
        -11   -1    0    0    0    0  0.00000000000E+00  0.00000000000E+00  0.45593999997E+02  0.45594000000E+02  0.51100000000E-03 0. -1.
         11   -1    0    0    0    0 -0.00000000000E+00 -0.00000000000E+00 -0.45593999997E+02  0.45594000000E+02  0.51100000000E-03 0.  1.
         23    2    1    2    0    0  0.00000000000E+00  0.71054273576E-14  0.22204460493E-15  0.91188000000E+02  0.91188000000E+02 0.  0.
    9900012    2    3    3    0    0 -0.53568634107E+01  0.36406616140E+02 -0.12816046957E+01  0.54367079385E+02  0.39999989074E+02 0.  0.
        -12    1    3    3    0    0  0.53568634107E+01 -0.36406616140E+02  0.12816046957E+01  0.36820920615E+02  0.00000000000E+00 0.  1.
         11    1    4    4    0    0 -0.10731090808E+02  0.17381735286E+02  0.73995001425E+01  0.21726335036E+02  0.51100000000E-03 0. -1.
        -11    1    4    4    0    0 -0.61398722551E+01  0.42914404934E+01 -0.11506046806E+02  0.13729661547E+02  0.51100000000E-03 0.  1.
         12    1    4    4    0    0  0.11514099652E+02  0.14733440361E+02  0.28249419679E+01  0.18911082803E+02  0.00000000000E+00 0. -1.
</event>
<event>
 8    1  0.2512298E-006  0.9118800E+02  0.7816164E-02  0.1184000E+00
        -11   -1    0    0    0    0  0.00000000000E+00  0.00000000000E+00  0.45593999997E+02  0.45594000000E+02  0.51100000000E-03 0.  1.
         11   -1    0    0    0    0 -0.00000000000E+00 -0.00000000000E+00 -0.45593999997E+02  0.45594000000E+02  0.51100000000E-03 0. -1.
         23    2    1    2    0    0 -0.17763568394E-14  0.00000000000E+00  0.35527136788E-14  0.91188000000E+02  0.91188000000E+02 0.  0.
    9900012    2    3    3    0    0  0.13114430850E+02  0.16169736670E+02  0.30369903452E+02  0.54367085886E+02  0.40000003894E+02 0.  0.
         12    1    3    3    0    0 -0.13114430850E+02 -0.16169736670E+02 -0.30369903452E+02  0.36820914114E+02  0.00000000000E+00 0. -1.
         11    1    4    4    0    0  0.21657343199E+02  0.81977238617E+01  0.23682981106E+02  0.33122904239E+02  0.51100000000E-03 0.  1.
        -11    1    4    4    0    0 -0.38619427611E+01 -0.11090694043E+00 -0.49774002298E+01  0.63009059308E+01  0.51100000000E-03 0. -1.
         12    1    4    4    0    0 -0.46809695873E+01  0.80829197488E+01  0.11664322577E+02  0.14943275716E+02  0.00000000000E+00 0. -1.
</event>
<event>
 8    1  0.2512298E-006  0.9118800E+02  0.7816164E-02  0.1184000E+00
        -11   -1    0    0    0    0  0.00000000000E+00  0.00000000000E+00  0.45593999997E+02  0.45594000000E+02  0.51100000000E-03 0.  1.
         11   -1    0    0    0    0 -0.00000000000E+00 -0.00000000000E+00 -0.45593999997E+02  0.45594000000E+02  0.51100000000E-03 0. -1.
         23    2    1    2    0    0  0.44408920985E-15 -0.17763568394E-14  0.00000000000E+00  0.91188000000E+02  0.91188000000E+02 0.  0.
    9900012    2    3    3    0    0 -0.28123540888E+01 -0.15158886058E+02  0.33437658353E+02  0.54367107043E+02  0.40000052125E+02 0.  0.
         12    1    3    3    0    0  0.28123540888E+01  0.15158886058E+02 -0.33437658353E+02  0.36820892957E+02  0.00000000000E+00 0. -1.
         11    1    4    4    0    0  0.73417257330E+00  0.95241903618E+01  0.79184933282E+01  0.12407729376E+02  0.51100000000E-03 0. -1.
        -11    1    4    4    0    0  0.45790441544E+01 -0.97350926020E+01  0.22137001992E+02  0.24612731072E+02  0.51100000000E-03 0.  1.
        -12    1    4    4    0    0 -0.81255708165E+01 -0.14947983818E+02  0.33821630324E+01  0.17346646595E+02  0.00000000000E+00 0.  1.
</event>
<event>
 8    1  0.2512298E-006  0.9118800E+02  0.7816164E-02  0.1184000E+00
        -11   -1    0    0    0    0  0.00000000000E+00  0.00000000000E+00  0.45593999997E+02  0.45594000000E+02  0.51100000000E-03 0.  1.
         11   -1    0    0    0    0 -0.00000000000E+00 -0.00000000000E+00 -0.45593999997E+02  0.45594000000E+02  0.51100000000E-03 0. -1.
         23    2    1    2    0    0 -0.17763568394E-14  0.00000000000E+00  0.00000000000E+00  0.91188000000E+02  0.91188000000E+02 0.  0.
    9900012    2    3    3    0    0 -0.10377209500E+02 -0.21775938349E+02 -0.27819097724E+02  0.54367079776E+02  0.39999989965E+02 0.  0.
        -12    1    3    3    0    0  0.10377209500E+02  0.21775938349E+02  0.27819097724E+02  0.36820920224E+02  0.00000000000E+00 0.  1.
         11    1    4    4    0    0 -0.84212933337E+01 -0.14136920282E+02  0.10159585825E+01  0.16486444995E+02  0.51100000000E-03 0. -1.
        -11    1    4    4    0    0  0.68146623243E+01  0.26732348412E+01 -0.16389450733E+01  0.75014630789E+01  0.51100000000E-03 0.  1.
         12    1    4    4    0    0 -0.87705784905E+01 -0.10312252908E+02 -0.27196111233E+02  0.30379171702E+02  0.00000000000E+00 0. -1.
</event>
<event>
 8    1  0.2512298E-006  0.9118800E+02  0.7816164E-02  0.1184000E+00
        -11   -1    0    0    0    0  0.00000000000E+00  0.00000000000E+00  0.45593999997E+02  0.45594000000E+02  0.51100000000E-03 0.  1.
         11   -1    0    0    0    0 -0.00000000000E+00 -0.00000000000E+00 -0.45593999997E+02  0.45594000000E+02  0.51100000000E-03 0. -1.
         23    2    1    2    0    0  0.00000000000E+00  0.00000000000E+00  0.00000000000E+00  0.91188000000E+02  0.91188000000E+02 0.  0.
    9900012    2    3    3    0    0 -0.44658177979E+01  0.35267204636E+02 -0.95948226503E+01  0.54367083754E+02  0.39999999035E+02 0.  0.
        -12    1    3    3    0    0  0.44658177979E+01 -0.35267204636E+02  0.95948226503E+01  0.36820916246E+02  0.00000000000E+00 0.  1.
         11    1    4    4    0    0 -0.73828864687E+01  0.35541749714E+02 -0.14465409147E+02  0.39076476906E+02  0.51100000000E-03 0. -1.
        -11    1    4    4    0    0  0.14808126026E+01  0.69168745554E+01  0.15552004056E+01  0.72425553599E+01  0.51100000000E-03 0.  1.
         12    1    4    4    0    0  0.14362560682E+01 -0.71914196329E+01  0.33153860909E+01  0.80480514885E+01  0.00000000000E+00 0. -1.
</event>
<event>
 8    1  0.2512298E-006  0.9118800E+02  0.7816164E-02  0.1184000E+00
        -11   -1    0    0    0    0  0.00000000000E+00  0.00000000000E+00  0.45593999997E+02  0.45594000000E+02  0.51100000000E-03 0. -1.
         11   -1    0    0    0    0 -0.00000000000E+00 -0.00000000000E+00 -0.45593999997E+02  0.45594000000E+02  0.51100000000E-03 0.  1.
         23    2    1    2    0    0  0.00000000000E+00  0.00000000000E+00  0.00000000000E+00  0.91188000000E+02  0.91188000000E+02 0.  0.
    9900012    2    3    3    0    0  0.34073046123E+02  0.11025549190E+02 -0.85585274618E+01  0.54367033155E+02  0.39999883684E+02 0.  0.
         12    1    3    3    0    0 -0.34073046123E+02 -0.11025549190E+02  0.85585274618E+01  0.36820966845E+02  0.00000000000E+00 0. -1.
         11    1    4    4    0    0  0.67522938690E+01  0.14142820514E+02 -0.74769068437E+01  0.17364244319E+02  0.51100000000E-03 0. -1.
        -11    1    4    4    0    0  0.23419172380E+02  0.66133815116E+01 -0.65187615156E+01  0.25193028836E+02  0.51100000000E-03 0.  1.
         12    1    4    4    0    0  0.39015798740E+01 -0.97306528349E+01  0.54371408975E+01  0.11809760000E+02  0.00000000000E+00 0. -1.
</event>
<event>
 8    1  0.2512298E-006  0.9118800E+02  0.7816164E-02  0.1184000E+00
        -11   -1    0    0    0    0  0.00000000000E+00  0.00000000000E+00  0.45593999997E+02  0.45594000000E+02  0.51100000000E-03 0. -1.
         11   -1    0    0    0    0 -0.00000000000E+00 -0.00000000000E+00 -0.45593999997E+02  0.45594000000E+02  0.51100000000E-03 0.  1.
         23    2    1    2    0    0 -0.22204460493E-15 -0.17763568394E-14 -0.71054273576E-14  0.91188000000E+02  0.91188000000E+02 0.  0.
    9900012    2    3    3    0    0  0.10235574568E+01 -0.12578409883E+02  0.34590689361E+02  0.54367083994E+02  0.39999999581E+02 0.  0.
        -12    1    3    3    0    0 -0.10235574568E+01  0.12578409883E+02 -0.34590689361E+02  0.36820916006E+02  0.00000000000E+00 0.  1.
         11    1    4    4    0    0 -0.64485308908E+01  0.65649240922E+00 -0.28661011204E+01  0.70872469145E+01  0.51100000000E-03 0. -1.
        -11    1    4    4    0    0  0.12646890753E+02 -0.16741508267E+02  0.21042068284E+02  0.29715157458E+02  0.51100000000E-03 0.  1.
         12    1    4    4    0    0 -0.51748024054E+01  0.35066059756E+01  0.16414722197E+02  0.17564679622E+02  0.00000000000E+00 0. -1.
</event>
<event>
 8    1  0.2512298E-006  0.9118800E+02  0.7816164E-02  0.1184000E+00
        -11   -1    0    0    0    0  0.00000000000E+00  0.00000000000E+00  0.45593999997E+02  0.45594000000E+02  0.51100000000E-03 0. -1.
         11   -1    0    0    0    0 -0.00000000000E+00 -0.00000000000E+00 -0.45593999997E+02  0.45594000000E+02  0.51100000000E-03 0.  1.
         23    2    1    2    0    0  0.35527136788E-14  0.00000000000E+00  0.00000000000E+00  0.91188000000E+02  0.91188000000E+02 0.  0.
    9900012    2    3    3    0    0  0.14706477066E+02  0.21805739006E+01 -0.33685973817E+02  0.54367079286E+02  0.39999988849E+02 0.  0.
         12    1    3    3    0    0 -0.14706477066E+02 -0.21805739006E+01  0.33685973817E+02  0.36820920714E+02  0.00000000000E+00 0. -1.
         11    1    4    4    0    0 -0.28087667797E+01  0.12670616079E+01  0.72882845682E+01  0.79128824173E+01  0.51100000000E-03 0. -1.
        -11    1    4    4    0    0 -0.28330769972E+00  0.10768058995E+01  0.57482451702E+00  0.12530752908E+01  0.51100000000E-03 0.  1.
        -12    1    4    4    0    0  0.17798551545E+02 -0.16329360681E+00 -0.41549082902E+02  0.45201121578E+02  0.00000000000E+00 0.  1.
</event>
<event>
 8    1  0.2512298E-006  0.9118800E+02  0.7816164E-02  0.1184000E+00
        -11   -1    0    0    0    0  0.00000000000E+00  0.00000000000E+00  0.45593999997E+02  0.45594000000E+02  0.51100000000E-03 0.  1.
         11   -1    0    0    0    0 -0.00000000000E+00 -0.00000000000E+00 -0.45593999997E+02  0.45594000000E+02  0.51100000000E-03 0. -1.
         23    2    1    2    0    0 -0.35527136788E-14  0.00000000000E+00  0.00000000000E+00  0.91188000000E+02  0.91188000000E+02 0.  0.
    9900012    2    3    3    0    0 -0.27036119126E+02  0.17911474279E+02 -0.17435813239E+02  0.54367078888E+02  0.39999987941E+02 0.  0.
         12    1    3    3    0    0  0.27036119126E+02 -0.17911474279E+02  0.17435813239E+02  0.36820921112E+02  0.00000000000E+00 0. -1.
         11    1    4    4    0    0 -0.12459175452E+02  0.13611524667E+02 -0.50899315743E+01  0.19141892812E+02  0.51100000000E-03 0. -1.
        -11    1    4    4    0    0 -0.82734066200E+01  0.17030177067E+01 -0.21908898077E+02  0.23480829236E+02  0.51100000000E-03 0.  1.
        -12    1    4    4    0    0 -0.63035370532E+01  0.25969319055E+01  0.95630164118E+01  0.11744356840E+02  0.00000000000E+00 0.  1.
</event>
<event>
 8    1  0.2512298E-006  0.9118800E+02  0.7816164E-02  0.1184000E+00
        -11   -1    0    0    0    0  0.00000000000E+00  0.00000000000E+00  0.45593999997E+02  0.45594000000E+02  0.51100000000E-03 0.  1.
         11   -1    0    0    0    0 -0.00000000000E+00 -0.00000000000E+00 -0.45593999997E+02  0.45594000000E+02  0.51100000000E-03 0. -1.
         23    2    1    2    0    0  0.00000000000E+00  0.00000000000E+00  0.00000000000E+00  0.91188000000E+02  0.91188000000E+02 0.  0.
    9900012    2    3    3    0    0  0.22938983642E+02 -0.20764399597E+02 -0.19960556794E+02  0.54367067249E+02  0.39999961407E+02 0.  0.
        -12    1    3    3    0    0 -0.22938983642E+02  0.20764399597E+02  0.19960556794E+02  0.36820932751E+02  0.00000000000E+00 0.  1.
         11    1    4    4    0    0 -0.41583832492E+01  0.84899348699E-01 -0.99975504498E+01  0.10828221202E+02  0.51100000000E-03 0. -1.
        -11    1    4    4    0    0 -0.15601659586E+01 -0.27427052363E+01  0.54526335640E+01  0.62998224480E+01  0.51100000000E-03 0.  1.
         12    1    4    4    0    0  0.28657532850E+02 -0.18106593710E+02 -0.15415639908E+02  0.37239023599E+02  0.00000000000E+00 0. -1.
</event>
<event>
 8    1  0.2512298E-006  0.9118800E+02  0.7816164E-02  0.1184000E+00
        -11   -1    0    0    0    0  0.00000000000E+00  0.00000000000E+00  0.45593999997E+02  0.45594000000E+02  0.51100000000E-03 0.  1.
         11   -1    0    0    0    0 -0.00000000000E+00 -0.00000000000E+00 -0.45593999997E+02  0.45594000000E+02  0.51100000000E-03 0. -1.
         23    2    1    2    0    0 -0.71054273576E-14  0.88817841970E-15 -0.35527136788E-14  0.91188000000E+02  0.91188000000E+02 0.  0.
    9900012    2    3    3    0    0 -0.31217578220E+02 -0.75476697523E+01 -0.18007655949E+02  0.54367079569E+02  0.39999989494E+02 0.  0.
        -12    1    3    3    0    0  0.31217578220E+02  0.75476697523E+01  0.18007655949E+02  0.36820920431E+02  0.00000000000E+00 0.  1.
         11    1    4    4    0    0 -0.23573946073E+02 -0.71859026369E+01 -0.22874500578E+02  0.33624558096E+02  0.51100000000E-03 0. -1.
        -11    1    4    4    0    0  0.21940445262E+01  0.55978180988E+01  0.68025302375E+01  0.90787563434E+01  0.51100000000E-03 0.  1.
        -12    1    4    4    0    0 -0.98376766726E+01 -0.59595852141E+01 -0.19356856085E+01  0.11663765130E+02  0.00000000000E+00 0.  1.
</event>
<event>
 8    1  0.2512298E-006  0.9118800E+02  0.7816164E-02  0.1184000E+00
        -11   -1    0    0    0    0  0.00000000000E+00  0.00000000000E+00  0.45593999997E+02  0.45594000000E+02  0.51100000000E-03 0. -1.
         11   -1    0    0    0    0 -0.00000000000E+00 -0.00000000000E+00 -0.45593999997E+02  0.45594000000E+02  0.51100000000E-03 0.  1.
         23    2    1    2    0    0 -0.35527136788E-14  0.00000000000E+00 -0.17763568394E-14  0.91188000000E+02  0.91188000000E+02 0.  0.
    9900012    2    3    3    0    0 -0.31445168789E+02  0.17941872441E+02 -0.67142486911E+01  0.54366938603E+02  0.39999668133E+02 0.  0.
         12    1    3    3    0    0  0.31445168789E+02 -0.17941872441E+02  0.67142486911E+01  0.36821061397E+02  0.00000000000E+00 0. -1.
         11    1    4    4    0    0 -0.14220763425E+02  0.16070708958E+01  0.10548416827E+02  0.17778691939E+02  0.51100000000E-03 0. -1.
        -11    1    4    4    0    0 -0.21060670187E+02  0.85838515472E+01 -0.16093991785E+02  0.27861279725E+02  0.51100000000E-03 0.  1.
         12    1    4    4    0    0  0.38362648223E+01  0.77509499982E+01 -0.11686737333E+01  0.87269669391E+01  0.00000000000E+00 0. -1.
</event>
<event>
 8    1  0.2512298E-006  0.9118800E+02  0.7816164E-02  0.1184000E+00
        -11   -1    0    0    0    0  0.00000000000E+00  0.00000000000E+00  0.45593999997E+02  0.45594000000E+02  0.51100000000E-03 0.  1.
         11   -1    0    0    0    0 -0.00000000000E+00 -0.00000000000E+00 -0.45593999997E+02  0.45594000000E+02  0.51100000000E-03 0. -1.
         23    2    1    2    0    0 -0.88817841970E-15 -0.35527136788E-14  0.00000000000E+00  0.91188000000E+02  0.91188000000E+02 0.  0.
    9900012    2    3    3    0    0 -0.79871857964E+01 -0.28946798209E+02  0.21308847785E+02  0.54367092115E+02  0.40000018095E+02 0.  0.
         12    1    3    3    0    0  0.79871857964E+01  0.28946798209E+02 -0.21308847785E+02  0.36820907885E+02  0.00000000000E+00 0. -1.
         11    1    4    4    0    0 -0.71210321146E+01  0.52156169745E+01  0.15506560733E+02  0.17842790836E+02  0.51100000000E-03 0. -1.
        -11    1    4    4    0    0 -0.22740159302E+01 -0.13782707496E+02  0.77989442019E+01  0.15998678236E+02  0.51100000000E-03 0.  1.
         12    1    4    4    0    0  0.14078622484E+01 -0.20379707688E+02 -0.19966571490E+01  0.20525623044E+02  0.00000000000E+00 0. -1.
</event>
<event>
 8    1  0.2512298E-006  0.9118800E+02  0.7816164E-02  0.1184000E+00
        -11   -1    0    0    0    0  0.00000000000E+00  0.00000000000E+00  0.45593999997E+02  0.45594000000E+02  0.51100000000E-03 0. -1.
         11   -1    0    0    0    0 -0.00000000000E+00 -0.00000000000E+00 -0.45593999997E+02  0.45594000000E+02  0.51100000000E-03 0.  1.
         23    2    1    2    0    0  0.00000000000E+00  0.00000000000E+00 -0.26645352591E-14  0.91188000000E+02  0.91188000000E+02 0.  0.
    9900012    2    3    3    0    0 -0.32250266861E+02  0.16836854324E+02  0.56759269604E+01  0.54367142826E+02  0.40000133701E+02 0.  0.
        -12    1    3    3    0    0  0.32250266861E+02 -0.16836854324E+02 -0.56759269604E+01  0.36820857174E+02  0.00000000000E+00 0.  1.
         11    1    4    4    0    0 -0.13651579491E+01  0.18876091635E+01 -0.74384105921E+01  0.77946569506E+01  0.51100000000E-03 0. -1.
        -11    1    4    4    0    0 -0.13591358482E+02  0.19863099642E+02 -0.41603971934E+00  0.24071577474E+02  0.51100000000E-03 0.  1.
         12    1    4    4    0    0 -0.17293750430E+02 -0.49138544812E+01  0.13530377272E+02  0.22500908402E+02  0.00000000000E+00 0. -1.
</event>
<event>
 8    1  0.2512298E-006  0.9118800E+02  0.7816164E-02  0.1184000E+00
        -11   -1    0    0    0    0  0.00000000000E+00  0.00000000000E+00  0.45593999997E+02  0.45594000000E+02  0.51100000000E-03 0. -1.
         11   -1    0    0    0    0 -0.00000000000E+00 -0.00000000000E+00 -0.45593999997E+02  0.45594000000E+02  0.51100000000E-03 0.  1.
         23    2    1    2    0    0  0.71054273576E-14 -0.17763568394E-14 -0.17763568394E-14  0.91188000000E+02  0.91188000000E+02 0.  0.
    9900012    2    3    3    0    0 -0.34018594733E+02  0.76520669460E+01  0.11830523762E+02  0.54367079199E+02  0.39999988650E+02 0.  0.
        -12    1    3    3    0    0  0.34018594733E+02 -0.76520669460E+01 -0.11830523762E+02  0.36820920801E+02  0.00000000000E+00 0.  1.
         11    1    4    4    0    0  0.19675668637E+01 -0.44579471386E+01  0.11117807062E+02  0.12138790969E+02  0.51100000000E-03 0. -1.
        -11    1    4    4    0    0  0.36331360444E+00 -0.13673182467E+00 -0.36078007863E+01  0.36286249657E+01  0.51100000000E-03 0.  1.
         12    1    4    4    0    0 -0.36349475201E+02  0.12246745909E+02  0.43205174860E+01  0.38599663264E+02  0.00000000000E+00 0. -1.
</event>
<event>
 8    1  0.2512298E-006  0.9118800E+02  0.7816164E-02  0.1184000E+00
        -11   -1    0    0    0    0  0.00000000000E+00  0.00000000000E+00  0.45593999997E+02  0.45594000000E+02  0.51100000000E-03 0. -1.
         11   -1    0    0    0    0 -0.00000000000E+00 -0.00000000000E+00 -0.45593999997E+02  0.45594000000E+02  0.51100000000E-03 0.  1.
         23    2    1    2    0    0 -0.35527136788E-14  0.00000000000E+00  0.00000000000E+00  0.91188000000E+02  0.91188000000E+02 0.  0.
    9900012    2    3    3    0    0  0.27077799534E+02 -0.43661922521E+01 -0.24566343965E+02  0.54367134745E+02  0.40000115277E+02 0.  0.
         12    1    3    3    0    0 -0.27077799534E+02  0.43661922521E+01  0.24566343965E+02  0.36820865255E+02  0.00000000000E+00 0. -1.
         11    1    4    4    0    0  0.69224500798E+01  0.79732459694E+01 -0.19162402648E+01  0.10731493065E+02  0.51100000000E-03 0. -1.
        -11    1    4    4    0    0  0.55979087166E+01 -0.27448578040E+01 -0.25249683871E+02  0.26008024958E+02  0.51100000000E-03 0.  1.
         12    1    4    4    0    0  0.14557440737E+02 -0.95945804174E+01  0.25995801712E+01  0.17627616721E+02  0.00000000000E+00 0. -1.
</event>
<event>
 8    1  0.2512298E-006  0.9118800E+02  0.7816164E-02  0.1184000E+00
        -11   -1    0    0    0    0  0.00000000000E+00  0.00000000000E+00  0.45593999997E+02  0.45594000000E+02  0.51100000000E-03 0.  1.
         11   -1    0    0    0    0 -0.00000000000E+00 -0.00000000000E+00 -0.45593999997E+02  0.45594000000E+02  0.51100000000E-03 0. -1.
         23    2    1    2    0    0  0.71054273576E-14 -0.35527136788E-14  0.00000000000E+00  0.91188000000E+02  0.91188000000E+02 0.  0.
    9900012    2    3    3    0    0  0.31139991077E+02  0.19534869477E+02 -0.21142377069E+01  0.54367079712E+02  0.39999989819E+02 0.  0.
        -12    1    3    3    0    0 -0.31139991077E+02 -0.19534869477E+02  0.21142377069E+01  0.36820920288E+02  0.00000000000E+00 0.  1.
         11    1    4    4    0    0  0.12795353447E+02 -0.10412831375E+01 -0.29250331578E+01  0.13166668510E+02  0.51100000000E-03 0. -1.
        -11    1    4    4    0    0 -0.65742800530E+01 -0.25390292862E+01 -0.12124327270E+01  0.71510713400E+01  0.51100000000E-03 0.  1.
        -12    1    4    4    0    0  0.24918917683E+02  0.23115181900E+02  0.20232281778E+01  0.34049339862E+02  0.00000000000E+00 0.  1.
</event>
<event>
 8    1  0.2512298E-006  0.9118800E+02  0.7816164E-02  0.1184000E+00
        -11   -1    0    0    0    0  0.00000000000E+00  0.00000000000E+00  0.45593999997E+02  0.45594000000E+02  0.51100000000E-03 0.  1.
         11   -1    0    0    0    0 -0.00000000000E+00 -0.00000000000E+00 -0.45593999997E+02  0.45594000000E+02  0.51100000000E-03 0. -1.
         23    2    1    2    0    0  0.17763568394E-14  0.00000000000E+00  0.71054273576E-14  0.91188000000E+02  0.91188000000E+02 0.  0.
    9900012    2    3    3    0    0 -0.84147191993E+01  0.95517045430E+01  0.34550504562E+02  0.54367083059E+02  0.39999997450E+02 0.  0.
         12    1    3    3    0    0  0.84147191993E+01 -0.95517045430E+01 -0.34550504562E+02  0.36820916941E+02  0.00000000000E+00 0. -1.
         11    1    4    4    0    0 -0.84604592890E+01  0.28108919526E+01  0.38741529141E+01  0.97205733377E+01  0.51100000000E-03 0. -1.
        -11    1    4    4    0    0 -0.34784026910E+01  0.90447594467E+01 -0.34311835417E+01  0.10280076823E+02  0.51100000000E-03 0.  1.
        -12    1    4    4    0    0  0.35241427807E+01 -0.23039468562E+01  0.34107535190E+02  0.34366432898E+02  0.00000000000E+00 0.  1.
</event>
<event>
 8    1  0.2512298E-006  0.9118800E+02  0.7816164E-02  0.1184000E+00
        -11   -1    0    0    0    0  0.00000000000E+00  0.00000000000E+00  0.45593999997E+02  0.45594000000E+02  0.51100000000E-03 0.  1.
         11   -1    0    0    0    0 -0.00000000000E+00 -0.00000000000E+00 -0.45593999997E+02  0.45594000000E+02  0.51100000000E-03 0. -1.
         23    2    1    2    0    0  0.44408920985E-15  0.44408920985E-15  0.00000000000E+00  0.91188000000E+02  0.91188000000E+02 0.  0.
    9900012    2    3    3    0    0 -0.28328240428E+01  0.27910150053E+01 -0.36605539165E+02  0.54367079935E+02  0.39999990329E+02 0.  0.
        -12    1    3    3    0    0  0.28328240428E+01 -0.27910150053E+01  0.36605539165E+02  0.36820920065E+02  0.00000000000E+00 0.  1.
         11    1    4    4    0    0  0.25169495635E+01 -0.85466733534E+01 -0.17775186392E+02  0.19883106197E+02  0.51100000000E-03 0. -1.
        -11    1    4    4    0    0  0.34178153806E+00  0.11179743136E+02  0.32770355611E+01  0.11655146225E+02  0.51100000000E-03 0.  1.
        -12    1    4    4    0    0 -0.56915551444E+01  0.15794522318E+00 -0.22107388334E+02  0.22828827513E+02  0.00000000000E+00 0.  1.
</event>
<event>
 8    1  0.2512298E-006  0.9118800E+02  0.7816164E-02  0.1184000E+00
        -11   -1    0    0    0    0  0.00000000000E+00  0.00000000000E+00  0.45593999997E+02  0.45594000000E+02  0.51100000000E-03 0. -1.
         11   -1    0    0    0    0 -0.00000000000E+00 -0.00000000000E+00 -0.45593999997E+02  0.45594000000E+02  0.51100000000E-03 0.  1.
         23    2    1    2    0    0  0.00000000000E+00 -0.35527136788E-14 -0.44408920985E-15  0.91188000000E+02  0.91188000000E+02 0.  0.
    9900012    2    3    3    0    0  0.32596534606E+02 -0.16737867050E+02 -0.36179544603E+01  0.54367083986E+02  0.39999999562E+02 0.  0.
         12    1    3    3    0    0 -0.32596534606E+02  0.16737867050E+02  0.36179544603E+01  0.36820916014E+02  0.00000000000E+00 0. -1.
         11    1    4    4    0    0 -0.20349497498E+01  0.70512374424E+01 -0.21625410776E+00  0.73421887781E+01  0.51100000000E-03 0. -1.
        -11    1    4    4    0    0  0.22327038310E+02 -0.25992022519E+02 -0.40770092620E+01  0.34506577331E+02  0.51100000000E-03 0.  1.
        -12    1    4    4    0    0  0.12304446046E+02  0.22029180275E+01  0.67530890945E+00  0.12518317876E+02  0.00000000000E+00 0.  1.
</event>
<event>
 8    1  0.2512298E-006  0.9118800E+02  0.7816164E-02  0.1184000E+00
        -11   -1    0    0    0    0  0.00000000000E+00  0.00000000000E+00  0.45593999997E+02  0.45594000000E+02  0.51100000000E-03 0. -1.
         11   -1    0    0    0    0 -0.00000000000E+00 -0.00000000000E+00 -0.45593999997E+02  0.45594000000E+02  0.51100000000E-03 0.  1.
         23    2    1    2    0    0  0.00000000000E+00  0.00000000000E+00  0.35527136788E-14  0.91188000000E+02  0.91188000000E+02 0.  0.
    9900012    2    3    3    0    0  0.14496726453E+02  0.23109580831E+02  0.24729999445E+02  0.54367072844E+02  0.39999974163E+02 0.  0.
        -12    1    3    3    0    0 -0.14496726453E+02 -0.23109580831E+02 -0.24729999445E+02  0.36820927156E+02  0.00000000000E+00 0.  1.
         11    1    4    4    0    0  0.41277218693E+01  0.85737750806E+01  0.13755772422E+02  0.16726296128E+02  0.51100000000E-03 0. -1.
        -11    1    4    4    0    0  0.41113674091E+01  0.16229457542E+02 -0.72898072220E+01  0.18260337447E+02  0.51100000000E-03 0.  1.
        -12    1    4    4    0    0  0.62576371741E+01 -0.16936517912E+01  0.18264034245E+02  0.19380439270E+02  0.00000000000E+00 0.  1.
</event>
<event>
 8    1  0.2512298E-006  0.9118800E+02  0.7816164E-02  0.1184000E+00
        -11   -1    0    0    0    0  0.00000000000E+00  0.00000000000E+00  0.45593999997E+02  0.45594000000E+02  0.51100000000E-03 0. -1.
         11   -1    0    0    0    0 -0.00000000000E+00 -0.00000000000E+00 -0.45593999997E+02  0.45594000000E+02  0.51100000000E-03 0.  1.
         23    2    1    2    0    0  0.17763568394E-14 -0.71054273576E-14  0.17763568394E-14  0.91188000000E+02  0.91188000000E+02 0.  0.
    9900012    2    3    3    0    0  0.83582304910E+01 -0.34140208972E+02  0.10971113081E+02  0.54367092789E+02  0.40000019632E+02 0.  0.
        -12    1    3    3    0    0 -0.83582304910E+01  0.34140208972E+02 -0.10971113081E+02  0.36820907211E+02  0.00000000000E+00 0.  1.
         11    1    4    4    0    0  0.11933349556E+02 -0.25226897857E+02  0.97185038492E+01  0.29550812585E+02  0.51100000000E-03 0. -1.
        -11    1    4    4    0    0  0.73385398101E+00 -0.55369711775E+01  0.11731732710E+02  0.12993465439E+02  0.51100000000E-03 0.  1.
        -12    1    4    4    0    0 -0.43089730459E+01 -0.33763399373E+01 -0.10479123479E+02  0.11822814765E+02  0.00000000000E+00 0.  1.
</event>
<event>
 8    1  0.2512298E-006  0.9118800E+02  0.7816164E-02  0.1184000E+00
        -11   -1    0    0    0    0  0.00000000000E+00  0.00000000000E+00  0.45593999997E+02  0.45594000000E+02  0.51100000000E-03 0.  1.
         11   -1    0    0    0    0 -0.00000000000E+00 -0.00000000000E+00 -0.45593999997E+02  0.45594000000E+02  0.51100000000E-03 0. -1.
         23    2    1    2    0    0  0.00000000000E+00  0.00000000000E+00  0.00000000000E+00  0.91188000000E+02  0.91188000000E+02 0.  0.
    9900012    2    3    3    0    0 -0.50502283296E+01 -0.21407342562E+02  0.29529665304E+02  0.54367078573E+02  0.39999987223E+02 0.  0.
         12    1    3    3    0    0  0.50502283296E+01  0.21407342562E+02 -0.29529665304E+02  0.36820921427E+02  0.00000000000E+00 0. -1.
         11    1    4    4    0    0 -0.71715662821E+01  0.65336373631E+01  0.17413141361E+02  0.19933320658E+02  0.51100000000E-03 0.  1.
        -11    1    4    4    0    0 -0.22182020260E+01 -0.27790716364E+02  0.10183265109E+02  0.29680687741E+02  0.51100000000E-03 0. -1.
         12    1    4    4    0    0  0.43395399785E+01 -0.15026356126E+00  0.19332588344E+01  0.47530701745E+01  0.00000000000E+00 0. -1.
</event>
<event>
 8    1  0.2512298E-006  0.9118800E+02  0.7816164E-02  0.1184000E+00
        -11   -1    0    0    0    0  0.00000000000E+00  0.00000000000E+00  0.45593999997E+02  0.45594000000E+02  0.51100000000E-03 0. -1.
         11   -1    0    0    0    0 -0.00000000000E+00 -0.00000000000E+00 -0.45593999997E+02  0.45594000000E+02  0.51100000000E-03 0.  1.
         23    2    1    2    0    0  0.00000000000E+00  0.00000000000E+00  0.00000000000E+00  0.91188000000E+02  0.91188000000E+02 0.  0.
    9900012    2    3    3    0    0 -0.32767977470E+01 -0.24758583241E+02  0.27056518184E+02  0.54367081709E+02  0.39999994372E+02 0.  0.
        -12    1    3    3    0    0  0.32767977470E+01  0.24758583241E+02 -0.27056518184E+02  0.36820918291E+02  0.00000000000E+00 0.  1.
         11    1    4    4    0    0 -0.22750345972E+00 -0.29474865670E+02  0.18664677989E+02  0.34888245424E+02  0.51100000000E-03 0. -1.
        -11    1    4    4    0    0 -0.51657880441E+01 -0.43204912398E+01 -0.33009032097E+00  0.67424751057E+01  0.51100000000E-03 0.  1.
         12    1    4    4    0    0  0.21164937568E+01  0.90367736686E+01  0.87219305160E+01  0.12736361179E+02  0.00000000000E+00 0. -1.
</event>
<event>
 8    1  0.2512298E-006  0.9118800E+02  0.7816164E-02  0.1184000E+00
        -11   -1    0    0    0    0  0.00000000000E+00  0.00000000000E+00  0.45593999997E+02  0.45594000000E+02  0.51100000000E-03 0.  1.
         11   -1    0    0    0    0 -0.00000000000E+00 -0.00000000000E+00 -0.45593999997E+02  0.45594000000E+02  0.51100000000E-03 0. -1.
         23    2    1    2    0    0 -0.17763568394E-14  0.00000000000E+00  0.00000000000E+00  0.91188000000E+02  0.91188000000E+02 0.  0.
    9900012    2    3    3    0    0 -0.12823232097E+02  0.34418035625E+02  0.25977585553E+01  0.54367016754E+02  0.39999846293E+02 0.  0.
        -12    1    3    3    0    0  0.12823232097E+02 -0.34418035625E+02 -0.25977585553E+01  0.36820983246E+02  0.00000000000E+00 0.  1.
         11    1    4    4    0    0 -0.12910656974E+02  0.21921800960E+02 -0.54158764344E+01  0.26011192565E+02  0.51100000000E-03 0. -1.
        -11    1    4    4    0    0 -0.98017299562E+01  0.14077402024E+02  0.43989941215E+01  0.17708707108E+02  0.51100000000E-03 0.  1.
        -12    1    4    4    0    0  0.98891548338E+01 -0.15811673586E+01  0.36146408681E+01  0.10647117082E+02  0.00000000000E+00 0.  1.
</event>
<event>
 8    1  0.2512298E-006  0.9118800E+02  0.7816164E-02  0.1184000E+00
        -11   -1    0    0    0    0  0.00000000000E+00  0.00000000000E+00  0.45593999997E+02  0.45594000000E+02  0.51100000000E-03 0. -1.
         11   -1    0    0    0    0 -0.00000000000E+00 -0.00000000000E+00 -0.45593999997E+02  0.45594000000E+02  0.51100000000E-03 0.  1.
         23    2    1    2    0    0  0.00000000000E+00  0.88817841970E-15 -0.35527136788E-14  0.91188000000E+02  0.91188000000E+02 0.  0.
    9900012    2    3    3    0    0  0.21958449279E+02  0.75787665613E+01 -0.28568629588E+02  0.54367111990E+02  0.40000063402E+02 0.  0.
         12    1    3    3    0    0 -0.21958449279E+02 -0.75787665613E+01  0.28568629588E+02  0.36820888010E+02  0.00000000000E+00 0. -1.
         11    1    4    4    0    0  0.11109215655E+02  0.17304576839E+02 -0.57382702268E+01  0.21349257539E+02  0.51100000000E-03 0. -1.
        -11    1    4    4    0    0  0.44552394018E+01  0.47291931416E+01 -0.12638651325E+02  0.14210908961E+02  0.51100000000E-03 0.  1.
         12    1    4    4    0    0  0.63939942221E+01 -0.14455003419E+02 -0.10191708036E+02  0.18806945490E+02  0.00000000000E+00 0. -1.
</event>
<event>
 8    1  0.2512298E-006  0.9118800E+02  0.7816164E-02  0.1184000E+00
        -11   -1    0    0    0    0  0.00000000000E+00  0.00000000000E+00  0.45593999997E+02  0.45594000000E+02  0.51100000000E-03 0.  1.
         11   -1    0    0    0    0 -0.00000000000E+00 -0.00000000000E+00 -0.45593999997E+02  0.45594000000E+02  0.51100000000E-03 0. -1.
         23    2    1    2    0    0  0.00000000000E+00 -0.35527136788E-14  0.00000000000E+00  0.91188000000E+02  0.91188000000E+02 0.  0.
    9900012    2    3    3    0    0 -0.22067845337E+02 -0.26399968582E+02  0.13108495236E+02  0.54367071355E+02  0.39999970767E+02 0.  0.
        -12    1    3    3    0    0  0.22067845337E+02  0.26399968582E+02 -0.13108495236E+02  0.36820928645E+02  0.00000000000E+00 0.  1.
         11    1    4    4    0    0 -0.26979166386E+02 -0.14724890218E+02  0.20206627049E+01  0.30802287072E+02  0.51100000000E-03 0. -1.
        -11    1    4    4    0    0 -0.60507594810E+01 -0.44902705080E+01  0.54372075721E+01  0.92917945508E+01  0.51100000000E-03 0.  1.
         12    1    4    4    0    0  0.10962080530E+02 -0.71848078560E+01  0.56506249589E+01  0.14272989732E+02  0.00000000000E+00 0. -1.
</event>
<event>
 8    1  0.2512298E-006  0.9118800E+02  0.7816164E-02  0.1184000E+00
        -11   -1    0    0    0    0  0.00000000000E+00  0.00000000000E+00  0.45593999997E+02  0.45594000000E+02  0.51100000000E-03 0.  1.
         11   -1    0    0    0    0 -0.00000000000E+00 -0.00000000000E+00 -0.45593999997E+02  0.45594000000E+02  0.51100000000E-03 0. -1.
         23    2    1    2    0    0 -0.88817841970E-15 -0.35527136788E-14  0.35527136788E-14  0.91188000000E+02  0.91188000000E+02 0.  0.
    9900012    2    3    3    0    0 -0.75803528548E+01 -0.23048080649E+02 -0.27696639553E+02  0.54367087280E+02  0.40000007072E+02 0.  0.
        -12    1    3    3    0    0  0.75803528548E+01  0.23048080649E+02  0.27696639553E+02  0.36820912720E+02  0.00000000000E+00 0.  1.
         11    1    4    4    0    0 -0.10153784924E+02 -0.41068946386E+01  0.70723899524E+01  0.13037815452E+02  0.51100000000E-03 0. -1.
        -11    1    4    4    0    0  0.42172553301E+01 -0.74853702998E+01 -0.64703239099E+01  0.10755514995E+02  0.51100000000E-03 0.  1.
         12    1    4    4    0    0 -0.16438232606E+01 -0.11455815711E+02 -0.28298705595E+02  0.30573756833E+02  0.00000000000E+00 0. -1.
</event>
<event>
 8    1  0.2512298E-006  0.9118800E+02  0.7816164E-02  0.1184000E+00
        -11   -1    0    0    0    0  0.00000000000E+00  0.00000000000E+00  0.45593999997E+02  0.45594000000E+02  0.51100000000E-03 0.  1.
         11   -1    0    0    0    0 -0.00000000000E+00 -0.00000000000E+00 -0.45593999997E+02  0.45594000000E+02  0.51100000000E-03 0. -1.
         23    2    1    2    0    0  0.00000000000E+00  0.00000000000E+00  0.00000000000E+00  0.91188000000E+02  0.91188000000E+02 0.  0.
    9900012    2    3    3    0    0  0.15623429600E+02 -0.25405872065E+02 -0.21592383160E+02  0.54367069833E+02  0.39999967298E+02 0.  0.
        -12    1    3    3    0    0 -0.15623429600E+02  0.25405872065E+02  0.21592383160E+02  0.36820930167E+02  0.00000000000E+00 0.  1.
         11    1    4    4    0    0  0.14999340022E+02 -0.30332570013E+02 -0.10058329202E+02  0.35301770370E+02  0.51100000000E-03 0. -1.
        -11    1    4    4    0    0  0.73676735316E+01  0.39492112331E+01 -0.66458811893E+01  0.10679261195E+02  0.51100000000E-03 0.  1.
         12    1    4    4    0    0 -0.67435839529E+01  0.97748671518E+00 -0.48881727682E+01  0.83860382673E+01  0.00000000000E+00 0. -1.
</event>
<event>
 8    1  0.2512298E-006  0.9118800E+02  0.7816164E-02  0.1184000E+00
        -11   -1    0    0    0    0  0.00000000000E+00  0.00000000000E+00  0.45593999997E+02  0.45594000000E+02  0.51100000000E-03 0.  1.
         11   -1    0    0    0    0 -0.00000000000E+00 -0.00000000000E+00 -0.45593999997E+02  0.45594000000E+02  0.51100000000E-03 0. -1.
         23    2    1    2    0    0 -0.71054273576E-14 -0.44408920985E-15  0.00000000000E+00  0.91188000000E+02  0.91188000000E+02 0.  0.
    9900012    2    3    3    0    0 -0.33173514589E+02 -0.39417123191E+01 -0.15484292330E+02  0.54367048421E+02  0.39999918485E+02 0.  0.
        -12    1    3    3    0    0  0.33173514589E+02  0.39417123191E+01  0.15484292330E+02  0.36820951579E+02  0.00000000000E+00 0.  1.
         11    1    4    4    0    0 -0.39632746250E+01 -0.11565114092E+02 -0.50396269553E+00  0.12235742249E+02  0.51100000000E-03 0.  1.
        -11    1    4    4    0    0 -0.23453541001E+02 -0.63097293335E+01 -0.98092001026E+01  0.26193542652E+02  0.51100000000E-03 0. -1.
         12    1    4    4    0    0 -0.57566989637E+01  0.13933131107E+02 -0.51711295321E+01  0.15937763520E+02  0.00000000000E+00 0. -1.
</event>
<event>
 8    1  0.2512298E-006  0.9118800E+02  0.7816164E-02  0.1184000E+00
        -11   -1    0    0    0    0  0.00000000000E+00  0.00000000000E+00  0.45593999997E+02  0.45594000000E+02  0.51100000000E-03 0.  1.
         11   -1    0    0    0    0 -0.00000000000E+00 -0.00000000000E+00 -0.45593999997E+02  0.45594000000E+02  0.51100000000E-03 0. -1.
         23    2    1    2    0    0 -0.88817841970E-15  0.00000000000E+00  0.35527136788E-14  0.91188000000E+02  0.91188000000E+02 0.  0.
    9900012    2    3    3    0    0  0.58565464193E+01 -0.23513948716E+02  0.27723163515E+02  0.54367099475E+02  0.40000034874E+02 0.  0.
         12    1    3    3    0    0 -0.58565464193E+01  0.23513948716E+02 -0.27723163515E+02  0.36820900525E+02  0.00000000000E+00 0. -1.
         11    1    4    4    0    0  0.39983313169E+01  0.54506350179E+01  0.13839549232E+02  0.15402246545E+02  0.51100000000E-03 0. -1.
        -11    1    4    4    0    0  0.96329992605E+01 -0.26129039462E+02  0.12690989343E+02  0.30603636855E+02  0.51100000000E-03 0.  1.
         12    1    4    4    0    0 -0.77747841581E+01 -0.28355442715E+01  0.11926249395E+01  0.83612160758E+01  0.00000000000E+00 0. -1.
</event>
<event>
 8    1  0.2512298E-006  0.9118800E+02  0.7816164E-02  0.1184000E+00
        -11   -1    0    0    0    0  0.00000000000E+00  0.00000000000E+00  0.45593999997E+02  0.45594000000E+02  0.51100000000E-03 0.  1.
         11   -1    0    0    0    0 -0.00000000000E+00 -0.00000000000E+00 -0.45593999997E+02  0.45594000000E+02  0.51100000000E-03 0. -1.
         23    2    1    2    0    0  0.35527136788E-14  0.00000000000E+00  0.00000000000E+00  0.91188000000E+02  0.91188000000E+02 0.  0.
    9900012    2    3    3    0    0  0.13911224751E+02  0.23769823736E+02  0.24438770905E+02  0.54367079074E+02  0.39999988365E+02 0.  0.
        -12    1    3    3    0    0 -0.13911224751E+02 -0.23769823736E+02 -0.24438770905E+02  0.36820920926E+02  0.00000000000E+00 0.  1.
         11    1    4    4    0    0 -0.27396907632E+01 -0.64119426012E+00  0.53140232124E+01  0.60129758456E+01  0.51100000000E-03 0. -1.
        -11    1    4    4    0    0 -0.10082428938E+02  0.48845248087E+01  0.34274411066E+01  0.11715857148E+02  0.51100000000E-03 0.  1.
         12    1    4    4    0    0  0.26733344452E+02  0.19526493188E+02  0.15697306586E+02  0.36638246081E+02  0.00000000000E+00 0. -1.
</event>
<event>
 8    1  0.2512298E-006  0.9118800E+02  0.7816164E-02  0.1184000E+00
        -11   -1    0    0    0    0  0.00000000000E+00  0.00000000000E+00  0.45593999997E+02  0.45594000000E+02  0.51100000000E-03 0.  1.
         11   -1    0    0    0    0 -0.00000000000E+00 -0.00000000000E+00 -0.45593999997E+02  0.45594000000E+02  0.51100000000E-03 0. -1.
         23    2    1    2    0    0  0.44408920985E-15  0.00000000000E+00 -0.17763568394E-14  0.91188000000E+02  0.91188000000E+02 0.  0.
    9900012    2    3    3    0    0 -0.30450615283E+01  0.35499060479E+02  0.92910872498E+01  0.54367082074E+02  0.39999995205E+02 0.  0.
        -12    1    3    3    0    0  0.30450615283E+01 -0.35499060479E+02 -0.92910872498E+01  0.36820917926E+02  0.00000000000E+00 0.  1.
         11    1    4    4    0    0  0.10083856568E+02  0.37600209210E+01  0.77022752858E+01  0.13234310161E+02  0.51100000000E-03 0. -1.
        -11    1    4    4    0    0 -0.11711288157E+02  0.18174427406E+02 -0.94410849705E+01  0.23592332812E+02  0.51100000000E-03 0.  1.
        -12    1    4    4    0    0 -0.14176299390E+01  0.13564612152E+02  0.11029896934E+02  0.17540439101E+02  0.00000000000E+00 0.  1.
</event>
<event>
 8    1  0.2512298E-006  0.9118800E+02  0.7816164E-02  0.1184000E+00
        -11   -1    0    0    0    0  0.00000000000E+00  0.00000000000E+00  0.45593999997E+02  0.45594000000E+02  0.51100000000E-03 0. -1.
         11   -1    0    0    0    0 -0.00000000000E+00 -0.00000000000E+00 -0.45593999997E+02  0.45594000000E+02  0.51100000000E-03 0.  1.
         23    2    1    2    0    0  0.00000000000E+00  0.00000000000E+00  0.00000000000E+00  0.91188000000E+02  0.91188000000E+02 0.  0.
    9900012    2    3    3    0    0  0.10301429420E+02  0.84273192162E+01  0.34331344459E+02  0.54367077013E+02  0.39999983666E+02 0.  0.
        -12    1    3    3    0    0 -0.10301429420E+02 -0.84273192162E+01 -0.34331344459E+02  0.36820922987E+02  0.00000000000E+00 0.  1.
         11    1    4    4    0    0  0.14130326609E+01 -0.64739691221E+01  0.22855377848E+02  0.23796580307E+02  0.51100000000E-03 0. -1.
        -11    1    4    4    0    0  0.68191413013E+01  0.35500237611E+01 -0.59149607383E+01  0.97000060612E+01  0.51100000000E-03 0.  1.
        -12    1    4    4    0    0  0.20692554583E+01  0.11351264577E+02  0.17390927349E+02  0.20870490644E+02  0.00000000000E+00 0.  1.
</event>
<event>
 8    1  0.2512298E-006  0.9118800E+02  0.7816164E-02  0.1184000E+00
        -11   -1    0    0    0    0  0.00000000000E+00  0.00000000000E+00  0.45593999997E+02  0.45594000000E+02  0.51100000000E-03 0. -1.
         11   -1    0    0    0    0 -0.00000000000E+00 -0.00000000000E+00 -0.45593999997E+02  0.45594000000E+02  0.51100000000E-03 0.  1.
         23    2    1    2    0    0  0.00000000000E+00 -0.88817841970E-15  0.35527136788E-14  0.91188000000E+02  0.91188000000E+02 0.  0.
    9900012    2    3    3    0    0  0.23892087911E+02 -0.38456657399E+01  0.27751728710E+02  0.54367089418E+02  0.40000011945E+02 0.  0.
        -12    1    3    3    0    0 -0.23892087911E+02  0.38456657399E+01 -0.27751728710E+02  0.36820910582E+02  0.00000000000E+00 0.  1.
         11    1    4    4    0    0  0.18416694544E+02 -0.10905603223E+02  0.17512788310E+02  0.27655100329E+02  0.51100000000E-03 0. -1.
        -11    1    4    4    0    0  0.14038317179E+02  0.17232454571E+01  0.84178615419E+01  0.16459171222E+02  0.51100000000E-03 0.  1.
        -12    1    4    4    0    0 -0.85629238119E+01  0.53366920257E+01  0.18210788581E+01  0.10252817866E+02  0.00000000000E+00 0.  1.
</event>
<event>
 8    1  0.2512298E-006  0.9118800E+02  0.7816164E-02  0.1184000E+00
        -11   -1    0    0    0    0  0.00000000000E+00  0.00000000000E+00  0.45593999997E+02  0.45594000000E+02  0.51100000000E-03 0.  1.
         11   -1    0    0    0    0 -0.00000000000E+00 -0.00000000000E+00 -0.45593999997E+02  0.45594000000E+02  0.51100000000E-03 0. -1.
         23    2    1    2    0    0  0.00000000000E+00  0.00000000000E+00  0.00000000000E+00  0.91188000000E+02  0.91188000000E+02 0.  0.
    9900012    2    3    3    0    0 -0.15003506251E+02  0.13627178398E+02  0.30740428081E+02  0.54367094125E+02  0.40000022676E+02 0.  0.
         12    1    3    3    0    0  0.15003506251E+02 -0.13627178398E+02 -0.30740428081E+02  0.36820905875E+02  0.00000000000E+00 0. -1.
         11    1    4    4    0    0  0.73095120861E+00  0.13178151917E+02 -0.93902597290E+00  0.13231770391E+02  0.51100000000E-03 0. -1.
        -11    1    4    4    0    0 -0.17928204866E+01  0.90779928226E+01  0.15799999259E+02  0.18310219437E+02  0.51100000000E-03 0.  1.
         12    1    4    4    0    0 -0.13941636973E+02 -0.86289663419E+01  0.15879454795E+02  0.22825104297E+02  0.00000000000E+00 0. -1.
</event>
<event>
 8    1  0.2512298E-006  0.9118800E+02  0.7816164E-02  0.1184000E+00
        -11   -1    0    0    0    0  0.00000000000E+00  0.00000000000E+00  0.45593999997E+02  0.45594000000E+02  0.51100000000E-03 0.  1.
         11   -1    0    0    0    0 -0.00000000000E+00 -0.00000000000E+00 -0.45593999997E+02  0.45594000000E+02  0.51100000000E-03 0. -1.
         23    2    1    2    0    0  0.00000000000E+00 -0.17763568394E-14 -0.35527136788E-14  0.91188000000E+02  0.91188000000E+02 0.  0.
    9900012    2    3    3    0    0  0.23890827125E+02 -0.11299034685E+02 -0.25638917419E+02  0.54366893391E+02  0.39999565061E+02 0.  0.
        -12    1    3    3    0    0 -0.23890827125E+02  0.11299034685E+02  0.25638917419E+02  0.36821106609E+02  0.00000000000E+00 0.  1.
         11    1    4    4    0    0  0.12437003486E+02 -0.14355368296E+02 -0.28595204596E+02  0.34328433998E+02  0.51100000000E-03 0. -1.
        -11    1    4    4    0    0  0.14844515275E+02  0.52800465357E+01  0.21099260506E+01  0.15896235824E+02  0.51100000000E-03 0.  1.
        -12    1    4    4    0    0 -0.33906916359E+01 -0.22237129242E+01  0.84636112611E+00  0.41422235689E+01  0.00000000000E+00 0.  1.
</event>
<event>
 8    1  0.2512298E-006  0.9118800E+02  0.7816164E-02  0.1184000E+00
        -11   -1    0    0    0    0  0.00000000000E+00  0.00000000000E+00  0.45593999997E+02  0.45594000000E+02  0.51100000000E-03 0.  1.
         11   -1    0    0    0    0 -0.00000000000E+00 -0.00000000000E+00 -0.45593999997E+02  0.45594000000E+02  0.51100000000E-03 0. -1.
         23    2    1    2    0    0  0.00000000000E+00  0.00000000000E+00  0.00000000000E+00  0.91188000000E+02  0.91188000000E+02 0.  0.
    9900012    2    3    3    0    0  0.30702472091E+02  0.20299422127E+02  0.10351656196E+01  0.54367083403E+02  0.39999998235E+02 0.  0.
        -12    1    3    3    0    0 -0.30702472091E+02 -0.20299422127E+02 -0.10351656196E+01  0.36820916597E+02  0.00000000000E+00 0.  1.
         11    1    4    4    0    0  0.89658022200E+01  0.17586529803E+02 -0.67776622062E+01  0.20871232479E+02  0.51100000000E-03 0. -1.
        -11    1    4    4    0    0  0.22213011434E+02  0.61569445225E+01  0.13586120164E+02  0.26756466586E+02  0.51100000000E-03 0.  1.
         12    1    4    4    0    0 -0.47634156332E+00 -0.34440521981E+01 -0.57732923385E+01  0.67393843379E+01  0.00000000000E+00 0. -1.
</event>
<event>
 8    1  0.2512298E-006  0.9118800E+02  0.7816164E-02  0.1184000E+00
        -11   -1    0    0    0    0  0.00000000000E+00  0.00000000000E+00  0.45593999997E+02  0.45594000000E+02  0.51100000000E-03 0. -1.
         11   -1    0    0    0    0 -0.00000000000E+00 -0.00000000000E+00 -0.45593999997E+02  0.45594000000E+02  0.51100000000E-03 0.  1.
         23    2    1    2    0    0  0.35527136788E-14  0.00000000000E+00  0.00000000000E+00  0.91188000000E+02  0.91188000000E+02 0.  0.
    9900012    2    3    3    0    0  0.16208203192E+02 -0.17756974286E+02  0.27888408991E+02  0.54367090960E+02  0.40000015462E+02 0.  0.
        -12    1    3    3    0    0 -0.16208203192E+02  0.17756974286E+02 -0.27888408991E+02  0.36820909040E+02  0.00000000000E+00 0.  1.
         11    1    4    4    0    0  0.24352881253E+02  0.24631545831E+01  0.16128571487E+02  0.29313150194E+02  0.51100000000E-03 0. -1.
        -11    1    4    4    0    0 -0.29646829288E+01 -0.56537556196E+01  0.16905737702E+01  0.66039637649E+01  0.51100000000E-03 0.  1.
         12    1    4    4    0    0 -0.51799951329E+01 -0.14566373249E+02  0.10069263733E+02  0.18449977001E+02  0.00000000000E+00 0. -1.
</event>
<event>
 8    1  0.2512298E-006  0.9118800E+02  0.7816164E-02  0.1184000E+00
        -11   -1    0    0    0    0  0.00000000000E+00  0.00000000000E+00  0.45593999997E+02  0.45594000000E+02  0.51100000000E-03 0.  1.
         11   -1    0    0    0    0 -0.00000000000E+00 -0.00000000000E+00 -0.45593999997E+02  0.45594000000E+02  0.51100000000E-03 0. -1.
         23    2    1    2    0    0  0.35527136788E-14  0.00000000000E+00 -0.35527136788E-14  0.91188000000E+02  0.91188000000E+02 0.  0.
    9900012    2    3    3    0    0 -0.16086704650E+02 -0.24722340411E+02 -0.22040965110E+02  0.54367077621E+02  0.39999985052E+02 0.  0.
        -12    1    3    3    0    0  0.16086704650E+02  0.24722340411E+02  0.22040965110E+02  0.36820922379E+02  0.00000000000E+00 0.  1.
         11    1    4    4    0    0 -0.84599272495E+01 -0.28602553583E+02 -0.10419298457E+02  0.31594908152E+02  0.51100000000E-03 0. -1.
        -11    1    4    4    0    0 -0.23018618916E+01 -0.14999623577E+01 -0.14436802039E+02  0.14695907887E+02  0.51100000000E-03 0.  1.
        -12    1    4    4    0    0 -0.53249155085E+01  0.53801755297E+01  0.28151353859E+01  0.80762615822E+01  0.00000000000E+00 0.  1.
</event>
<event>
 8    1  0.2512298E-006  0.9118800E+02  0.7816164E-02  0.1184000E+00
        -11   -1    0    0    0    0  0.00000000000E+00  0.00000000000E+00  0.45593999997E+02  0.45594000000E+02  0.51100000000E-03 0.  1.
         11   -1    0    0    0    0 -0.00000000000E+00 -0.00000000000E+00 -0.45593999997E+02  0.45594000000E+02  0.51100000000E-03 0. -1.
         23    2    1    2    0    0  0.11102230246E-14 -0.35527136788E-14  0.35527136788E-14  0.91188000000E+02  0.91188000000E+02 0.  0.
    9900012    2    3    3    0    0 -0.11299140382E+01  0.22345139785E+02 -0.29243748743E+02  0.54367098079E+02  0.40000031690E+02 0.  0.
        -12    1    3    3    0    0  0.11299140382E+01 -0.22345139785E+02  0.29243748743E+02  0.36820901921E+02  0.00000000000E+00 0.  1.
         11    1    4    4    0    0 -0.18927477242E+02  0.76221392763E+01 -0.94361231278E+01  0.22480810080E+02  0.51100000000E-03 0. -1.
        -11    1    4    4    0    0  0.14881726994E+02  0.69380428526E+01 -0.10934152996E+02  0.19727086428E+02  0.51100000000E-03 0.  1.
         12    1    4    4    0    0  0.29158362102E+01  0.77849576559E+01 -0.88734726195E+01  0.12159201571E+02  0.00000000000E+00 0. -1.
</event>
<event>
 8    1  0.2512298E-006  0.9118800E+02  0.7816164E-02  0.1184000E+00
        -11   -1    0    0    0    0  0.00000000000E+00  0.00000000000E+00  0.45593999997E+02  0.45594000000E+02  0.51100000000E-03 0.  1.
         11   -1    0    0    0    0 -0.00000000000E+00 -0.00000000000E+00 -0.45593999997E+02  0.45594000000E+02  0.51100000000E-03 0. -1.
         23    2    1    2    0    0  0.71054273576E-14  0.88817841970E-15  0.35527136788E-14  0.91188000000E+02  0.91188000000E+02 0.  0.
    9900012    2    3    3    0    0  0.33034045269E+02  0.19476707020E+01  0.16147647957E+02  0.54366972006E+02  0.39999744280E+02 0.  0.
         12    1    3    3    0    0 -0.33034045269E+02 -0.19476707020E+01 -0.16147647957E+02  0.36821027994E+02  0.00000000000E+00 0. -1.
         11    1    4    4    0    0  0.70157275557E+01  0.14941332744E+01 -0.25737525560E+00  0.71776813569E+01  0.51100000000E-03 0. -1.
        -11    1    4    4    0    0  0.23663049523E+02 -0.11101853058E+02  0.21974071660E+02  0.34147487164E+02  0.51100000000E-03 0.  1.
        -12    1    4    4    0    0  0.23552681902E+01  0.11555390486E+02 -0.55690484468E+01  0.13041803484E+02  0.00000000000E+00 0.  1.
</event>
<event>
 8    1  0.2512298E-006  0.9118800E+02  0.7816164E-02  0.1184000E+00
        -11   -1    0    0    0    0  0.00000000000E+00  0.00000000000E+00  0.45593999997E+02  0.45594000000E+02  0.51100000000E-03 0. -1.
         11   -1    0    0    0    0 -0.00000000000E+00 -0.00000000000E+00 -0.45593999997E+02  0.45594000000E+02  0.51100000000E-03 0.  1.
         23    2    1    2    0    0  0.00000000000E+00  0.35527136788E-14  0.00000000000E+00  0.91188000000E+02  0.91188000000E+02 0.  0.
    9900012    2    3    3    0    0  0.32695907485E+02 -0.16897169057E+02 -0.11157964679E+01  0.54367059081E+02  0.39999942788E+02 0.  0.
         12    1    3    3    0    0 -0.32695907485E+02  0.16897169057E+02  0.11157964679E+01  0.36820940919E+02  0.00000000000E+00 0. -1.
         11    1    4    4    0    0  0.85246295718E+01  0.23316864876E+01 -0.12002981427E+02  0.14905624261E+02  0.51100000000E-03 0. -1.
        -11    1    4    4    0    0  0.15713624038E+01 -0.12327370936E+02 -0.19345610246E+01  0.12576795324E+02  0.51100000000E-03 0.  1.
        -12    1    4    4    0    0  0.22599915509E+02 -0.69014846081E+01  0.12821745983E+02  0.26884639497E+02  0.00000000000E+00 0.  1.
</event>
<event>
 8    1  0.2512298E-006  0.9118800E+02  0.7816164E-02  0.1184000E+00
        -11   -1    0    0    0    0  0.00000000000E+00  0.00000000000E+00  0.45593999997E+02  0.45594000000E+02  0.51100000000E-03 0.  1.
         11   -1    0    0    0    0 -0.00000000000E+00 -0.00000000000E+00 -0.45593999997E+02  0.45594000000E+02  0.51100000000E-03 0. -1.
         23    2    1    2    0    0 -0.71054273576E-14  0.88817841970E-15  0.00000000000E+00  0.91188000000E+02  0.91188000000E+02 0.  0.
    9900012    2    3    3    0    0  0.34265817607E+02 -0.19919428247E+01 -0.13329125538E+02  0.54367086376E+02  0.40000005012E+02 0.  0.
        -12    1    3    3    0    0 -0.34265817607E+02  0.19919428247E+01  0.13329125538E+02  0.36820913624E+02  0.00000000000E+00 0.  1.
         11    1    4    4    0    0  0.35292735427E+02 -0.12556959492E+01 -0.20339454260E+02  0.40753494894E+02  0.51100000000E-03 0. -1.
        -11    1    4    4    0    0  0.27560615816E+00  0.53882564056E+01  0.35663586923E+01  0.64674709455E+01  0.51100000000E-03 0.  1.
         12    1    4    4    0    0 -0.13025239788E+01 -0.61245032811E+01  0.34439700296E+01  0.71461205364E+01  0.00000000000E+00 0. -1.
</event>
<event>
 8    1  0.2512298E-006  0.9118800E+02  0.7816164E-02  0.1184000E+00
        -11   -1    0    0    0    0  0.00000000000E+00  0.00000000000E+00  0.45593999997E+02  0.45594000000E+02  0.51100000000E-03 0.  1.
         11   -1    0    0    0    0 -0.00000000000E+00 -0.00000000000E+00 -0.45593999997E+02  0.45594000000E+02  0.51100000000E-03 0. -1.
         23    2    1    2    0    0  0.00000000000E+00  0.35527136788E-14  0.00000000000E+00  0.91188000000E+02  0.91188000000E+02 0.  0.
    9900012    2    3    3    0    0  0.19857341124E+02 -0.27357784420E+02 -0.14595138386E+02  0.54367076201E+02  0.39999981816E+02 0.  0.
        -12    1    3    3    0    0 -0.19857341124E+02  0.27357784420E+02  0.14595138386E+02  0.36820923799E+02  0.00000000000E+00 0.  1.
         11    1    4    4    0    0  0.28475696462E+02 -0.15669988595E+02 -0.11129456594E+02  0.34355183538E+02  0.51100000000E-03 0. -1.
        -11    1    4    4    0    0 -0.45463980645E+01  0.13118894737E+01  0.22491413311E+01  0.52392200126E+01  0.51100000000E-03 0.  1.
         12    1    4    4    0    0 -0.40719572742E+01 -0.12999685299E+02 -0.57148231229E+01  0.14772672651E+02  0.00000000000E+00 0. -1.
</event>
<event>
 8    1  0.2512298E-006  0.9118800E+02  0.7816164E-02  0.1184000E+00
        -11   -1    0    0    0    0  0.00000000000E+00  0.00000000000E+00  0.45593999997E+02  0.45594000000E+02  0.51100000000E-03 0.  1.
         11   -1    0    0    0    0 -0.00000000000E+00 -0.00000000000E+00 -0.45593999997E+02  0.45594000000E+02  0.51100000000E-03 0. -1.
         23    2    1    2    0    0  0.00000000000E+00  0.35527136788E-14  0.00000000000E+00  0.91188000000E+02  0.91188000000E+02 0.  0.
    9900012    2    3    3    0    0  0.10719556486E+02  0.23995954859E+02 -0.25788860014E+02  0.54367081466E+02  0.39999993819E+02 0.  0.
        -12    1    3    3    0    0 -0.10719556486E+02 -0.23995954859E+02  0.25788860014E+02  0.36820918534E+02  0.00000000000E+00 0.  1.
         11    1    4    4    0    0  0.24086566807E+01 -0.82930109599E+01 -0.49014339956E+01  0.99297388314E+01  0.51100000000E-03 0. -1.
        -11    1    4    4    0    0  0.66489514898E+01  0.33649988053E+02 -0.13699283574E+02  0.36935086606E+02  0.51100000000E-03 0.  1.
        -12    1    4    4    0    0  0.16619483153E+01 -0.13610222341E+01 -0.71881424444E+01  0.75022560290E+01  0.00000000000E+00 0.  1.
</event>
<event>
 8    1  0.2512298E-006  0.9118800E+02  0.7816164E-02  0.1184000E+00
        -11   -1    0    0    0    0  0.00000000000E+00  0.00000000000E+00  0.45593999997E+02  0.45594000000E+02  0.51100000000E-03 0.  1.
         11   -1    0    0    0    0 -0.00000000000E+00 -0.00000000000E+00 -0.45593999997E+02  0.45594000000E+02  0.51100000000E-03 0. -1.
         23    2    1    2    0    0  0.35527136788E-14 -0.88817841970E-15 -0.35527136788E-14  0.91188000000E+02  0.91188000000E+02 0.  0.
    9900012    2    3    3    0    0 -0.24450140761E+02  0.79717601550E+01  0.26351852684E+02  0.54367102631E+02  0.40000042068E+02 0.  0.
         12    1    3    3    0    0  0.24450140761E+02 -0.79717601550E+01 -0.26351852684E+02  0.36820897369E+02  0.00000000000E+00 0. -1.
         11    1    4    4    0    0 -0.44660830128E+01 -0.81958231894E+01  0.14343666494E+01  0.94432421962E+01  0.51100000000E-03 0. -1.
        -11    1    4    4    0    0 -0.13492109152E+02 -0.28077335644E+01  0.11550717785E+01  0.13829481849E+02  0.51100000000E-03 0.  1.
        -12    1    4    4    0    0 -0.64919485962E+01  0.18975316909E+02  0.23762414256E+02  0.31094378586E+02  0.00000000000E+00 0.  1.
</event>
<event>
 8    1  0.2512298E-006  0.9118800E+02  0.7816164E-02  0.1184000E+00
        -11   -1    0    0    0    0  0.00000000000E+00  0.00000000000E+00  0.45593999997E+02  0.45594000000E+02  0.51100000000E-03 0. -1.
         11   -1    0    0    0    0 -0.00000000000E+00 -0.00000000000E+00 -0.45593999997E+02  0.45594000000E+02  0.51100000000E-03 0.  1.
         23    2    1    2    0    0 -0.88817841970E-15  0.00000000000E+00  0.00000000000E+00  0.91188000000E+02  0.91188000000E+02 0.  0.
    9900012    2    3    3    0    0 -0.16186435775E+01 -0.36248826313E+02 -0.62598260422E+01  0.54367043492E+02  0.39999907248E+02 0.  0.
        -12    1    3    3    0    0  0.16186435775E+01  0.36248826313E+02  0.62598260422E+01  0.36820956508E+02  0.00000000000E+00 0.  1.
         11    1    4    4    0    0  0.36221370076E+01 -0.15550682003E+02 -0.12252023148E+02  0.20125994603E+02  0.51100000000E-03 0. -1.
        -11    1    4    4    0    0  0.90460553761E+01 -0.15996810288E+02  0.55379859608E+01  0.19193705896E+02  0.51100000000E-03 0.  1.
        -12    1    4    4    0    0 -0.14286835961E+02 -0.47013340213E+01  0.45421114541E+00  0.15047342992E+02  0.00000000000E+00 0.  1.
</event>
<event>
 8    1  0.2512298E-006  0.9118800E+02  0.7816164E-02  0.1184000E+00
        -11   -1    0    0    0    0  0.00000000000E+00  0.00000000000E+00  0.45593999997E+02  0.45594000000E+02  0.51100000000E-03 0.  1.
         11   -1    0    0    0    0 -0.00000000000E+00 -0.00000000000E+00 -0.45593999997E+02  0.45594000000E+02  0.51100000000E-03 0. -1.
         23    2    1    2    0    0  0.35527136788E-14  0.53290705182E-14  0.00000000000E+00  0.91188000000E+02  0.91188000000E+02 0.  0.
    9900012    2    3    3    0    0  0.18089590309E+02  0.11025108104E+02 -0.30116324561E+02  0.54367091655E+02  0.40000017046E+02 0.  0.
        -12    1    3    3    0    0 -0.18089590309E+02 -0.11025108104E+02  0.30116324561E+02  0.36820908345E+02  0.00000000000E+00 0.  1.
         11    1    4    4    0    0  0.75095426437E+01 -0.96265727512E+01 -0.62566220919E+01  0.13718945073E+02  0.51100000000E-03 0. -1.
        -11    1    4    4    0    0 -0.58060367009E+01  0.69160716159E+01 -0.59386756783E+00  0.90495738970E+01  0.51100000000E-03 0.  1.
         12    1    4    4    0    0  0.16386084367E+02  0.13735609240E+02 -0.23265834902E+02  0.31598572685E+02  0.00000000000E+00 0. -1.
</event>
<event>
 8    1  0.2512298E-006  0.9118800E+02  0.7816164E-02  0.1184000E+00
        -11   -1    0    0    0    0  0.00000000000E+00  0.00000000000E+00  0.45593999997E+02  0.45594000000E+02  0.51100000000E-03 0. -1.
         11   -1    0    0    0    0 -0.00000000000E+00 -0.00000000000E+00 -0.45593999997E+02  0.45594000000E+02  0.51100000000E-03 0.  1.
         23    2    1    2    0    0  0.00000000000E+00  0.35527136788E-14  0.00000000000E+00  0.91188000000E+02  0.91188000000E+02 0.  0.
    9900012    2    3    3    0    0 -0.61262292183E+01 -0.21897586943E+02  0.28961082438E+02  0.54367091615E+02  0.40000016954E+02 0.  0.
        -12    1    3    3    0    0  0.61262292183E+01  0.21897586943E+02 -0.28961082438E+02  0.36820908385E+02  0.00000000000E+00 0.  1.
         11    1    4    4    0    0  0.28424575523E+01 -0.19496952655E+02  0.87481790442E+01  0.21557860854E+02  0.51100000000E-03 0. -1.
        -11    1    4    4    0    0  0.53696695053E+01  0.28928131122E+01 -0.14765026803E+01  0.62754903174E+01  0.51100000000E-03 0.  1.
         12    1    4    4    0    0 -0.14338356276E+02 -0.52934474000E+01  0.21689406074E+02  0.26533740443E+02  0.00000000000E+00 0. -1.
</event>
<event>
 8    1  0.2512298E-006  0.9118800E+02  0.7816164E-02  0.1184000E+00
        -11   -1    0    0    0    0  0.00000000000E+00  0.00000000000E+00  0.45593999997E+02  0.45594000000E+02  0.51100000000E-03 0. -1.
         11   -1    0    0    0    0 -0.00000000000E+00 -0.00000000000E+00 -0.45593999997E+02  0.45594000000E+02  0.51100000000E-03 0.  1.
         23    2    1    2    0    0  0.00000000000E+00  0.00000000000E+00  0.00000000000E+00  0.91188000000E+02  0.91188000000E+02 0.  0.
    9900012    2    3    3    0    0 -0.16973760856E+02  0.29663498814E+02 -0.13702119704E+02  0.54367084695E+02  0.40000001179E+02 0.  0.
         12    1    3    3    0    0  0.16973760856E+02 -0.29663498814E+02  0.13702119704E+02  0.36820915305E+02  0.00000000000E+00 0. -1.
         11    1    4    4    0    0  0.10383647152E+01  0.21121899699E+02 -0.15783425017E+02  0.26388053238E+02  0.51100000000E-03 0. -1.
        -11    1    4    4    0    0  0.39683738476E+01  0.13640881443E+01 -0.17399681480E+01  0.45427103008E+01  0.51100000000E-03 0.  1.
         12    1    4    4    0    0 -0.21980499419E+02  0.71775109709E+01  0.38212734609E+01  0.23436321156E+02  0.00000000000E+00 0. -1.
</event>
<event>
 8    1  0.2512298E-006  0.9118800E+02  0.7816164E-02  0.1184000E+00
        -11   -1    0    0    0    0  0.00000000000E+00  0.00000000000E+00  0.45593999997E+02  0.45594000000E+02  0.51100000000E-03 0.  1.
         11   -1    0    0    0    0 -0.00000000000E+00 -0.00000000000E+00 -0.45593999997E+02  0.45594000000E+02  0.51100000000E-03 0. -1.
         23    2    1    2    0    0 -0.17763568394E-14 -0.71054273576E-14  0.17763568394E-14  0.91188000000E+02  0.91188000000E+02 0.  0.
    9900012    2    3    3    0    0  0.86531718433E+01 -0.34531367292E+02 -0.94067489230E+01  0.54367086985E+02  0.40000006399E+02 0.  0.
        -12    1    3    3    0    0 -0.86531718433E+01  0.34531367292E+02  0.94067489230E+01  0.36820913015E+02  0.00000000000E+00 0.  1.
         11    1    4    4    0    0  0.74632426779E+01 -0.18690101449E+02 -0.19282688137E+02  0.27871884498E+02  0.51100000000E-03 0. -1.
        -11    1    4    4    0    0  0.83594637695E+01 -0.13792755217E+02  0.31074349477E+01  0.16424886094E+02  0.51100000000E-03 0.  1.
        -12    1    4    4    0    0 -0.71695346041E+01 -0.20485106260E+01  0.67685042667E+01  0.10070316392E+02  0.00000000000E+00 0.  1.
</event>
<event>
 8    1  0.2512298E-006  0.9118800E+02  0.7816164E-02  0.1184000E+00
        -11   -1    0    0    0    0  0.00000000000E+00  0.00000000000E+00  0.45593999997E+02  0.45594000000E+02  0.51100000000E-03 0. -1.
         11   -1    0    0    0    0 -0.00000000000E+00 -0.00000000000E+00 -0.45593999997E+02  0.45594000000E+02  0.51100000000E-03 0.  1.
         23    2    1    2    0    0  0.00000000000E+00  0.00000000000E+00  0.00000000000E+00  0.91188000000E+02  0.91188000000E+02 0.  0.
    9900012    2    3    3    0    0 -0.21553290821E+02  0.19420173458E+02 -0.22673743407E+02  0.54366998894E+02  0.39999805578E+02 0.  0.
         12    1    3    3    0    0  0.21553290821E+02 -0.19420173458E+02  0.22673743407E+02  0.36821001106E+02  0.00000000000E+00 0. -1.
         11    1    4    4    0    0 -0.41797203041E+01  0.16472594397E+02 -0.19005070124E+02  0.25495276399E+02  0.51100000000E-03 0. -1.
        -11    1    4    4    0    0 -0.10903172628E+02  0.12378798066E+02 -0.52824765215E+01  0.17321038461E+02  0.51100000000E-03 0.  1.
         12    1    4    4    0    0 -0.64703978893E+01 -0.94312190047E+01  0.16138032381E+01  0.11550684034E+02  0.00000000000E+00 0. -1.
</event>
<event>
 8    1  0.2512298E-006  0.9118800E+02  0.7816164E-02  0.1184000E+00
        -11   -1    0    0    0    0  0.00000000000E+00  0.00000000000E+00  0.45593999997E+02  0.45594000000E+02  0.51100000000E-03 0.  1.
         11   -1    0    0    0    0 -0.00000000000E+00 -0.00000000000E+00 -0.45593999997E+02  0.45594000000E+02  0.51100000000E-03 0. -1.
         23    2    1    2    0    0  0.00000000000E+00  0.00000000000E+00  0.00000000000E+00  0.91188000000E+02  0.91188000000E+02 0.  0.
    9900012    2    3    3    0    0  0.28996409334E+02  0.17229953088E+02  0.14768684938E+02  0.54367121514E+02  0.40000085116E+02 0.  0.
         12    1    3    3    0    0 -0.28996409334E+02 -0.17229953088E+02 -0.14768684938E+02  0.36820878486E+02  0.00000000000E+00 0. -1.
         11    1    4    4    0    0  0.10094132693E+01  0.70946277103E+01 -0.10953352332E+02  0.13089254565E+02  0.51100000000E-03 0. -1.
        -11    1    4    4    0    0  0.16611835061E+02  0.73579772742E+01  0.75822633826E+01  0.19687143316E+02  0.51100000000E-03 0.  1.
         12    1    4    4    0    0  0.11375161003E+02  0.27773481032E+01  0.18139773888E+02  0.21590723634E+02  0.00000000000E+00 0. -1.
</event>
<event>
 8    1  0.2512298E-006  0.9118800E+02  0.7816164E-02  0.1184000E+00
        -11   -1    0    0    0    0  0.00000000000E+00  0.00000000000E+00  0.45593999997E+02  0.45594000000E+02  0.51100000000E-03 0. -1.
         11   -1    0    0    0    0 -0.00000000000E+00 -0.00000000000E+00 -0.45593999997E+02  0.45594000000E+02  0.51100000000E-03 0.  1.
         23    2    1    2    0    0  0.00000000000E+00  0.88817841970E-15  0.00000000000E+00  0.91188000000E+02  0.91188000000E+02 0.  0.
    9900012    2    3    3    0    0  0.12931120102E+02 -0.54126125146E+01  0.34048051004E+02  0.54367081781E+02  0.39999994537E+02 0.  0.
        -12    1    3    3    0    0 -0.12931120102E+02  0.54126125146E+01 -0.34048051004E+02  0.36820918219E+02  0.00000000000E+00 0.  1.
         11    1    4    4    0    0  0.12846530195E+02  0.10566100944E+02  0.24024739579E+02  0.29220950349E+02  0.51100000000E-03 0. -1.
        -11    1    4    4    0    0  0.67804566747E+01 -0.79613063942E+01 -0.29760577384E+00  0.10461623281E+02  0.51100000000E-03 0.  1.
        -12    1    4    4    0    0 -0.66958667681E+01 -0.80174070643E+01  0.10320917199E+02  0.14684508151E+02  0.00000000000E+00 0.  1.
</event>
<event>
 8    1  0.2512298E-006  0.9118800E+02  0.7816164E-02  0.1184000E+00
        -11   -1    0    0    0    0  0.00000000000E+00  0.00000000000E+00  0.45593999997E+02  0.45594000000E+02  0.51100000000E-03 0. -1.
         11   -1    0    0    0    0 -0.00000000000E+00 -0.00000000000E+00 -0.45593999997E+02  0.45594000000E+02  0.51100000000E-03 0.  1.
         23    2    1    2    0    0 -0.35527136788E-14  0.00000000000E+00  0.27755575616E-16  0.91188000000E+02  0.91188000000E+02 0.  0.
    9900012    2    3    3    0    0 -0.31150068970E+02 -0.19631639602E+02  0.22815638880E+00  0.54367080326E+02  0.39999991219E+02 0.  0.
        -12    1    3    3    0    0  0.31150068970E+02  0.19631639602E+02 -0.22815638880E+00  0.36820919674E+02  0.00000000000E+00 0.  1.
         11    1    4    4    0    0 -0.18585564492E+02 -0.52365645950E+01  0.61407171005E+01  0.20262112995E+02  0.51100000000E-03 0. -1.
        -11    1    4    4    0    0  0.43523357687E+01 -0.15744306026E+02 -0.51100249211E+01  0.17115441971E+02  0.51100000000E-03 0.  1.
        -12    1    4    4    0    0 -0.16916840247E+02  0.13492310199E+01 -0.80253579054E+00  0.16989525361E+02  0.00000000000E+00 0.  1.
</event>
<event>
 8    1  0.2512298E-006  0.9118800E+02  0.7816164E-02  0.1184000E+00
        -11   -1    0    0    0    0  0.00000000000E+00  0.00000000000E+00  0.45593999997E+02  0.45594000000E+02  0.51100000000E-03 0.  1.
         11   -1    0    0    0    0 -0.00000000000E+00 -0.00000000000E+00 -0.45593999997E+02  0.45594000000E+02  0.51100000000E-03 0. -1.
         23    2    1    2    0    0 -0.35527136788E-14 -0.88817841970E-15 -0.35527136788E-14  0.91188000000E+02  0.91188000000E+02 0.  0.
    9900012    2    3    3    0    0  0.17226592133E+02  0.75437535417E+01  0.31656220699E+02  0.54367081992E+02  0.39999995018E+02 0.  0.
         12    1    3    3    0    0 -0.17226592133E+02 -0.75437535417E+01 -0.31656220699E+02  0.36820918008E+02  0.00000000000E+00 0. -1.
         11    1    4    4    0    0  0.68474548796E+01  0.99645930695E+00 -0.49639035441E+01  0.85159208624E+01  0.51100000000E-03 0. -1.
        -11    1    4    4    0    0  0.17701054561E+02  0.63918799798E+01  0.18875324769E+02  0.26654480817E+02  0.51100000000E-03 0.  1.
        -12    1    4    4    0    0 -0.73219173077E+01  0.15541425495E+00  0.17744799474E+02  0.19196680313E+02  0.00000000000E+00 0.  1.
</event>
<event>
 8    1  0.2512298E-006  0.9118800E+02  0.7816164E-02  0.1184000E+00
        -11   -1    0    0    0    0  0.00000000000E+00  0.00000000000E+00  0.45593999997E+02  0.45594000000E+02  0.51100000000E-03 0.  1.
         11   -1    0    0    0    0 -0.00000000000E+00 -0.00000000000E+00 -0.45593999997E+02  0.45594000000E+02  0.51100000000E-03 0. -1.
         23    2    1    2    0    0  0.26645352591E-14 -0.17763568394E-14 -0.71054273576E-14  0.91188000000E+02  0.91188000000E+02 0.  0.
    9900012    2    3    3    0    0 -0.49518403703E+00 -0.14509792652E+02  0.33838133006E+02  0.54366830336E+02  0.39999421314E+02 0.  0.
         12    1    3    3    0    0  0.49518403703E+00  0.14509792652E+02 -0.33838133006E+02  0.36821169664E+02  0.00000000000E+00 0. -1.
         11    1    4    4    0    0 -0.85869040856E+00 -0.16141652093E+01 -0.32497519512E+01  0.37287754754E+01  0.51100000000E-03 0. -1.
        -11    1    4    4    0    0  0.13918854155E+02 -0.86623919355E+01  0.31239417797E+02  0.35279920062E+02  0.51100000000E-03 0.  1.
        -12    1    4    4    0    0 -0.13555347783E+02 -0.42332355075E+01  0.58484671606E+01  0.15358134799E+02  0.00000000000E+00 0.  1.
</event>
<event>
 8    1  0.2512298E-006  0.9118800E+02  0.7816164E-02  0.1184000E+00
        -11   -1    0    0    0    0  0.00000000000E+00  0.00000000000E+00  0.45593999997E+02  0.45594000000E+02  0.51100000000E-03 0.  1.
         11   -1    0    0    0    0 -0.00000000000E+00 -0.00000000000E+00 -0.45593999997E+02  0.45594000000E+02  0.51100000000E-03 0. -1.
         23    2    1    2    0    0 -0.35527136788E-14  0.35527136788E-14  0.00000000000E+00  0.91188000000E+02  0.91188000000E+02 0.  0.
    9900012    2    3    3    0    0  0.22551681369E+02 -0.22349016042E+02  0.18647321532E+02  0.54367089488E+02  0.40000012106E+02 0.  0.
         12    1    3    3    0    0 -0.22551681369E+02  0.22349016042E+02 -0.18647321532E+02  0.36820910512E+02  0.00000000000E+00 0. -1.
         11    1    4    4    0    0  0.62385845574E+00 -0.63792482846E+01  0.20643398589E+02  0.21615594223E+02  0.51100000000E-03 0.  1.
        -11    1    4    4    0    0  0.12961796004E+02 -0.18191100934E+02  0.25040259263E+01  0.22476531203E+02  0.51100000000E-03 0. -1.
         12    1    4    4    0    0  0.89660269092E+01  0.22213331765E+01 -0.45001029830E+01  0.10274964062E+02  0.00000000000E+00 0. -1.
</event>
<event>
 8    1  0.2512298E-006  0.9118800E+02  0.7816164E-02  0.1184000E+00
        -11   -1    0    0    0    0  0.00000000000E+00  0.00000000000E+00  0.45593999997E+02  0.45594000000E+02  0.51100000000E-03 0.  1.
         11   -1    0    0    0    0 -0.00000000000E+00 -0.00000000000E+00 -0.45593999997E+02  0.45594000000E+02  0.51100000000E-03 0. -1.
         23    2    1    2    0    0  0.00000000000E+00  0.00000000000E+00  0.00000000000E+00  0.91188000000E+02  0.91188000000E+02 0.  0.
    9900012    2    3    3    0    0 -0.92552232150E+01 -0.33819336530E+02 -0.11241555116E+02  0.54367092332E+02  0.40000018589E+02 0.  0.
        -12    1    3    3    0    0  0.92552232150E+01  0.33819336530E+02  0.11241555116E+02  0.36820907668E+02  0.00000000000E+00 0.  1.
         11    1    4    4    0    0 -0.17985232515E+01 -0.12566515297E+02 -0.25442798848E+01  0.12947021008E+02  0.51100000000E-03 0.  1.
        -11    1    4    4    0    0  0.77814967516E+00 -0.25596742266E+02 -0.15459492083E+02  0.29913117980E+02  0.51100000000E-03 0. -1.
        -12    1    4    4    0    0 -0.82348496386E+01  0.43439210332E+01  0.67622168515E+01  0.11506953344E+02  0.00000000000E+00 0.  1.
</event>
<event>
 8    1  0.2512298E-006  0.9118800E+02  0.7816164E-02  0.1184000E+00
        -11   -1    0    0    0    0  0.00000000000E+00  0.00000000000E+00  0.45593999997E+02  0.45594000000E+02  0.51100000000E-03 0.  1.
         11   -1    0    0    0    0 -0.00000000000E+00 -0.00000000000E+00 -0.45593999997E+02  0.45594000000E+02  0.51100000000E-03 0. -1.
         23    2    1    2    0    0  0.00000000000E+00  0.44408920985E-15  0.71054273576E-14  0.91188000000E+02  0.91188000000E+02 0.  0.
    9900012    2    3    3    0    0 -0.43273976559E+01  0.10457987749E+01  0.36550798646E+02  0.54367069170E+02  0.39999965787E+02 0.  0.
         12    1    3    3    0    0  0.43273976559E+01 -0.10457987749E+01 -0.36550798646E+02  0.36820930830E+02  0.00000000000E+00 0. -1.
         11    1    4    4    0    0 -0.95652425647E+01  0.59969782983E+01  0.44051667452E+01  0.12118709021E+02  0.51100000000E-03 0. -1.
        -11    1    4    4    0    0 -0.96268562213E+01 -0.68713686294E+01  0.98972461344E+01  0.15422306859E+02  0.51100000000E-03 0.  1.
        -12    1    4    4    0    0  0.14864701130E+02  0.19201891060E+01  0.22248385766E+02  0.26826053290E+02  0.00000000000E+00 0.  1.
</event>
<event>
 8    1  0.2512298E-006  0.9118800E+02  0.7816164E-02  0.1184000E+00
        -11   -1    0    0    0    0  0.00000000000E+00  0.00000000000E+00  0.45593999997E+02  0.45594000000E+02  0.51100000000E-03 0. -1.
         11   -1    0    0    0    0 -0.00000000000E+00 -0.00000000000E+00 -0.45593999997E+02  0.45594000000E+02  0.51100000000E-03 0.  1.
         23    2    1    2    0    0 -0.26645352591E-14  0.35527136788E-14  0.00000000000E+00  0.91188000000E+02  0.91188000000E+02 0.  0.
    9900012    2    3    3    0    0 -0.35888119554E+01  0.18895356846E+02 -0.31398494128E+02  0.54367088617E+02  0.40000010120E+02 0.  0.
         12    1    3    3    0    0  0.35888119554E+01 -0.18895356846E+02  0.31398494128E+02  0.36820911383E+02  0.00000000000E+00 0. -1.
         11    1    4    4    0    0 -0.11188401479E+02  0.19480912295E+02 -0.12762563143E+02  0.25837362283E+02  0.51100000000E-03 0. -1.
        -11    1    4    4    0    0  0.11023919668E+02 -0.20215067505E+00 -0.15909695562E+01  0.11139966523E+02  0.51100000000E-03 0.  1.
        -12    1    4    4    0    0 -0.34243301443E+01 -0.38340477485E+00 -0.17044961429E+02  0.17389759810E+02  0.00000000000E+00 0.  1.
</event>
<event>
 8    1  0.2512298E-006  0.9118800E+02  0.7816164E-02  0.1184000E+00
        -11   -1    0    0    0    0  0.00000000000E+00  0.00000000000E+00  0.45593999997E+02  0.45594000000E+02  0.51100000000E-03 0.  1.
         11   -1    0    0    0    0 -0.00000000000E+00 -0.00000000000E+00 -0.45593999997E+02  0.45594000000E+02  0.51100000000E-03 0. -1.
         23    2    1    2    0    0 -0.35527136788E-14  0.00000000000E+00  0.00000000000E+00  0.91188000000E+02  0.91188000000E+02 0.  0.
    9900012    2    3    3    0    0 -0.30412079054E+02  0.16115271890E+02 -0.13083268368E+02  0.54367238850E+02  0.40000352604E+02 0.  0.
        -12    1    3    3    0    0  0.30412079054E+02 -0.16115271890E+02  0.13083268368E+02  0.36820761150E+02  0.00000000000E+00 0.  1.
         11    1    4    4    0    0 -0.22094245633E+02  0.16807634800E+02 -0.42303712755E+01  0.28081102525E+02  0.51100000000E-03 0. -1.
        -11    1    4    4    0    0  0.29845712412E+01 -0.38212792676E+01 -0.12978081670E+02  0.13854257282E+02  0.51100000000E-03 0.  1.
        -12    1    4    4    0    0 -0.11302404663E+02  0.31289163580E+01  0.41251845777E+01  0.12431879043E+02  0.00000000000E+00 0.  1.
</event>
<event>
 8    1  0.2512298E-006  0.9118800E+02  0.7816164E-02  0.1184000E+00
        -11   -1    0    0    0    0  0.00000000000E+00  0.00000000000E+00  0.45593999997E+02  0.45594000000E+02  0.51100000000E-03 0.  1.
         11   -1    0    0    0    0 -0.00000000000E+00 -0.00000000000E+00 -0.45593999997E+02  0.45594000000E+02  0.51100000000E-03 0. -1.
         23    2    1    2    0    0  0.88817841970E-15 -0.35527136788E-14  0.00000000000E+00  0.91188000000E+02  0.91188000000E+02 0.  0.
    9900012    2    3    3    0    0 -0.45066985815E+01  0.22506646525E+02  0.28790986897E+02  0.54367076650E+02  0.39999982838E+02 0.  0.
         12    1    3    3    0    0  0.45066985815E+01 -0.22506646525E+02 -0.28790986897E+02  0.36820923350E+02  0.00000000000E+00 0. -1.
         11    1    4    4    0    0 -0.81363567994E+01  0.11387845491E+02  0.31234070976E+02  0.34226459310E+02  0.51100000000E-03 0. -1.
        -11    1    4    4    0    0  0.21525480922E+01  0.16885299459E+01  0.65050948062E+01  0.70569721104E+01  0.51100000000E-03 0.  1.
        -12    1    4    4    0    0  0.14771101257E+01  0.94302710881E+01 -0.89481788857E+01  0.13083645229E+02  0.00000000000E+00 0.  1.
</event>
<event>
 8    1  0.2512298E-006  0.9118800E+02  0.7816164E-02  0.1184000E+00
        -11   -1    0    0    0    0  0.00000000000E+00  0.00000000000E+00  0.45593999997E+02  0.45594000000E+02  0.51100000000E-03 0.  1.
         11   -1    0    0    0    0 -0.00000000000E+00 -0.00000000000E+00 -0.45593999997E+02  0.45594000000E+02  0.51100000000E-03 0. -1.
         23    2    1    2    0    0  0.00000000000E+00  0.35527136788E-14 -0.53290705182E-14  0.91188000000E+02  0.91188000000E+02 0.  0.
    9900012    2    3    3    0    0 -0.28741018497E+02 -0.17603912322E+02  0.14826845233E+02  0.54367092721E+02  0.40000019476E+02 0.  0.
         12    1    3    3    0    0  0.28741018497E+02  0.17603912322E+02 -0.14826845233E+02  0.36820907279E+02  0.00000000000E+00 0. -1.
         11    1    4    4    0    0 -0.26560626095E+02  0.48610997801E+00 -0.23980013442E+01  0.26673087039E+02  0.51100000000E-03 0. -1.
        -11    1    4    4    0    0 -0.29012773255E+00 -0.18161116573E+01  0.93266293579E+01  0.95062322238E+01  0.51100000000E-03 0.  1.
         12    1    4    4    0    0 -0.18902646690E+01 -0.16273910643E+02  0.78982172192E+01  0.18187773459E+02  0.00000000000E+00 0. -1.
</event>
<event>
 8    1  0.2512298E-006  0.9118800E+02  0.7816164E-02  0.1184000E+00
        -11   -1    0    0    0    0  0.00000000000E+00  0.00000000000E+00  0.45593999997E+02  0.45594000000E+02  0.51100000000E-03 0.  1.
         11   -1    0    0    0    0 -0.00000000000E+00 -0.00000000000E+00 -0.45593999997E+02  0.45594000000E+02  0.51100000000E-03 0. -1.
         23    2    1    2    0    0  0.00000000000E+00 -0.35527136788E-14  0.15820678101E-14  0.91188000000E+02  0.91188000000E+02 0.  0.
    9900012    2    3    3    0    0 -0.29668388792E+02  0.21806648443E+02 -0.18783727497E+00  0.54367102501E+02  0.40000041771E+02 0.  0.
        -12    1    3    3    0    0  0.29668388792E+02 -0.21806648443E+02  0.18783727497E+00  0.36820897499E+02  0.00000000000E+00 0.  1.
         11    1    4    4    0    0 -0.57257569690E+01  0.87739233561E+01 -0.50197791597E+00  0.10488946850E+02  0.51100000000E-03 0. -1.
        -11    1    4    4    0    0  0.55023296554E+01 -0.47148124137E+01  0.55163120384E+01  0.91068538201E+01  0.51100000000E-03 0.  1.
        -12    1    4    4    0    0 -0.29444961478E+02  0.17747537500E+02 -0.52021713975E+01  0.34771301831E+02  0.00000000000E+00 0.  1.
</event>
<event>
 8    1  0.2512298E-006  0.9118800E+02  0.7816164E-02  0.1184000E+00
        -11   -1    0    0    0    0  0.00000000000E+00  0.00000000000E+00  0.45593999997E+02  0.45594000000E+02  0.51100000000E-03 0. -1.
         11   -1    0    0    0    0 -0.00000000000E+00 -0.00000000000E+00 -0.45593999997E+02  0.45594000000E+02  0.51100000000E-03 0.  1.
         23    2    1    2    0    0 -0.88817841970E-15  0.71054273576E-14 -0.88817841970E-15  0.91188000000E+02  0.91188000000E+02 0.  0.
    9900012    2    3    3    0    0 -0.71696398784E+01 -0.35547827973E+02 -0.63819924075E+01  0.54367059808E+02  0.39999944443E+02 0.  0.
         12    1    3    3    0    0  0.71696398784E+01  0.35547827973E+02  0.63819924075E+01  0.36820940192E+02  0.00000000000E+00 0. -1.
         11    1    4    4    0    0  0.61939091793E+01 -0.56302159846E+01  0.86152109103E+01  0.12011898361E+02  0.51100000000E-03 0. -1.
        -11    1    4    4    0    0  0.38927598580E+01 -0.50020456098E+01  0.30995815371E+01  0.70555967544E+01  0.51100000000E-03 0.  1.
        -12    1    4    4    0    0 -0.17256308916E+02 -0.24915566378E+02 -0.18096784855E+02  0.35299564692E+02  0.00000000000E+00 0.  1.
</event>
<event>
 8    1  0.2512298E-006  0.9118800E+02  0.7816164E-02  0.1184000E+00
        -11   -1    0    0    0    0  0.00000000000E+00  0.00000000000E+00  0.45593999997E+02  0.45594000000E+02  0.51100000000E-03 0. -1.
         11   -1    0    0    0    0 -0.00000000000E+00 -0.00000000000E+00 -0.45593999997E+02  0.45594000000E+02  0.51100000000E-03 0.  1.
         23    2    1    2    0    0 -0.35527136788E-14  0.00000000000E+00  0.00000000000E+00  0.91188000000E+02  0.91188000000E+02 0.  0.
    9900012    2    3    3    0    0 -0.11812248461E+02 -0.29194454961E+02  0.19076982295E+02  0.54367127282E+02  0.40000098265E+02 0.  0.
         12    1    3    3    0    0  0.11812248461E+02  0.29194454961E+02 -0.19076982295E+02  0.36820872718E+02  0.00000000000E+00 0. -1.
         11    1    4    4    0    0  0.78440738117E+01 -0.11135099017E+02  0.14788147980E+02  0.20104955733E+02  0.51100000000E-03 0. -1.
        -11    1    4    4    0    0 -0.16431663768E+02 -0.11907105543E+02  0.12244905703E+02  0.23700558064E+02  0.51100000000E-03 0.  1.
         12    1    4    4    0    0 -0.32246585047E+01 -0.61522504008E+01 -0.79560713884E+01  0.10561613485E+02  0.00000000000E+00 0. -1.
</event>
<event>
 8    1  0.2512298E-006  0.9118800E+02  0.7816164E-02  0.1184000E+00
        -11   -1    0    0    0    0  0.00000000000E+00  0.00000000000E+00  0.45593999997E+02  0.45594000000E+02  0.51100000000E-03 0.  1.
         11   -1    0    0    0    0 -0.00000000000E+00 -0.00000000000E+00 -0.45593999997E+02  0.45594000000E+02  0.51100000000E-03 0. -1.
         23    2    1    2    0    0  0.35527136788E-14  0.35527136788E-14  0.00000000000E+00  0.91188000000E+02  0.91188000000E+02 0.  0.
    9900012    2    3    3    0    0 -0.16462001381E+02 -0.22098344057E+02  0.24422223151E+02  0.54367091766E+02  0.40000017299E+02 0.  0.
         12    1    3    3    0    0  0.16462001381E+02  0.22098344057E+02 -0.24422223151E+02  0.36820908234E+02  0.00000000000E+00 0. -1.
         11    1    4    4    0    0  0.14382391671E+01  0.20541926776E+01  0.85610485402E+01  0.89207506314E+01  0.51100000000E-03 0. -1.
        -11    1    4    4    0    0 -0.21165906248E+02 -0.60552674777E+01  0.14137813670E+01  0.22060385979E+02  0.51100000000E-03 0.  1.
         12    1    4    4    0    0  0.32656656990E+01 -0.18097269257E+02  0.14447393244E+02  0.23385955156E+02  0.00000000000E+00 0. -1.
</event>
<event>
 8    1  0.2512298E-006  0.9118800E+02  0.7816164E-02  0.1184000E+00
        -11   -1    0    0    0    0  0.00000000000E+00  0.00000000000E+00  0.45593999997E+02  0.45594000000E+02  0.51100000000E-03 0. -1.
         11   -1    0    0    0    0 -0.00000000000E+00 -0.00000000000E+00 -0.45593999997E+02  0.45594000000E+02  0.51100000000E-03 0.  1.
         23    2    1    2    0    0  0.00000000000E+00  0.00000000000E+00  0.00000000000E+00  0.91188000000E+02  0.91188000000E+02 0.  0.
    9900012    2    3    3    0    0  0.85137671902E+01  0.16883004693E+02 -0.31595118895E+02  0.54367195864E+02  0.40000254610E+02 0.  0.
         12    1    3    3    0    0 -0.85137671902E+01 -0.16883004693E+02  0.31595118895E+02  0.36820804136E+02  0.00000000000E+00 0. -1.
         11    1    4    4    0    0  0.47913506956E+01  0.72181532179E+01 -0.11625217588E+02  0.14498429625E+02  0.51100000000E-03 0.  1.
        -11    1    4    4    0    0 -0.62757416898E+01  0.11908868906E+02 -0.25045404033E+02  0.28433753811E+02  0.51100000000E-03 0. -1.
         12    1    4    4    0    0  0.99981581843E+01 -0.22440174316E+01  0.50755027249E+01  0.11435012428E+02  0.00000000000E+00 0. -1.
</event>
<event>
 8    1  0.2512298E-006  0.9118800E+02  0.7816164E-02  0.1184000E+00
        -11   -1    0    0    0    0  0.00000000000E+00  0.00000000000E+00  0.45593999997E+02  0.45594000000E+02  0.51100000000E-03 0.  1.
         11   -1    0    0    0    0 -0.00000000000E+00 -0.00000000000E+00 -0.45593999997E+02  0.45594000000E+02  0.51100000000E-03 0. -1.
         23    2    1    2    0    0 -0.22204460493E-15  0.00000000000E+00  0.00000000000E+00  0.91188000000E+02  0.91188000000E+02 0.  0.
    9900012    2    3    3    0    0  0.63114780859E+00 -0.35433999101E+02  0.99906247631E+01  0.54367092583E+02  0.40000019161E+02 0.  0.
         12    1    3    3    0    0 -0.63114780859E+00  0.35433999101E+02 -0.99906247631E+01  0.36820907417E+02  0.00000000000E+00 0. -1.
         11    1    4    4    0    0  0.11832902084E+02 -0.80503724093E+01  0.10106717444E+02  0.17520610875E+02  0.51100000000E-03 0. -1.
        -11    1    4    4    0    0 -0.78943476775E+00 -0.59938295161E+01  0.94395735998E+01  0.11209582933E+02  0.51100000000E-03 0.  1.
        -12    1    4    4    0    0 -0.10412319508E+02 -0.21389797176E+02 -0.95556662806E+01  0.25636898775E+02  0.00000000000E+00 0.  1.
</event>
<event>
 8    1  0.2512298E-006  0.9118800E+02  0.7816164E-02  0.1184000E+00
        -11   -1    0    0    0    0  0.00000000000E+00  0.00000000000E+00  0.45593999997E+02  0.45594000000E+02  0.51100000000E-03 0.  1.
         11   -1    0    0    0    0 -0.00000000000E+00 -0.00000000000E+00 -0.45593999997E+02  0.45594000000E+02  0.51100000000E-03 0. -1.
         23    2    1    2    0    0 -0.35527136788E-14  0.35527136788E-14  0.88817841970E-15  0.91188000000E+02  0.91188000000E+02 0.  0.
    9900012    2    3    3    0    0  0.24826976974E+02  0.27002383501E+02 -0.32051637555E+01  0.54367074223E+02  0.39999977306E+02 0.  0.
        -12    1    3    3    0    0 -0.24826976974E+02 -0.27002383501E+02  0.32051637555E+01  0.36820925777E+02  0.00000000000E+00 0.  1.
         11    1    4    4    0    0  0.10488702937E+02  0.33877866271E+02 -0.16073051003E+01  0.35500790728E+02  0.51100000000E-03 0. -1.
        -11    1    4    4    0    0  0.68707071907E+01  0.10200258138E+01  0.23060565473E+01  0.73188091259E+01  0.51100000000E-03 0.  1.
         12    1    4    4    0    0  0.74675668456E+01 -0.78955085836E+01 -0.39039152025E+01  0.11547474369E+02  0.00000000000E+00 0. -1.
</event>
<event>
 8    1  0.2512298E-006  0.9118800E+02  0.7816164E-02  0.1184000E+00
        -11   -1    0    0    0    0  0.00000000000E+00  0.00000000000E+00  0.45593999997E+02  0.45594000000E+02  0.51100000000E-03 0.  1.
         11   -1    0    0    0    0 -0.00000000000E+00 -0.00000000000E+00 -0.45593999997E+02  0.45594000000E+02  0.51100000000E-03 0. -1.
         23    2    1    2    0    0  0.25535129566E-14  0.88817841970E-15  0.71054273576E-14  0.91188000000E+02  0.91188000000E+02 0.  0.
    9900012    2    3    3    0    0  0.87330989803E+00  0.27240424807E+01 -0.36709666132E+02  0.54367045841E+02  0.39999912604E+02 0.  0.
        -12    1    3    3    0    0 -0.87330989803E+00 -0.27240424807E+01  0.36709666132E+02  0.36820954159E+02  0.00000000000E+00 0.  1.
         11    1    4    4    0    0  0.10446320422E+02 -0.30380261584E+01 -0.22122163267E+02  0.24652491176E+02  0.51100000000E-03 0. -1.
        -11    1    4    4    0    0 -0.70913035528E+01 -0.49558915589E+01  0.28394788226E+01  0.91054976507E+01  0.51100000000E-03 0.  1.
        -12    1    4    4    0    0 -0.24817069709E+01  0.10717960198E+02 -0.17426981688E+02  0.20609057015E+02  0.00000000000E+00 0.  1.
</event>
<event>
 8    1  0.2512298E-006  0.9118800E+02  0.7816164E-02  0.1184000E+00
        -11   -1    0    0    0    0  0.00000000000E+00  0.00000000000E+00  0.45593999997E+02  0.45594000000E+02  0.51100000000E-03 0.  1.
         11   -1    0    0    0    0 -0.00000000000E+00 -0.00000000000E+00 -0.45593999997E+02  0.45594000000E+02  0.51100000000E-03 0. -1.
         23    2    1    2    0    0  0.00000000000E+00 -0.17763568394E-14  0.17763568394E-14  0.91188000000E+02  0.91188000000E+02 0.  0.
    9900012    2    3    3    0    0 -0.34017973924E+02  0.64186757335E+01  0.12544212131E+02  0.54367092813E+02  0.40000019687E+02 0.  0.
         12    1    3    3    0    0  0.34017973924E+02 -0.64186757335E+01 -0.12544212131E+02  0.36820907187E+02  0.00000000000E+00 0. -1.
         11    1    4    4    0    0 -0.20644743883E+02 -0.88248482350E+01  0.12007724896E+02  0.25461124362E+02  0.51100000000E-03 0. -1.
        -11    1    4    4    0    0  0.20136739924E+01 -0.36913761655E+01  0.15627031107E+01  0.44858870044E+01  0.51100000000E-03 0.  1.
         12    1    4    4    0    0 -0.15386904034E+02  0.18934900134E+02 -0.10262158762E+01  0.24420081446E+02  0.00000000000E+00 0. -1.
</event>
<event>
 8    1  0.2512298E-006  0.9118800E+02  0.7816164E-02  0.1184000E+00
        -11   -1    0    0    0    0  0.00000000000E+00  0.00000000000E+00  0.45593999997E+02  0.45594000000E+02  0.51100000000E-03 0. -1.
         11   -1    0    0    0    0 -0.00000000000E+00 -0.00000000000E+00 -0.45593999997E+02  0.45594000000E+02  0.51100000000E-03 0.  1.
         23    2    1    2    0    0  0.00000000000E+00  0.71054273576E-14  0.00000000000E+00  0.91188000000E+02  0.91188000000E+02 0.  0.
    9900012    2    3    3    0    0 -0.58713315483E+01 -0.34687870815E+02  0.10865441890E+02  0.54367099097E+02  0.40000034011E+02 0.  0.
         12    1    3    3    0    0  0.58713315483E+01  0.34687870815E+02 -0.10865441890E+02  0.36820900903E+02  0.00000000000E+00 0. -1.
         11    1    4    4    0    0 -0.88909102618E+00 -0.24771032918E+02  0.20441143259E+02  0.32128412545E+02  0.51100000000E-03 0.  1.
        -11    1    4    4    0    0  0.25200567533E+01  0.48527105756E-01  0.34048329468E+01  0.42362635159E+01  0.51100000000E-03 0. -1.
         12    1    4    4    0    0 -0.75022972754E+01 -0.99653650031E+01 -0.12980534316E+02  0.18002423036E+02  0.00000000000E+00 0. -1.
</event>
<event>
 8    1  0.2512298E-006  0.9118800E+02  0.7816164E-02  0.1184000E+00
        -11   -1    0    0    0    0  0.00000000000E+00  0.00000000000E+00  0.45593999997E+02  0.45594000000E+02  0.51100000000E-03 0.  1.
         11   -1    0    0    0    0 -0.00000000000E+00 -0.00000000000E+00 -0.45593999997E+02  0.45594000000E+02  0.51100000000E-03 0. -1.
         23    2    1    2    0    0  0.35527136788E-14  0.00000000000E+00  0.35527136788E-14  0.91188000000E+02  0.91188000000E+02 0.  0.
    9900012    2    3    3    0    0  0.19011626092E+02  0.40041846777E+01  0.31277845680E+02  0.54367094905E+02  0.40000024455E+02 0.  0.
         12    1    3    3    0    0 -0.19011626092E+02 -0.40041846777E+01 -0.31277845680E+02  0.36820905095E+02  0.00000000000E+00 0. -1.
         11    1    4    4    0    0 -0.25709571662E+01  0.38123932126E+00 -0.30476788581E+01  0.40054351641E+01  0.51100000000E-03 0. -1.
        -11    1    4    4    0    0  0.14716369099E+02  0.58428486012E+01  0.57070628592E+00  0.15844118946E+02  0.51100000000E-03 0.  1.
        -12    1    4    4    0    0  0.68662141593E+01 -0.22199032448E+01  0.33754818252E+02  0.34517540795E+02  0.00000000000E+00 0.  1.
</event>
<event>
 8    1  0.2512298E-006  0.9118800E+02  0.7816164E-02  0.1184000E+00
        -11   -1    0    0    0    0  0.00000000000E+00  0.00000000000E+00  0.45593999997E+02  0.45594000000E+02  0.51100000000E-03 0. -1.
         11   -1    0    0    0    0 -0.00000000000E+00 -0.00000000000E+00 -0.45593999997E+02  0.45594000000E+02  0.51100000000E-03 0.  1.
         23    2    1    2    0    0  0.35527136788E-14  0.44408920985E-15  0.00000000000E+00  0.91188000000E+02  0.91188000000E+02 0.  0.
    9900012    2    3    3    0    0  0.30474446562E+02 -0.37419616706E+01 -0.20324504669E+02  0.54367086643E+02  0.40000005619E+02 0.  0.
         12    1    3    3    0    0 -0.30474446562E+02  0.37419616706E+01  0.20324504669E+02  0.36820913357E+02  0.00000000000E+00 0. -1.
         11    1    4    4    0    0 -0.15068573289E+00 -0.60811461669E+01  0.53879113306E+01  0.81260466194E+01  0.51100000000E-03 0. -1.
        -11    1    4    4    0    0  0.26444423208E+02  0.64826175408E+01 -0.28767459255E+02  0.39609324171E+02  0.51100000000E-03 0.  1.
        -12    1    4    4    0    0  0.41807090866E+01 -0.41434330445E+01  0.30550432551E+01  0.66317158527E+01  0.00000000000E+00 0.  1.
</event>
<event>
 8    1  0.2512298E-006  0.9118800E+02  0.7816164E-02  0.1184000E+00
        -11   -1    0    0    0    0  0.00000000000E+00  0.00000000000E+00  0.45593999997E+02  0.45594000000E+02  0.51100000000E-03 0. -1.
         11   -1    0    0    0    0 -0.00000000000E+00 -0.00000000000E+00 -0.45593999997E+02  0.45594000000E+02  0.51100000000E-03 0.  1.
         23    2    1    2    0    0  0.00000000000E+00  0.00000000000E+00 -0.35527136788E-14  0.91188000000E+02  0.91188000000E+02 0.  0.
    9900012    2    3    3    0    0  0.30013897027E+02  0.84550494473E+01  0.19582078630E+02  0.54367086386E+02  0.40000005034E+02 0.  0.
        -12    1    3    3    0    0 -0.30013897027E+02 -0.84550494473E+01 -0.19582078630E+02  0.36820913614E+02  0.00000000000E+00 0.  1.
         11    1    4    4    0    0  0.24326810963E+02  0.86386335533E+01  0.18504114054E+02  0.31761957724E+02  0.51100000000E-03 0. -1.
        -11    1    4    4    0    0 -0.18976677324E+01 -0.16326998572E+01  0.10286889301E+02  0.10587112137E+02  0.51100000000E-03 0.  1.
         12    1    4    4    0    0  0.75847537961E+01  0.14491157513E+01 -0.92089247248E+01  0.12018016525E+02  0.00000000000E+00 0. -1.
</event>
<event>
 8    1  0.2512298E-006  0.9118800E+02  0.7816164E-02  0.1184000E+00
        -11   -1    0    0    0    0  0.00000000000E+00  0.00000000000E+00  0.45593999997E+02  0.45594000000E+02  0.51100000000E-03 0. -1.
         11   -1    0    0    0    0 -0.00000000000E+00 -0.00000000000E+00 -0.45593999997E+02  0.45594000000E+02  0.51100000000E-03 0.  1.
         23    2    1    2    0    0 -0.10547118734E-14  0.26645352591E-14  0.00000000000E+00  0.91188000000E+02  0.91188000000E+02 0.  0.
    9900012    2    3    3    0    0  0.19870956130E+00 -0.67629195989E+01 -0.36193951257E+02  0.54367100030E+02  0.40000036139E+02 0.  0.
         12    1    3    3    0    0 -0.19870956130E+00  0.67629195989E+01  0.36193951257E+02  0.36820899970E+02  0.00000000000E+00 0. -1.
         11    1    4    4    0    0 -0.71478361967E+01  0.12981058155E+02 -0.59740645205E+01  0.15977762055E+02  0.51100000000E-03 0. -1.
        -11    1    4    4    0    0  0.25092728579E+00 -0.12804561007E+02 -0.22199556912E+02  0.25628891401E+02  0.51100000000E-03 0.  1.
         12    1    4    4    0    0  0.70956184722E+01 -0.69394167470E+01 -0.80203298244E+01  0.12760446575E+02  0.00000000000E+00 0. -1.
</event>
<event>
 8    1  0.2512298E-006  0.9118800E+02  0.7816164E-02  0.1184000E+00
        -11   -1    0    0    0    0  0.00000000000E+00  0.00000000000E+00  0.45593999997E+02  0.45594000000E+02  0.51100000000E-03 0. -1.
         11   -1    0    0    0    0 -0.00000000000E+00 -0.00000000000E+00 -0.45593999997E+02  0.45594000000E+02  0.51100000000E-03 0.  1.
         23    2    1    2    0    0 -0.94368957093E-15 -0.35527136788E-14  0.00000000000E+00  0.91188000000E+02  0.91188000000E+02 0.  0.
    9900012    2    3    3    0    0 -0.21939001181E+00  0.19964881162E+02 -0.30937608077E+02  0.54367079244E+02  0.39999988752E+02 0.  0.
         12    1    3    3    0    0  0.21939001181E+00 -0.19964881162E+02  0.30937608077E+02  0.36820920756E+02  0.00000000000E+00 0. -1.
         11    1    4    4    0    0  0.39052727500E+01  0.13079781956E+02 -0.33772733816E+02  0.36427042166E+02  0.51100000000E-03 0. -1.
        -11    1    4    4    0    0  0.76349763425E+00  0.71640623770E+01 -0.49514548986E+01  0.87420606411E+01  0.51100000000E-03 0.  1.
         12    1    4    4    0    0 -0.48881603960E+01 -0.27896317085E+00  0.77865806375E+01  0.91979764368E+01  0.00000000000E+00 0. -1.
</event>
<event>
 8    1  0.2512298E-006  0.9118800E+02  0.7816164E-02  0.1184000E+00
        -11   -1    0    0    0    0  0.00000000000E+00  0.00000000000E+00  0.45593999997E+02  0.45594000000E+02  0.51100000000E-03 0.  1.
         11   -1    0    0    0    0 -0.00000000000E+00 -0.00000000000E+00 -0.45593999997E+02  0.45594000000E+02  0.51100000000E-03 0. -1.
         23    2    1    2    0    0  0.17763568394E-14  0.00000000000E+00  0.35527136788E-14  0.91188000000E+02  0.91188000000E+02 0.  0.
    9900012    2    3    3    0    0 -0.14226838832E+02  0.12641478871E+02 -0.31520935627E+02  0.54367091348E+02  0.40000016345E+02 0.  0.
        -12    1    3    3    0    0  0.14226838832E+02 -0.12641478871E+02  0.31520935627E+02  0.36820908652E+02  0.00000000000E+00 0.  1.
         11    1    4    4    0    0 -0.24491408172E+00 -0.65558364782E+01 -0.20930221222E+02  0.21934291315E+02  0.51100000000E-03 0. -1.
        -11    1    4    4    0    0 -0.57070374130E+01  0.63889122942E+00 -0.10665187656E+02  0.12112996575E+02  0.51100000000E-03 0.  1.
        -12    1    4    4    0    0 -0.82748873372E+01  0.18558424120E+02  0.74473251236E-01  0.20319803457E+02  0.00000000000E+00 0.  1.
</event>
<event>
 8    1  0.2512298E-006  0.9118800E+02  0.7816164E-02  0.1184000E+00
        -11   -1    0    0    0    0  0.00000000000E+00  0.00000000000E+00  0.45593999997E+02  0.45594000000E+02  0.51100000000E-03 0. -1.
         11   -1    0    0    0    0 -0.00000000000E+00 -0.00000000000E+00 -0.45593999997E+02  0.45594000000E+02  0.51100000000E-03 0.  1.
         23    2    1    2    0    0  0.00000000000E+00  0.00000000000E+00  0.00000000000E+00  0.91188000000E+02  0.91188000000E+02 0.  0.
    9900012    2    3    3    0    0 -0.16962543224E+02 -0.30688727003E+02 -0.11236254583E+02  0.54367092152E+02  0.40000018179E+02 0.  0.
         12    1    3    3    0    0  0.16962543224E+02  0.30688727003E+02  0.11236254583E+02  0.36820907848E+02  0.00000000000E+00 0. -1.
         11    1    4    4    0    0 -0.22453713241E+01 -0.26747994267E+02  0.61593644194E+00  0.26849139048E+02  0.51100000000E-03 0. -1.
        -11    1    4    4    0    0 -0.93793244341E+01 -0.10409568399E+02 -0.12925144315E+02  0.19062796147E+02  0.51100000000E-03 0.  1.
        -12    1    4    4    0    0 -0.53378474663E+01  0.64688356627E+01  0.10729532904E+01  0.84551569570E+01  0.00000000000E+00 0.  1.
</event>
<event>
 8    1  0.2512298E-006  0.9118800E+02  0.7816164E-02  0.1184000E+00
        -11   -1    0    0    0    0  0.00000000000E+00  0.00000000000E+00  0.45593999997E+02  0.45594000000E+02  0.51100000000E-03 0.  1.
         11   -1    0    0    0    0 -0.00000000000E+00 -0.00000000000E+00 -0.45593999997E+02  0.45594000000E+02  0.51100000000E-03 0. -1.
         23    2    1    2    0    0  0.00000000000E+00  0.35527136788E-14  0.71054273576E-14  0.91188000000E+02  0.91188000000E+02 0.  0.
    9900012    2    3    3    0    0 -0.92550491447E+01  0.14398241377E+02  0.32600819549E+02  0.54367099350E+02  0.40000034587E+02 0.  0.
         12    1    3    3    0    0  0.92550491447E+01 -0.14398241377E+02 -0.32600819549E+02  0.36820900650E+02  0.00000000000E+00 0. -1.
         11    1    4    4    0    0 -0.19666081550E+01  0.88924659015E+00 -0.55217700319E+01  0.59285960968E+01  0.51100000000E-03 0. -1.
        -11    1    4    4    0    0  0.93496128042E+01  0.37173854958E+01  0.90073698145E+01  0.13504329889E+02  0.51100000000E-03 0.  1.
         12    1    4    4    0    0 -0.16638053794E+02  0.97916092910E+01  0.29115219767E+02  0.34934173364E+02  0.00000000000E+00 0. -1.
</event>
<event>
 8    1  0.2512298E-006  0.9118800E+02  0.7816164E-02  0.1184000E+00
        -11   -1    0    0    0    0  0.00000000000E+00  0.00000000000E+00  0.45593999997E+02  0.45594000000E+02  0.51100000000E-03 0.  1.
         11   -1    0    0    0    0 -0.00000000000E+00 -0.00000000000E+00 -0.45593999997E+02  0.45594000000E+02  0.51100000000E-03 0. -1.
         23    2    1    2    0    0  0.17763568394E-14  0.00000000000E+00  0.00000000000E+00  0.91188000000E+02  0.91188000000E+02 0.  0.
    9900012    2    3    3    0    0 -0.14888526097E+02 -0.24180188864E+02 -0.23439919225E+02  0.54367088060E+02  0.40000008850E+02 0.  0.
        -12    1    3    3    0    0  0.14888526097E+02  0.24180188864E+02  0.23439919225E+02  0.36820911940E+02  0.00000000000E+00 0.  1.
         11    1    4    4    0    0  0.15145709276E+01 -0.48124783516E+01 -0.44753420531E+01  0.67440758991E+01  0.51100000000E-03 0. -1.
        -11    1    4    4    0    0 -0.18641243686E+02 -0.28263300183E+02 -0.11373453682E+02  0.35716460523E+02  0.51100000000E-03 0.  1.
        -12    1    4    4    0    0  0.22381466616E+01  0.88955896705E+01 -0.75911234894E+01  0.11906551637E+02  0.00000000000E+00 0.  1.
</event>
<event>
 8    1  0.2512298E-006  0.9118800E+02  0.7816164E-02  0.1184000E+00
        -11   -1    0    0    0    0  0.00000000000E+00  0.00000000000E+00  0.45593999997E+02  0.45594000000E+02  0.51100000000E-03 0.  1.
         11   -1    0    0    0    0 -0.00000000000E+00 -0.00000000000E+00 -0.45593999997E+02  0.45594000000E+02  0.51100000000E-03 0. -1.
         23    2    1    2    0    0 -0.44408920985E-15  0.35527136788E-14  0.00000000000E+00  0.91188000000E+02  0.91188000000E+02 0.  0.
    9900012    2    3    3    0    0  0.25485681075E+01  0.19564190886E+02 -0.31089020372E+02  0.54367082683E+02  0.39999996591E+02 0.  0.
         12    1    3    3    0    0 -0.25485681075E+01 -0.19564190886E+02  0.31089020372E+02  0.36820917317E+02  0.00000000000E+00 0. -1.
         11    1    4    4    0    0  0.14512696956E+02 -0.54178123938E+01 -0.15378998896E+02  0.21828528841E+02  0.51100000000E-03 0. -1.
        -11    1    4    4    0    0 -0.34498200859E+01  0.11072297314E+02 -0.33380897250E+01  0.12068134475E+02  0.51100000000E-03 0.  1.
         12    1    4    4    0    0 -0.85143087630E+01  0.13909705966E+02 -0.12371931751E+02  0.20470419366E+02  0.00000000000E+00 0. -1.
</event>
<event>
 8    1  0.2512298E-006  0.9118800E+02  0.7816164E-02  0.1184000E+00
        -11   -1    0    0    0    0  0.00000000000E+00  0.00000000000E+00  0.45593999997E+02  0.45594000000E+02  0.51100000000E-03 0.  1.
         11   -1    0    0    0    0 -0.00000000000E+00 -0.00000000000E+00 -0.45593999997E+02  0.45594000000E+02  0.51100000000E-03 0. -1.
         23    2    1    2    0    0 -0.71054273576E-14  0.00000000000E+00  0.00000000000E+00  0.91188000000E+02  0.91188000000E+02 0.  0.
    9900012    2    3    3    0    0  0.30991963748E+02  0.49696002974E+01 -0.19250502920E+02  0.54367073793E+02  0.39999976326E+02 0.  0.
        -12    1    3    3    0    0 -0.30991963748E+02 -0.49696002974E+01  0.19250502920E+02  0.36820926207E+02  0.00000000000E+00 0.  1.
         11    1    4    4    0    0 -0.80440232382E+01 -0.10290469597E+01 -0.56302929040E+01  0.98724589616E+01  0.51100000000E-03 0. -1.
        -11    1    4    4    0    0  0.93117004791E+01 -0.85703801110E+00  0.29173336739E+01  0.97955661393E+01  0.51100000000E-03 0.  1.
         12    1    4    4    0    0  0.29724286507E+02  0.68556852682E+01 -0.16537543689E+02  0.34699048692E+02  0.00000000000E+00 0. -1.
</event>
<event>
 8    1  0.2512298E-006  0.9118800E+02  0.7816164E-02  0.1184000E+00
        -11   -1    0    0    0    0  0.00000000000E+00  0.00000000000E+00  0.45593999997E+02  0.45594000000E+02  0.51100000000E-03 0.  1.
         11   -1    0    0    0    0 -0.00000000000E+00 -0.00000000000E+00 -0.45593999997E+02  0.45594000000E+02  0.51100000000E-03 0. -1.
         23    2    1    2    0    0 -0.88817841970E-15  0.00000000000E+00  0.00000000000E+00  0.91188000000E+02  0.91188000000E+02 0.  0.
    9900012    2    3    3    0    0 -0.40627677066E+01  0.10732836025E+02  0.34986843158E+02  0.54367095004E+02  0.40000024680E+02 0.  0.
         12    1    3    3    0    0  0.40627677066E+01 -0.10732836025E+02 -0.34986843158E+02  0.36820904996E+02  0.00000000000E+00 0. -1.
         11    1    4    4    0    0  0.92451345932E+00 -0.22753802536E+01  0.44952337577E+01  0.51224220085E+01  0.51100000000E-03 0. -1.
        -11    1    4    4    0    0  0.14679732480E+02  0.11277003035E+02  0.18360380151E+02  0.26072378156E+02  0.51100000000E-03 0.  1.
         12    1    4    4    0    0 -0.19667013646E+02  0.17312132434E+01  0.12131229249E+02  0.23172294840E+02  0.00000000000E+00 0. -1.
</event>
<event>
 8    1  0.2512298E-006  0.9118800E+02  0.7816164E-02  0.1184000E+00
        -11   -1    0    0    0    0  0.00000000000E+00  0.00000000000E+00  0.45593999997E+02  0.45594000000E+02  0.51100000000E-03 0. -1.
         11   -1    0    0    0    0 -0.00000000000E+00 -0.00000000000E+00 -0.45593999997E+02  0.45594000000E+02  0.51100000000E-03 0.  1.
         23    2    1    2    0    0  0.88817841970E-15  0.00000000000E+00  0.00000000000E+00  0.91188000000E+02  0.91188000000E+02 0.  0.
    9900012    2    3    3    0    0  0.45318283123E+01  0.36246628096E+02  0.46286590507E+01  0.54367082022E+02  0.39999995085E+02 0.  0.
         12    1    3    3    0    0 -0.45318283123E+01 -0.36246628096E+02 -0.46286590507E+01  0.36820917978E+02  0.00000000000E+00 0. -1.
         11    1    4    4    0    0 -0.80633147037E+01 -0.36487978047E+01  0.34049259028E+01  0.94828418786E+01  0.51100000000E-03 0. -1.
        -11    1    4    4    0    0  0.14178805580E+01  0.26448243627E+02 -0.36382792380E+01  0.26734940664E+02  0.51100000000E-03 0.  1.
         12    1    4    4    0    0  0.11177262458E+02  0.13447182273E+02  0.48620123860E+01  0.18149299479E+02  0.00000000000E+00 0. -1.
</event>
<event>
 8    1  0.2512298E-006  0.9118800E+02  0.7816164E-02  0.1184000E+00
        -11   -1    0    0    0    0  0.00000000000E+00  0.00000000000E+00  0.45593999997E+02  0.45594000000E+02  0.51100000000E-03 0. -1.
         11   -1    0    0    0    0 -0.00000000000E+00 -0.00000000000E+00 -0.45593999997E+02  0.45594000000E+02  0.51100000000E-03 0.  1.
         23    2    1    2    0    0 -0.44408920985E-15  0.00000000000E+00  0.00000000000E+00  0.91188000000E+02  0.91188000000E+02 0.  0.
    9900012    2    3    3    0    0 -0.10416151233E+01  0.42711685198E+01 -0.36557510043E+02  0.54367090409E+02  0.40000014205E+02 0.  0.
         12    1    3    3    0    0  0.10416151233E+01 -0.42711685198E+01  0.36557510043E+02  0.36820909591E+02  0.00000000000E+00 0. -1.
         11    1    4    4    0    0 -0.62262181099E+01  0.62282135730E+00 -0.28395613422E+01  0.68714487026E+01  0.51100000000E-03 0. -1.
        -11    1    4    4    0    0  0.14732945066E+02  0.10646413894E+02 -0.30018262099E+02  0.35092760776E+02  0.51100000000E-03 0.  1.
        -12    1    4    4    0    0 -0.95483420794E+01 -0.69980667312E+01 -0.36996866010E+01  0.12402880931E+02  0.00000000000E+00 0.  1.
</event>
<event>
 8    1  0.2512298E-006  0.9118800E+02  0.7816164E-02  0.1184000E+00
        -11   -1    0    0    0    0  0.00000000000E+00  0.00000000000E+00  0.45593999997E+02  0.45594000000E+02  0.51100000000E-03 0.  1.
         11   -1    0    0    0    0 -0.00000000000E+00 -0.00000000000E+00 -0.45593999997E+02  0.45594000000E+02  0.51100000000E-03 0. -1.
         23    2    1    2    0    0  0.00000000000E+00  0.00000000000E+00  0.35527136788E-14  0.91188000000E+02  0.91188000000E+02 0.  0.
    9900012    2    3    3    0    0 -0.11908740658E+02 -0.20363706089E+02  0.28271568582E+02  0.54367079047E+02  0.39999988304E+02 0.  0.
         12    1    3    3    0    0  0.11908740658E+02  0.20363706089E+02 -0.28271568582E+02  0.36820920953E+02  0.00000000000E+00 0. -1.
         11    1    4    4    0    0 -0.93247024455E+01 -0.56348512074E+01  0.34988222520E+01  0.11443049473E+02  0.51100000000E-03 0. -1.
        -11    1    4    4    0    0 -0.16220566303E+02 -0.22882126268E+01  0.14021095516E+02  0.21562323807E+02  0.51100000000E-03 0.  1.
         12    1    4    4    0    0  0.13636528091E+02 -0.12440642255E+02  0.10751650814E+02  0.21361705767E+02  0.00000000000E+00 0. -1.
</event>
<event>
 8    1  0.2512298E-006  0.9118800E+02  0.7816164E-02  0.1184000E+00
        -11   -1    0    0    0    0  0.00000000000E+00  0.00000000000E+00  0.45593999997E+02  0.45594000000E+02  0.51100000000E-03 0.  1.
         11   -1    0    0    0    0 -0.00000000000E+00 -0.00000000000E+00 -0.45593999997E+02  0.45594000000E+02  0.51100000000E-03 0. -1.
         23    2    1    2    0    0  0.35527136788E-14  0.71054273576E-14 -0.35527136788E-14  0.91188000000E+02  0.91188000000E+02 0.  0.
    9900012    2    3    3    0    0  0.18002111026E+02  0.27507264144E+02 -0.16584813119E+02  0.54367060193E+02  0.39999945323E+02 0.  0.
        -12    1    3    3    0    0 -0.18002111026E+02 -0.27507264144E+02  0.16584813119E+02  0.36820939807E+02  0.00000000000E+00 0.  1.
         11    1    4    4    0    0 -0.52149898291E+01  0.39730410251E+01 -0.80646646596E+01  0.10393266582E+02  0.51100000000E-03 0. -1.
        -11    1    4    4    0    0  0.11911821320E+02 -0.37591148517E+01  0.19273927493E+01  0.12638721245E+02  0.51100000000E-03 0.  1.
         12    1    4    4    0    0  0.11305279535E+02  0.27293337970E+02 -0.10447541209E+02  0.31335072367E+02  0.00000000000E+00 0. -1.
</event>
<event>
 8    1  0.2512298E-006  0.9118800E+02  0.7816164E-02  0.1184000E+00
        -11   -1    0    0    0    0  0.00000000000E+00  0.00000000000E+00  0.45593999997E+02  0.45594000000E+02  0.51100000000E-03 0.  1.
         11   -1    0    0    0    0 -0.00000000000E+00 -0.00000000000E+00 -0.45593999997E+02  0.45594000000E+02  0.51100000000E-03 0. -1.
         23    2    1    2    0    0  0.00000000000E+00  0.00000000000E+00  0.00000000000E+00  0.91188000000E+02  0.91188000000E+02 0.  0.
    9900012    2    3    3    0    0 -0.93031165671E+01 -0.16916858889E+02 -0.31353653140E+02  0.54367086680E+02  0.40000005703E+02 0.  0.
        -12    1    3    3    0    0  0.93031165671E+01  0.16916858889E+02  0.31353653140E+02  0.36820913320E+02  0.00000000000E+00 0.  1.
         11    1    4    4    0    0 -0.22830938944E+01 -0.79854167888E+01  0.12851917686E+01  0.84042320984E+01  0.51100000000E-03 0.  1.
        -11    1    4    4    0    0 -0.86499541269E+01 -0.19497002181E+02 -0.18482478591E+02  0.28223338137E+02  0.51100000000E-03 0. -1.
         12    1    4    4    0    0  0.16299314543E+01  0.10565560081E+02 -0.14156366318E+02  0.17739516445E+02  0.00000000000E+00 0. -1.
</event>
<event>
 8    1  0.2512298E-006  0.9118800E+02  0.7816164E-02  0.1184000E+00
        -11   -1    0    0    0    0  0.00000000000E+00  0.00000000000E+00  0.45593999997E+02  0.45594000000E+02  0.51100000000E-03 0.  1.
         11   -1    0    0    0    0 -0.00000000000E+00 -0.00000000000E+00 -0.45593999997E+02  0.45594000000E+02  0.51100000000E-03 0. -1.
         23    2    1    2    0    0 -0.35527136788E-14  0.35527136788E-14 -0.17763568394E-14  0.91188000000E+02  0.91188000000E+02 0.  0.
    9900012    2    3    3    0    0  0.16126662605E+02 -0.31220567563E+02  0.10999351474E+02  0.54367098075E+02  0.40000031681E+02 0.  0.
         12    1    3    3    0    0 -0.16126662605E+02  0.31220567563E+02 -0.10999351474E+02  0.36820901925E+02  0.00000000000E+00 0. -1.
         11    1    4    4    0    0  0.10814639917E+02 -0.37111337578E+01 -0.48567902856E+01  0.12422453962E+02  0.51100000000E-03 0. -1.
        -11    1    4    4    0    0 -0.48060468930E+00 -0.96250618924E+01 -0.73206364290E+01  0.12102252488E+02  0.51100000000E-03 0.  1.
        -12    1    4    4    0    0  0.57926273769E+01 -0.17884371913E+02  0.23176778189E+02  0.29842391624E+02  0.00000000000E+00 0.  1.
</event>
<event>
 8    1  0.2512298E-006  0.9118800E+02  0.7816164E-02  0.1184000E+00
        -11   -1    0    0    0    0  0.00000000000E+00  0.00000000000E+00  0.45593999997E+02  0.45594000000E+02  0.51100000000E-03 0.  1.
         11   -1    0    0    0    0 -0.00000000000E+00 -0.00000000000E+00 -0.45593999997E+02  0.45594000000E+02  0.51100000000E-03 0. -1.
         23    2    1    2    0    0  0.00000000000E+00  0.00000000000E+00  0.00000000000E+00  0.91188000000E+02  0.91188000000E+02 0.  0.
    9900012    2    3    3    0    0  0.31804029906E+02  0.81551040583E+01 -0.16666647948E+02  0.54367092973E+02  0.40000020051E+02 0.  0.
        -12    1    3    3    0    0 -0.31804029906E+02 -0.81551040583E+01  0.16666647948E+02  0.36820907027E+02  0.00000000000E+00 0.  1.
         11    1    4    4    0    0  0.84564345806E+01  0.13421420070E+02 -0.24467874007E+02  0.29160292544E+02  0.51100000000E-03 0. -1.
        -11    1    4    4    0    0  0.63309225122E+01 -0.17901617279E+01  0.16647071144E+01  0.67864945963E+01  0.51100000000E-03 0.  1.
         12    1    4    4    0    0  0.17016672813E+02 -0.34761542843E+01  0.61365189453E+01  0.18420305834E+02  0.00000000000E+00 0. -1.
</event>
<event>
 8    1  0.2512298E-006  0.9118800E+02  0.7816164E-02  0.1184000E+00
        -11   -1    0    0    0    0  0.00000000000E+00  0.00000000000E+00  0.45593999997E+02  0.45594000000E+02  0.51100000000E-03 0. -1.
         11   -1    0    0    0    0 -0.00000000000E+00 -0.00000000000E+00 -0.45593999997E+02  0.45594000000E+02  0.51100000000E-03 0.  1.
         23    2    1    2    0    0 -0.12767564783E-14  0.71054273576E-14  0.17763568394E-14  0.91188000000E+02  0.91188000000E+02 0.  0.
    9900012    2    3    3    0    0  0.33469746405E+00  0.34908424110E+02  0.11707627782E+02  0.54367100438E+02  0.40000037069E+02 0.  0.
        -12    1    3    3    0    0 -0.33469746405E+00 -0.34908424110E+02 -0.11707627782E+02  0.36820899562E+02  0.00000000000E+00 0.  1.
         11    1    4    4    0    0  0.29260407610E+01  0.29265791910E+02  0.17930697051E+01  0.29466309404E+02  0.51100000000E-03 0. -1.
        -11    1    4    4    0    0 -0.84957380964E+01 -0.55042059405E+01  0.56038464249E+01  0.11570520466E+02  0.51100000000E-03 0.  1.
        -12    1    4    4    0    0  0.59043947994E+01  0.11146838141E+02  0.43107116516E+01  0.13330270568E+02  0.00000000000E+00 0.  1.
</event>
<event>
 8    1  0.2512298E-006  0.9118800E+02  0.7816164E-02  0.1184000E+00
        -11   -1    0    0    0    0  0.00000000000E+00  0.00000000000E+00  0.45593999997E+02  0.45594000000E+02  0.51100000000E-03 0.  1.
         11   -1    0    0    0    0 -0.00000000000E+00 -0.00000000000E+00 -0.45593999997E+02  0.45594000000E+02  0.51100000000E-03 0. -1.
         23    2    1    2    0    0  0.00000000000E+00  0.00000000000E+00 -0.35527136788E-14  0.91188000000E+02  0.91188000000E+02 0.  0.
    9900012    2    3    3    0    0  0.54254764902E+01  0.17746527335E+02  0.31802591065E+02  0.54367084394E+02  0.40000000494E+02 0.  0.
         12    1    3    3    0    0 -0.54254764902E+01 -0.17746527335E+02 -0.31802591065E+02  0.36820915606E+02  0.00000000000E+00 0. -1.
         11    1    4    4    0    0  0.52352447044E+01  0.66952968782E+00  0.12296883609E+02  0.13381681654E+02  0.51100000000E-03 0. -1.
        -11    1    4    4    0    0  0.10349110479E+02 -0.34372211308E+01  0.13432315660E+02  0.17301609204E+02  0.51100000000E-03 0.  1.
         12    1    4    4    0    0 -0.10158878693E+02  0.20514218778E+02  0.60733917958E+01  0.23683793537E+02  0.00000000000E+00 0. -1.
</event>
<event>
 8    1  0.2512298E-006  0.9118800E+02  0.7816164E-02  0.1184000E+00
        -11   -1    0    0    0    0  0.00000000000E+00  0.00000000000E+00  0.45593999997E+02  0.45594000000E+02  0.51100000000E-03 0.  1.
         11   -1    0    0    0    0 -0.00000000000E+00 -0.00000000000E+00 -0.45593999997E+02  0.45594000000E+02  0.51100000000E-03 0. -1.
         23    2    1    2    0    0  0.88817841970E-15  0.17763568394E-14  0.00000000000E+00  0.91188000000E+02  0.91188000000E+02 0.  0.
    9900012    2    3    3    0    0 -0.57951730487E+01  0.13267680060E+02 -0.33855041785E+02  0.54367092636E+02  0.40000019283E+02 0.  0.
        -12    1    3    3    0    0  0.57951730487E+01 -0.13267680060E+02  0.33855041785E+02  0.36820907364E+02  0.00000000000E+00 0.  1.
         11    1    4    4    0    0 -0.41981168429E+01  0.24297618801E+01 -0.23362568937E+02  0.23860795365E+02  0.51100000000E-03 0. -1.
        -11    1    4    4    0    0 -0.36168183614E+01  0.18027665893E+02 -0.13121760957E+02  0.22588907089E+02  0.51100000000E-03 0.  1.
        -12    1    4    4    0    0  0.20197621556E+01 -0.71897477130E+01  0.26292881099E+01  0.79173901828E+01  0.00000000000E+00 0.  1.
</event>
<event>
 8    1  0.2512298E-006  0.9118800E+02  0.7816164E-02  0.1184000E+00
        -11   -1    0    0    0    0  0.00000000000E+00  0.00000000000E+00  0.45593999997E+02  0.45594000000E+02  0.51100000000E-03 0. -1.
         11   -1    0    0    0    0 -0.00000000000E+00 -0.00000000000E+00 -0.45593999997E+02  0.45594000000E+02  0.51100000000E-03 0.  1.
         23    2    1    2    0    0 -0.71054273576E-14 -0.44408920985E-15  0.00000000000E+00  0.91188000000E+02  0.91188000000E+02 0.  0.
    9900012    2    3    3    0    0 -0.34938019562E+02 -0.27016216795E+01 -0.11305589678E+02  0.54367077570E+02  0.39999984937E+02 0.  0.
         12    1    3    3    0    0  0.34938019562E+02  0.27016216795E+01  0.11305589678E+02  0.36820922430E+02  0.00000000000E+00 0. -1.
         11    1    4    4    0    0 -0.11890603613E+02 -0.72238773004E+01 -0.13509416463E+02  0.19392658172E+02  0.51100000000E-03 0. -1.
        -11    1    4    4    0    0 -0.59492809160E+01  0.32464152438E+01 -0.11281625044E+02  0.13160859366E+02  0.51100000000E-03 0.  1.
         12    1    4    4    0    0 -0.17098135033E+02  0.12758403771E+01  0.13485451829E+02  0.21813560033E+02  0.00000000000E+00 0. -1.
</event>
<event>
 8    1  0.2512298E-006  0.9118800E+02  0.7816164E-02  0.1184000E+00
        -11   -1    0    0    0    0  0.00000000000E+00  0.00000000000E+00  0.45593999997E+02  0.45594000000E+02  0.51100000000E-03 0. -1.
         11   -1    0    0    0    0 -0.00000000000E+00 -0.00000000000E+00 -0.45593999997E+02  0.45594000000E+02  0.51100000000E-03 0.  1.
         23    2    1    2    0    0  0.22204460493E-15 -0.22204460493E-15  0.00000000000E+00  0.91188000000E+02  0.91188000000E+02 0.  0.
    9900012    2    3    3    0    0  0.18056462514E+01 -0.11852950242E+01 -0.36757467293E+02  0.54367127054E+02  0.40000097745E+02 0.  0.
         12    1    3    3    0    0 -0.18056462514E+01  0.11852950242E+01  0.36757467293E+02  0.36820872946E+02  0.00000000000E+00 0. -1.
         11    1    4    4    0    0  0.26643748420E+01  0.90964893246E-01  0.18064824650E+01  0.32203333784E+01  0.51100000000E-03 0. -1.
        -11    1    4    4    0    0 -0.85542407436E+01 -0.42016943779E+01 -0.41366410044E+02  0.42450078334E+02  0.51100000000E-03 0.  1.
        -12    1    4    4    0    0  0.76955121529E+01  0.29254344605E+01  0.28024602864E+01  0.86967153417E+01  0.00000000000E+00 0.  1.
</event>
<event>
 8    1  0.2512298E-006  0.9118800E+02  0.7816164E-02  0.1184000E+00
        -11   -1    0    0    0    0  0.00000000000E+00  0.00000000000E+00  0.45593999997E+02  0.45594000000E+02  0.51100000000E-03 0. -1.
         11   -1    0    0    0    0 -0.00000000000E+00 -0.00000000000E+00 -0.45593999997E+02  0.45594000000E+02  0.51100000000E-03 0.  1.
         23    2    1    2    0    0 -0.88817841970E-15 -0.88817841970E-15  0.00000000000E+00  0.91188000000E+02  0.91188000000E+02 0.  0.
    9900012    2    3    3    0    0  0.49836667199E+01 -0.63262335884E+01 -0.35929402945E+02  0.54367079841E+02  0.39999990113E+02 0.  0.
         12    1    3    3    0    0 -0.49836667199E+01  0.63262335884E+01  0.35929402945E+02  0.36820920159E+02  0.00000000000E+00 0. -1.
         11    1    4    4    0    0  0.19498325941E+01 -0.60389672975E+01 -0.32462645676E+02  0.33077096875E+02  0.51100000000E-03 0. -1.
        -11    1    4    4    0    0  0.32098681921E+01  0.23832404627E+01 -0.11841413036E+02  0.12498085928E+02  0.51100000000E-03 0.  1.
         12    1    4    4    0    0 -0.17603406634E+00 -0.26705067536E+01  0.83746557665E+01  0.87918970376E+01  0.00000000000E+00 0. -1.
</event>
<event>
 8    1  0.2512298E-006  0.9118800E+02  0.7816164E-02  0.1184000E+00
        -11   -1    0    0    0    0  0.00000000000E+00  0.00000000000E+00  0.45593999997E+02  0.45594000000E+02  0.51100000000E-03 0.  1.
         11   -1    0    0    0    0 -0.00000000000E+00 -0.00000000000E+00 -0.45593999997E+02  0.45594000000E+02  0.51100000000E-03 0. -1.
         23    2    1    2    0    0  0.00000000000E+00  0.00000000000E+00 -0.17763568394E-14  0.91188000000E+02  0.91188000000E+02 0.  0.
    9900012    2    3    3    0    0  0.23113444548E+02  0.26330456675E+02  0.11324993437E+02  0.54367085509E+02  0.40000003035E+02 0.  0.
        -12    1    3    3    0    0 -0.23113444548E+02 -0.26330456675E+02 -0.11324993437E+02  0.36820914491E+02  0.00000000000E+00 0.  1.
         11    1    4    4    0    0  0.99730503639E+01 -0.45491990980E+00  0.22854870678E+01  0.10241686242E+02  0.51100000000E-03 0. -1.
        -11    1    4    4    0    0  0.15456856834E+02  0.45299897897E+01 -0.59745252981E+01  0.17179353407E+02  0.51100000000E-03 0.  1.
        -12    1    4    4    0    0 -0.23164626492E+01  0.22255386795E+02  0.15014031667E+02  0.26946045860E+02  0.00000000000E+00 0.  1.
</event>
<event>
 8    1  0.2512298E-006  0.9118800E+02  0.7816164E-02  0.1184000E+00
        -11   -1    0    0    0    0  0.00000000000E+00  0.00000000000E+00  0.45593999997E+02  0.45594000000E+02  0.51100000000E-03 0.  1.
         11   -1    0    0    0    0 -0.00000000000E+00 -0.00000000000E+00 -0.45593999997E+02  0.45594000000E+02  0.51100000000E-03 0. -1.
         23    2    1    2    0    0  0.00000000000E+00  0.00000000000E+00  0.00000000000E+00  0.91188000000E+02  0.91188000000E+02 0.  0.
    9900012    2    3    3    0    0 -0.91535055640E+01  0.66255999747E+01  0.35044136650E+02  0.54367126128E+02  0.40000095634E+02 0.  0.
         12    1    3    3    0    0  0.91535055640E+01 -0.66255999747E+01 -0.35044136650E+02  0.36820873872E+02  0.00000000000E+00 0. -1.
         11    1    4    4    0    0  0.76341783590E+01  0.12939782075E+02  0.18677505771E+02  0.23970145211E+02  0.51100000000E-03 0. -1.
        -11    1    4    4    0    0 -0.36874395779E+01  0.50306382522E+01  0.10289782057E+02  0.12032628428E+02  0.51100000000E-03 0.  1.
        -12    1    4    4    0    0 -0.13100244345E+02 -0.11344820352E+02  0.60768488229E+01  0.18364352489E+02  0.00000000000E+00 0.  1.
</event>
<event>
 8    1  0.2512298E-006  0.9118800E+02  0.7816164E-02  0.1184000E+00
        -11   -1    0    0    0    0  0.00000000000E+00  0.00000000000E+00  0.45593999997E+02  0.45594000000E+02  0.51100000000E-03 0.  1.
         11   -1    0    0    0    0 -0.00000000000E+00 -0.00000000000E+00 -0.45593999997E+02  0.45594000000E+02  0.51100000000E-03 0. -1.
         23    2    1    2    0    0  0.44408920985E-15  0.17763568394E-14  0.00000000000E+00  0.91188000000E+02  0.91188000000E+02 0.  0.
    9900012    2    3    3    0    0 -0.37817327664E+01  0.14690603668E+02 -0.33550926938E+02  0.54367081526E+02  0.39999993955E+02 0.  0.
        -12    1    3    3    0    0  0.37817327664E+01 -0.14690603668E+02  0.33550926938E+02  0.36820918474E+02  0.00000000000E+00 0.  1.
         11    1    4    4    0    0  0.57691482197E+01  0.21566737458E+02 -0.20796592945E+02  0.30510744241E+02  0.51100000000E-03 0. -1.
        -11    1    4    4    0    0 -0.24275905446E+01 -0.64631226879E+01 -0.14886319939E+02  0.16409377573E+02  0.51100000000E-03 0.  1.
        -12    1    4    4    0    0 -0.71232904416E+01 -0.41301110231E+00  0.21319859458E+01  0.74469597125E+01  0.00000000000E+00 0.  1.
</event>
<event>
 8    1  0.2512298E-006  0.9118800E+02  0.7816164E-02  0.1184000E+00
        -11   -1    0    0    0    0  0.00000000000E+00  0.00000000000E+00  0.45593999997E+02  0.45594000000E+02  0.51100000000E-03 0.  1.
         11   -1    0    0    0    0 -0.00000000000E+00 -0.00000000000E+00 -0.45593999997E+02  0.45594000000E+02  0.51100000000E-03 0. -1.
         23    2    1    2    0    0  0.35527136788E-14  0.00000000000E+00  0.00000000000E+00  0.91188000000E+02  0.91188000000E+02 0.  0.
    9900012    2    3    3    0    0  0.31935463318E+02  0.13867599921E+02  0.11982928066E+02  0.54367153867E+02  0.40000158869E+02 0.  0.
         12    1    3    3    0    0 -0.31935463318E+02 -0.13867599921E+02 -0.11982928066E+02  0.36820846133E+02  0.00000000000E+00 0. -1.
         11    1    4    4    0    0  0.12573686532E+01  0.50052686906E+01 -0.67172721949E+01  0.84708580791E+01  0.51100000000E-03 0. -1.
        -11    1    4    4    0    0  0.25315232863E+02  0.53603249602E+01  0.25656984407E+02  0.36440018493E+02  0.51100000000E-03 0.  1.
        -12    1    4    4    0    0  0.53628618020E+01  0.35020062701E+01 -0.69567841461E+01  0.94562772950E+01  0.00000000000E+00 0.  1.
</event>
<event>
 8    1  0.2512298E-006  0.9118800E+02  0.7816164E-02  0.1184000E+00
        -11   -1    0    0    0    0  0.00000000000E+00  0.00000000000E+00  0.45593999997E+02  0.45594000000E+02  0.51100000000E-03 0. -1.
         11   -1    0    0    0    0 -0.00000000000E+00 -0.00000000000E+00 -0.45593999997E+02  0.45594000000E+02  0.51100000000E-03 0.  1.
         23    2    1    2    0    0  0.00000000000E+00  0.00000000000E+00  0.71054273576E-14  0.91188000000E+02  0.91188000000E+02 0.  0.
    9900012    2    3    3    0    0 -0.10825102895E+02  0.95294009828E+01  0.33879017454E+02  0.54367079867E+02  0.39999990173E+02 0.  0.
        -12    1    3    3    0    0  0.10825102895E+02 -0.95294009828E+01 -0.33879017454E+02  0.36820920133E+02  0.00000000000E+00 0.  1.
         11    1    4    4    0    0  0.51075831126E+01  0.48447383373E+01  0.23254584003E+02  0.24296801687E+02  0.51100000000E-03 0. -1.
        -11    1    4    4    0    0 -0.15291832063E+02  0.12649063811E+02  0.94978876993E+01  0.22001109385E+02  0.51100000000E-03 0.  1.
        -12    1    4    4    0    0 -0.64085394449E+00 -0.79644011657E+01  0.11265457516E+01  0.80691687946E+01  0.00000000000E+00 0.  1.
</event>
<event>
 8    1  0.2512298E-006  0.9118800E+02  0.7816164E-02  0.1184000E+00
        -11   -1    0    0    0    0  0.00000000000E+00  0.00000000000E+00  0.45593999997E+02  0.45594000000E+02  0.51100000000E-03 0.  1.
         11   -1    0    0    0    0 -0.00000000000E+00 -0.00000000000E+00 -0.45593999997E+02  0.45594000000E+02  0.51100000000E-03 0. -1.
         23    2    1    2    0    0 -0.55511151231E-15  0.00000000000E+00  0.00000000000E+00  0.91188000000E+02  0.91188000000E+02 0.  0.
    9900012    2    3    3    0    0  0.40806797151E+00 -0.20125186703E+02 -0.30831657300E+02  0.54367071832E+02  0.39999971855E+02 0.  0.
        -12    1    3    3    0    0 -0.40806797151E+00  0.20125186703E+02  0.30831657300E+02  0.36820928168E+02  0.00000000000E+00 0.  1.
         11    1    4    4    0    0 -0.56821082143E+01 -0.75813018061E+01 -0.35019758289E+02  0.36278726021E+02  0.51100000000E-03 0. -1.
        -11    1    4    4    0    0 -0.24946415187E+01 -0.46119365914E+00  0.17131353864E+01  0.30611711829E+01  0.51100000000E-03 0.  1.
         12    1    4    4    0    0  0.85848177045E+01 -0.12082691237E+02  0.24749656025E+01  0.15027174628E+02  0.00000000000E+00 0. -1.
</event>
<event>
 8    1  0.2512298E-006  0.9118800E+02  0.7816164E-02  0.1184000E+00
        -11   -1    0    0    0    0  0.00000000000E+00  0.00000000000E+00  0.45593999997E+02  0.45594000000E+02  0.51100000000E-03 0.  1.
         11   -1    0    0    0    0 -0.00000000000E+00 -0.00000000000E+00 -0.45593999997E+02  0.45594000000E+02  0.51100000000E-03 0. -1.
         23    2    1    2    0    0 -0.44408920985E-15  0.00000000000E+00  0.44408920985E-15  0.91188000000E+02  0.91188000000E+02 0.  0.
    9900012    2    3    3    0    0 -0.19579219863E+01 -0.36764568970E+02 -0.55901740007E+00  0.54367088951E+02  0.40000010882E+02 0.  0.
         12    1    3    3    0    0  0.19579219863E+01  0.36764568970E+02  0.55901740007E+00  0.36820911049E+02  0.00000000000E+00 0. -1.
         11    1    4    4    0    0  0.24522387335E+01  0.56304967017E+01 -0.66996452147E+01  0.90885210116E+01  0.51100000000E-03 0.  1.
        -11    1    4    4    0    0 -0.28604064377E-01 -0.35471075991E+02  0.90087715009E+01  0.36597213205E+02  0.51100000000E-03 0. -1.
         12    1    4    4    0    0 -0.43815566555E+01 -0.69239896800E+01 -0.28681436862E+01  0.86813547341E+01  0.00000000000E+00 0. -1.
</event>
<event>
 8    1  0.2512298E-006  0.9118800E+02  0.7816164E-02  0.1184000E+00
        -11   -1    0    0    0    0  0.00000000000E+00  0.00000000000E+00  0.45593999997E+02  0.45594000000E+02  0.51100000000E-03 0. -1.
         11   -1    0    0    0    0 -0.00000000000E+00 -0.00000000000E+00 -0.45593999997E+02  0.45594000000E+02  0.51100000000E-03 0.  1.
         23    2    1    2    0    0  0.00000000000E+00  0.00000000000E+00  0.00000000000E+00  0.91188000000E+02  0.91188000000E+02 0.  0.
    9900012    2    3    3    0    0 -0.11054989138E+02 -0.11054532412E+01  0.35104770534E+02  0.54367085753E+02  0.40000003592E+02 0.  0.
        -12    1    3    3    0    0  0.11054989138E+02  0.11054532412E+01 -0.35104770534E+02  0.36820914247E+02  0.00000000000E+00 0.  1.
         11    1    4    4    0    0 -0.11287349618E+02 -0.56259464684E+01  0.31452463872E+02  0.33886767609E+02  0.51100000000E-03 0. -1.
        -11    1    4    4    0    0 -0.84603421195E+01 -0.33519855872E+00 -0.24348065763E+01  0.88101095440E+01  0.51100000000E-03 0.  1.
        -12    1    4    4    0    0  0.86927026000E+01  0.48556917859E+01  0.60871132382E+01  0.11670208601E+02  0.00000000000E+00 0.  1.
</event>
<event>
 8    1  0.2512298E-006  0.9118800E+02  0.7816164E-02  0.1184000E+00
        -11   -1    0    0    0    0  0.00000000000E+00  0.00000000000E+00  0.45593999997E+02  0.45594000000E+02  0.51100000000E-03 0.  1.
         11   -1    0    0    0    0 -0.00000000000E+00 -0.00000000000E+00 -0.45593999997E+02  0.45594000000E+02  0.51100000000E-03 0. -1.
         23    2    1    2    0    0  0.00000000000E+00  0.00000000000E+00  0.44408920985E-15  0.91188000000E+02  0.91188000000E+02 0.  0.
    9900012    2    3    3    0    0 -0.17005830712E+02 -0.32446320118E+02  0.37173002321E+01  0.54367078116E+02  0.39999986181E+02 0.  0.
        -12    1    3    3    0    0  0.17005830712E+02  0.32446320118E+02 -0.37173002321E+01  0.36820921884E+02  0.00000000000E+00 0.  1.
         11    1    4    4    0    0  0.78092893914E+01 -0.18491591767E+02 -0.53812703083E+01  0.20781771755E+02  0.51100000000E-03 0.  1.
        -11    1    4    4    0    0  0.26503029257E+00 -0.31040333260E+01 -0.24053181732E+01  0.39358378677E+01  0.51100000000E-03 0. -1.
        -12    1    4    4    0    0 -0.25080150396E+02 -0.10850695024E+02  0.11503888714E+02  0.29649468493E+02  0.00000000000E+00 0.  1.
</event>
<event>
 8    1  0.2512298E-006  0.9118800E+02  0.7816164E-02  0.1184000E+00
        -11   -1    0    0    0    0  0.00000000000E+00  0.00000000000E+00  0.45593999997E+02  0.45594000000E+02  0.51100000000E-03 0.  1.
         11   -1    0    0    0    0 -0.00000000000E+00 -0.00000000000E+00 -0.45593999997E+02  0.45594000000E+02  0.51100000000E-03 0. -1.
         23    2    1    2    0    0  0.00000000000E+00  0.00000000000E+00 -0.88817841970E-15  0.91188000000E+02  0.91188000000E+02 0.  0.
    9900012    2    3    3    0    0  0.17126792758E+02 -0.32407542897E+02 -0.34935112146E+01  0.54367075414E+02  0.39999980021E+02 0.  0.
         12    1    3    3    0    0 -0.17126792758E+02  0.32407542897E+02  0.34935112146E+01  0.36820924586E+02  0.00000000000E+00 0. -1.
         11    1    4    4    0    0 -0.89379054178E+01 -0.30598275488E+01  0.67701325201E+01  0.11622538126E+02  0.51100000000E-03 0. -1.
        -11    1    4    4    0    0  0.81129135028E+01 -0.13467067572E+01 -0.16879404496E+01  0.83953634714E+01  0.51100000000E-03 0.  1.
         12    1    4    4    0    0  0.17951784673E+02 -0.28001008591E+02 -0.85757032851E+01  0.34349173817E+02  0.00000000000E+00 0. -1.
</event>
<event>
 8    1  0.2512298E-006  0.9118800E+02  0.7816164E-02  0.1184000E+00
        -11   -1    0    0    0    0  0.00000000000E+00  0.00000000000E+00  0.45593999997E+02  0.45594000000E+02  0.51100000000E-03 0.  1.
         11   -1    0    0    0    0 -0.00000000000E+00 -0.00000000000E+00 -0.45593999997E+02  0.45594000000E+02  0.51100000000E-03 0. -1.
         23    2    1    2    0    0  0.00000000000E+00  0.35527136788E-14  0.00000000000E+00  0.91188000000E+02  0.91188000000E+02 0.  0.
    9900012    2    3    3    0    0 -0.26670544495E+02 -0.17159710425E+02  0.18708464871E+02  0.54367078456E+02  0.39999986956E+02 0.  0.
         12    1    3    3    0    0  0.26670544495E+02  0.17159710425E+02 -0.18708464871E+02  0.36820921544E+02  0.00000000000E+00 0. -1.
         11    1    4    4    0    0 -0.35840031976E+01 -0.20076994151E+02  0.22015199174E+02  0.30009994468E+02  0.51100000000E-03 0. -1.
        -11    1    4    4    0    0 -0.21109682799E+02  0.45178199022E+01 -0.29204902850E+01  0.21784367521E+02  0.51100000000E-03 0.  1.
         12    1    4    4    0    0 -0.19768584980E+01 -0.16005361770E+01 -0.38624401828E+00  0.25727164665E+01  0.00000000000E+00 0. -1.
</event>
<event>
 8    1  0.2512298E-006  0.9118800E+02  0.7816164E-02  0.1184000E+00
        -11   -1    0    0    0    0  0.00000000000E+00  0.00000000000E+00  0.45593999997E+02  0.45594000000E+02  0.51100000000E-03 0. -1.
         11   -1    0    0    0    0 -0.00000000000E+00 -0.00000000000E+00 -0.45593999997E+02  0.45594000000E+02  0.51100000000E-03 0.  1.
         23    2    1    2    0    0  0.00000000000E+00 -0.17763568394E-14  0.00000000000E+00  0.91188000000E+02  0.91188000000E+02 0.  0.
    9900012    2    3    3    0    0 -0.17147181487E+02  0.14450632492E+02 -0.29205015150E+02  0.54367088519E+02  0.40000009898E+02 0.  0.
         12    1    3    3    0    0  0.17147181487E+02 -0.14450632492E+02  0.29205015150E+02  0.36820911481E+02  0.00000000000E+00 0. -1.
         11    1    4    4    0    0 -0.66715769743E+00 -0.28456052950E+01 -0.64173435199E+01  0.70515861337E+01  0.51100000000E-03 0. -1.
        -11    1    4    4    0    0 -0.88930428549E+01  0.12575519413E+02 -0.31356563873E+02  0.34935139873E+02  0.51100000000E-03 0.  1.
         12    1    4    4    0    0 -0.75869809349E+01  0.47207183734E+01  0.85688922436E+01  0.12380362513E+02  0.00000000000E+00 0. -1.
</event>
<event>
 8    1  0.2512298E-006  0.9118800E+02  0.7816164E-02  0.1184000E+00
        -11   -1    0    0    0    0  0.00000000000E+00  0.00000000000E+00  0.45593999997E+02  0.45594000000E+02  0.51100000000E-03 0.  1.
         11   -1    0    0    0    0 -0.00000000000E+00 -0.00000000000E+00 -0.45593999997E+02  0.45594000000E+02  0.51100000000E-03 0. -1.
         23    2    1    2    0    0 -0.17763568394E-14  0.00000000000E+00  0.00000000000E+00  0.91188000000E+02  0.91188000000E+02 0.  0.
    9900012    2    3    3    0    0  0.86033656790E+01 -0.26764729279E+02 -0.23778406239E+02  0.54367065226E+02  0.39999956795E+02 0.  0.
        -12    1    3    3    0    0 -0.86033656790E+01  0.26764729279E+02  0.23778406239E+02  0.36820934774E+02  0.00000000000E+00 0.  1.
         11    1    4    4    0    0  0.24421564028E+01 -0.49686905290E+01 -0.79781761144E+00  0.55936148125E+01  0.51100000000E-03 0. -1.
        -11    1    4    4    0    0 -0.31095693552E+01 -0.29766786365E+02 -0.20558750279E+02  0.36309684732E+02  0.51100000000E-03 0.  1.
        -12    1    4    4    0    0  0.92707786313E+01  0.79707476146E+01 -0.24218383484E+01  0.12463765681E+02  0.00000000000E+00 0.  1.
</event>
<event>
 8    1  0.2512298E-006  0.9118800E+02  0.7816164E-02  0.1184000E+00
        -11   -1    0    0    0    0  0.00000000000E+00  0.00000000000E+00  0.45593999997E+02  0.45594000000E+02  0.51100000000E-03 0.  1.
         11   -1    0    0    0    0 -0.00000000000E+00 -0.00000000000E+00 -0.45593999997E+02  0.45594000000E+02  0.51100000000E-03 0. -1.
         23    2    1    2    0    0  0.00000000000E+00  0.00000000000E+00 -0.35527136788E-14  0.91188000000E+02  0.91188000000E+02 0.  0.
    9900012    2    3    3    0    0 -0.14265512113E+02  0.16996491765E+02 -0.29383561735E+02  0.54367091967E+02  0.40000017756E+02 0.  0.
        -12    1    3    3    0    0  0.14265512113E+02 -0.16996491765E+02  0.29383561735E+02  0.36820908033E+02  0.00000000000E+00 0.  1.
         11    1    4    4    0    0 -0.59155088880E+01  0.40382010452E+01 -0.18161298931E+02  0.19522630259E+02  0.51100000000E-03 0. -1.
        -11    1    4    4    0    0 -0.18774258395E+02  0.60618129732E+01 -0.10440701477E+02  0.22320990175E+02  0.51100000000E-03 0.  1.
        -12    1    4    4    0    0  0.10424255169E+02  0.68964777463E+01 -0.78156132651E+00  0.12523471533E+02  0.00000000000E+00 0.  1.
</event>
<event>
 8    1  0.2512298E-006  0.9118800E+02  0.7816164E-02  0.1184000E+00
        -11   -1    0    0    0    0  0.00000000000E+00  0.00000000000E+00  0.45593999997E+02  0.45594000000E+02  0.51100000000E-03 0.  1.
         11   -1    0    0    0    0 -0.00000000000E+00 -0.00000000000E+00 -0.45593999997E+02  0.45594000000E+02  0.51100000000E-03 0. -1.
         23    2    1    2    0    0  0.44408920985E-15  0.00000000000E+00  0.00000000000E+00  0.91188000000E+02  0.91188000000E+02 0.  0.
    9900012    2    3    3    0    0 -0.97311261201E+00 -0.58943436432E+01 -0.36333029809E+02  0.54367091670E+02  0.40000017079E+02 0.  0.
        -12    1    3    3    0    0  0.97311261201E+00  0.58943436432E+01  0.36333029809E+02  0.36820908330E+02  0.00000000000E+00 0.  1.
         11    1    4    4    0    0  0.76779813738E+01 -0.94603533895E+01  0.12480382587E+01  0.12247746078E+02  0.51100000000E-03 0. -1.
        -11    1    4    4    0    0  0.50576265139E+00  0.66415983147E+01 -0.55707160667E+01  0.86832886506E+01  0.51100000000E-03 0.  1.
         12    1    4    4    0    0 -0.91568566372E+01 -0.30755885684E+01 -0.32010352001E+02  0.33436056941E+02  0.00000000000E+00 0. -1.
</event>
<event>
 8    1  0.2512298E-006  0.9118800E+02  0.7816164E-02  0.1184000E+00
        -11   -1    0    0    0    0  0.00000000000E+00  0.00000000000E+00  0.45593999997E+02  0.45594000000E+02  0.51100000000E-03 0.  1.
         11   -1    0    0    0    0 -0.00000000000E+00 -0.00000000000E+00 -0.45593999997E+02  0.45594000000E+02  0.51100000000E-03 0. -1.
         23    2    1    2    0    0  0.00000000000E+00  0.35527136788E-14  0.00000000000E+00  0.91188000000E+02  0.91188000000E+02 0.  0.
    9900012    2    3    3    0    0 -0.16584660155E+02  0.27715274823E+02 -0.17680289274E+02  0.54367081492E+02  0.39999993878E+02 0.  0.
        -12    1    3    3    0    0  0.16584660155E+02 -0.27715274823E+02  0.17680289274E+02  0.36820918508E+02  0.00000000000E+00 0.  1.
         11    1    4    4    0    0 -0.13309989737E+02  0.50914476185E+01 -0.76950285240E+01  0.16195435465E+02  0.51100000000E-03 0. -1.
        -11    1    4    4    0    0 -0.75155807406E+01  0.10646621720E+01  0.70573744107E+01  0.10364554657E+02  0.51100000000E-03 0.  1.
        -12    1    4    4    0    0  0.42409103234E+01  0.21559165032E+02 -0.17042635160E+02  0.27807091370E+02  0.00000000000E+00 0.  1.
</event>
<event>
 8    1  0.2512298E-006  0.9118800E+02  0.7816164E-02  0.1184000E+00
        -11   -1    0    0    0    0  0.00000000000E+00  0.00000000000E+00  0.45593999997E+02  0.45594000000E+02  0.51100000000E-03 0.  1.
         11   -1    0    0    0    0 -0.00000000000E+00 -0.00000000000E+00 -0.45593999997E+02  0.45594000000E+02  0.51100000000E-03 0. -1.
         23    2    1    2    0    0  0.88817841970E-15  0.00000000000E+00  0.00000000000E+00  0.91188000000E+02  0.91188000000E+02 0.  0.
    9900012    2    3    3    0    0  0.26370547026E+01  0.28846507944E+01  0.36612890183E+02  0.54367095676E+02  0.40000026212E+02 0.  0.
         12    1    3    3    0    0 -0.26370547026E+01 -0.28846507944E+01 -0.36612890183E+02  0.36820904324E+02  0.00000000000E+00 0. -1.
         11    1    4    4    0    0  0.11279859866E+01 -0.46250156319E+01 -0.62728804132E+01  0.78747794204E+01  0.51100000000E-03 0. -1.
        -11    1    4    4    0    0 -0.55838997261E+01  0.41143737312E+01  0.73866767920E+01  0.10132670015E+02  0.51100000000E-03 0.  1.
        -12    1    4    4    0    0  0.70929684421E+01  0.33952926951E+01  0.35499093804E+02  0.36359646240E+02  0.00000000000E+00 0.  1.
</event>
<event>
 8    1  0.2512298E-006  0.9118800E+02  0.7816164E-02  0.1184000E+00
        -11   -1    0    0    0    0  0.00000000000E+00  0.00000000000E+00  0.45593999997E+02  0.45594000000E+02  0.51100000000E-03 0.  1.
         11   -1    0    0    0    0 -0.00000000000E+00 -0.00000000000E+00 -0.45593999997E+02  0.45594000000E+02  0.51100000000E-03 0. -1.
         23    2    1    2    0    0  0.35527136788E-14  0.00000000000E+00 -0.26645352591E-14  0.91188000000E+02  0.91188000000E+02 0.  0.
    9900012    2    3    3    0    0  0.14001323204E+02  0.33528265459E+02 -0.59661962459E+01  0.54367120953E+02  0.40000083835E+02 0.  0.
        -12    1    3    3    0    0 -0.14001323204E+02 -0.33528265459E+02  0.59661962459E+01  0.36820879047E+02  0.00000000000E+00 0.  1.
         11    1    4    4    0    0  0.53529880743E+01  0.31833746183E+02 -0.17785455375E+02  0.36855994092E+02  0.51100000000E-03 0. -1.
        -11    1    4    4    0    0  0.26708314203E+01  0.32025949869E+01  0.10371705555E+02  0.11178650702E+02  0.51100000000E-03 0.  1.
         12    1    4    4    0    0  0.59775037098E+01 -0.15080757106E+01  0.14475535739E+01  0.63324761586E+01  0.00000000000E+00 0. -1.
</event>
<event>
 8    1  0.2512298E-006  0.9118800E+02  0.7816164E-02  0.1184000E+00
        -11   -1    0    0    0    0  0.00000000000E+00  0.00000000000E+00  0.45593999997E+02  0.45594000000E+02  0.51100000000E-03 0.  1.
         11   -1    0    0    0    0 -0.00000000000E+00 -0.00000000000E+00 -0.45593999997E+02  0.45594000000E+02  0.51100000000E-03 0. -1.
         23    2    1    2    0    0 -0.17763568394E-14 -0.35527136788E-14 -0.35527136788E-14  0.91188000000E+02  0.91188000000E+02 0.  0.
    9900012    2    3    3    0    0 -0.94221243079E+01 -0.18630041721E+02 -0.30330260181E+02  0.54367087957E+02  0.40000008616E+02 0.  0.
        -12    1    3    3    0    0  0.94221243079E+01  0.18630041721E+02  0.30330260181E+02  0.36820912043E+02  0.00000000000E+00 0.  1.
         11    1    4    4    0    0  0.15231066194E+01 -0.21342077291E+02 -0.21206723160E+02  0.30125225714E+02  0.51100000000E-03 0. -1.
        -11    1    4    4    0    0  0.43839518482E+01  0.25846567542E+01 -0.71636966502E+01  0.87873792624E+01  0.51100000000E-03 0.  1.
        -12    1    4    4    0    0 -0.15329182775E+02  0.12737881529E+00 -0.19598403708E+01  0.15454482981E+02  0.00000000000E+00 0.  1.
</event>
<event>
 8    1  0.2512298E-006  0.9118800E+02  0.7816164E-02  0.1184000E+00
        -11   -1    0    0    0    0  0.00000000000E+00  0.00000000000E+00  0.45593999997E+02  0.45594000000E+02  0.51100000000E-03 0.  1.
         11   -1    0    0    0    0 -0.00000000000E+00 -0.00000000000E+00 -0.45593999997E+02  0.45594000000E+02  0.51100000000E-03 0. -1.
         23    2    1    2    0    0  0.35527136788E-14 -0.17763568394E-14 -0.35527136788E-14  0.91188000000E+02  0.91188000000E+02 0.  0.
    9900012    2    3    3    0    0  0.21764447053E+02 -0.10190684548E+02 -0.27896932395E+02  0.54367081433E+02  0.39999993742E+02 0.  0.
         12    1    3    3    0    0 -0.21764447053E+02  0.10190684548E+02  0.27896932395E+02  0.36820918567E+02  0.00000000000E+00 0. -1.
         11    1    4    4    0    0 -0.43887235393E+00 -0.10559699005E+02 -0.27004765545E+02  0.28999262308E+02  0.51100000000E-03 0. -1.
        -11    1    4    4    0    0  0.17723735647E+02 -0.26444457364E+01  0.36790152709E+01  0.18293688861E+02  0.51100000000E-03 0.  1.
         12    1    4    4    0    0  0.44795837601E+01  0.30134601935E+01 -0.45711821216E+01  0.70741302639E+01  0.00000000000E+00 0. -1.
</event>
<event>
 8    1  0.2512298E-006  0.9118800E+02  0.7816164E-02  0.1184000E+00
        -11   -1    0    0    0    0  0.00000000000E+00  0.00000000000E+00  0.45593999997E+02  0.45594000000E+02  0.51100000000E-03 0.  1.
         11   -1    0    0    0    0 -0.00000000000E+00 -0.00000000000E+00 -0.45593999997E+02  0.45594000000E+02  0.51100000000E-03 0. -1.
         23    2    1    2    0    0  0.22204460493E-15 -0.35527136788E-14  0.00000000000E+00  0.91188000000E+02  0.91188000000E+02 0.  0.
    9900012    2    3    3    0    0 -0.19191613090E+01 -0.25349391172E+02 -0.26636517388E+02  0.54367097357E+02  0.40000030044E+02 0.  0.
        -12    1    3    3    0    0  0.19191613090E+01  0.25349391172E+02  0.26636517388E+02  0.36820902643E+02  0.00000000000E+00 0.  1.
         11    1    4    4    0    0 -0.15422860725E+01 -0.18756522119E+02  0.28963415219E+01  0.19041390779E+02  0.51100000000E-03 0. -1.
        -11    1    4    4    0    0 -0.24019571126E+01  0.72986791674E+00  0.17973241991E+01  0.30874714062E+01  0.51100000000E-03 0.  1.
         12    1    4    4    0    0  0.20250818761E+01 -0.73227369697E+01 -0.31330183109E+02  0.32238235172E+02  0.00000000000E+00 0. -1.
</event>
<event>
 8    1  0.2512298E-006  0.9118800E+02  0.7816164E-02  0.1184000E+00
        -11   -1    0    0    0    0  0.00000000000E+00  0.00000000000E+00  0.45593999997E+02  0.45594000000E+02  0.51100000000E-03 0.  1.
         11   -1    0    0    0    0 -0.00000000000E+00 -0.00000000000E+00 -0.45593999997E+02  0.45594000000E+02  0.51100000000E-03 0. -1.
         23    2    1    2    0    0  0.17763568394E-14  0.00000000000E+00  0.00000000000E+00  0.91188000000E+02  0.91188000000E+02 0.  0.
    9900012    2    3    3    0    0  0.10161077409E+02 -0.13888914247E+02  0.32552019283E+02  0.54367035965E+02  0.39999890089E+02 0.  0.
         12    1    3    3    0    0 -0.10161077409E+02  0.13888914247E+02 -0.32552019283E+02  0.36820964035E+02  0.00000000000E+00 0. -1.
         11    1    4    4    0    0  0.83080913096E+00 -0.14100184003E+02  0.47821908370E+01  0.14912235989E+02  0.51100000000E-03 0.  1.
        -11    1    4    4    0    0 -0.83139757952E+01 -0.40464969375E+01  0.13516428914E+02  0.16376513116E+02  0.51100000000E-03 0. -1.
         12    1    4    4    0    0  0.17644244073E+02  0.42577666941E+01  0.14253399532E+02  0.23078286859E+02  0.00000000000E+00 0. -1.
</event>
<event>
 8    1  0.2512298E-006  0.9118800E+02  0.7816164E-02  0.1184000E+00
        -11   -1    0    0    0    0  0.00000000000E+00  0.00000000000E+00  0.45593999997E+02  0.45594000000E+02  0.51100000000E-03 0. -1.
         11   -1    0    0    0    0 -0.00000000000E+00 -0.00000000000E+00 -0.45593999997E+02  0.45594000000E+02  0.51100000000E-03 0.  1.
         23    2    1    2    0    0  0.00000000000E+00  0.00000000000E+00  0.35527136788E-14  0.91188000000E+02  0.91188000000E+02 0.  0.
    9900012    2    3    3    0    0  0.13377208044E+02 -0.27556577452E+02 -0.20431971233E+02  0.54367080615E+02  0.39999991877E+02 0.  0.
         12    1    3    3    0    0 -0.13377208044E+02  0.27556577452E+02  0.20431971233E+02  0.36820919385E+02  0.00000000000E+00 0. -1.
         11    1    4    4    0    0  0.14630414765E+02 -0.22585803342E+02 -0.96457588782E+00  0.26927642966E+02  0.51100000000E-03 0. -1.
        -11    1    4    4    0    0  0.50868396766E+01 -0.99709890027E+01 -0.12444722220E+02  0.16738209910E+02  0.51100000000E-03 0.  1.
         12    1    4    4    0    0 -0.63400463977E+01  0.50002148925E+01 -0.70226731248E+01  0.10701227739E+02  0.00000000000E+00 0. -1.
</event>
<event>
 8    1  0.2512298E-006  0.9118800E+02  0.7816164E-02  0.1184000E+00
        -11   -1    0    0    0    0  0.00000000000E+00  0.00000000000E+00  0.45593999997E+02  0.45594000000E+02  0.51100000000E-03 0.  1.
         11   -1    0    0    0    0 -0.00000000000E+00 -0.00000000000E+00 -0.45593999997E+02  0.45594000000E+02  0.51100000000E-03 0. -1.
         23    2    1    2    0    0 -0.17763568394E-14  0.88817841970E-15  0.00000000000E+00  0.91188000000E+02  0.91188000000E+02 0.  0.
    9900012    2    3    3    0    0 -0.90969378112E+01  0.76461337313E+01  0.34850574820E+02  0.54367079264E+02  0.39999988797E+02 0.  0.
         12    1    3    3    0    0  0.90969378112E+01 -0.76461337313E+01 -0.34850574820E+02  0.36820920736E+02  0.00000000000E+00 0. -1.
         11    1    4    4    0    0 -0.15886020350E+02  0.10858542519E+02  0.61832802168E+01  0.20211544787E+02  0.51100000000E-03 0. -1.
        -11    1    4    4    0    0 -0.13231072738E+01  0.55475493891E+01  0.47432536998E+01  0.74178415326E+01  0.51100000000E-03 0.  1.
        -12    1    4    4    0    0  0.81121898122E+01 -0.87599581766E+01  0.23924040904E+02  0.26737692944E+02  0.00000000000E+00 0.  1.
</event>
<event>
 8    1  0.2512298E-006  0.9118800E+02  0.7816164E-02  0.1184000E+00
        -11   -1    0    0    0    0  0.00000000000E+00  0.00000000000E+00  0.45593999997E+02  0.45594000000E+02  0.51100000000E-03 0.  1.
         11   -1    0    0    0    0 -0.00000000000E+00 -0.00000000000E+00 -0.45593999997E+02  0.45594000000E+02  0.51100000000E-03 0. -1.
         23    2    1    2    0    0 -0.44408920985E-15  0.00000000000E+00  0.35527136788E-14  0.91188000000E+02  0.91188000000E+02 0.  0.
    9900012    2    3    3    0    0 -0.15662306462E+01  0.26518593122E+02 -0.25496871995E+02  0.54367090979E+02  0.40000015505E+02 0.  0.
        -12    1    3    3    0    0  0.15662306462E+01 -0.26518593122E+02  0.25496871995E+02  0.36820909021E+02  0.00000000000E+00 0.  1.
         11    1    4    4    0    0  0.49876829988E+01  0.20867171625E+02 -0.21932170156E+02  0.30681198173E+02  0.51100000000E-03 0. -1.
        -11    1    4    4    0    0 -0.40162955041E+01  0.71118388308E+01  0.81932754842E+01  0.11568865310E+02  0.51100000000E-03 0.  1.
        -12    1    4    4    0    0 -0.25376181410E+01 -0.14604173340E+01 -0.11757977323E+02  0.12117027496E+02  0.00000000000E+00 0.  1.
</event>
<event>
 8    1  0.2512298E-006  0.9118800E+02  0.7816164E-02  0.1184000E+00
        -11   -1    0    0    0    0  0.00000000000E+00  0.00000000000E+00  0.45593999997E+02  0.45594000000E+02  0.51100000000E-03 0.  1.
         11   -1    0    0    0    0 -0.00000000000E+00 -0.00000000000E+00 -0.45593999997E+02  0.45594000000E+02  0.51100000000E-03 0. -1.
         23    2    1    2    0    0 -0.17763568394E-14  0.00000000000E+00  0.00000000000E+00  0.91188000000E+02  0.91188000000E+02 0.  0.
    9900012    2    3    3    0    0 -0.10649693194E+02 -0.10183397394E+02  0.33744070173E+02  0.54367084484E+02  0.40000000699E+02 0.  0.
         12    1    3    3    0    0  0.10649693194E+02  0.10183397394E+02 -0.33744070173E+02  0.36820915516E+02  0.00000000000E+00 0. -1.
         11    1    4    4    0    0 -0.63520204565E+01  0.11938891113E+02  0.16779597013E+02  0.21550873789E+02  0.51100000000E-03 0. -1.
        -11    1    4    4    0    0 -0.28555736896E+01 -0.19081684448E+02  0.20350046193E+02  0.28042634733E+02  0.51100000000E-03 0.  1.
         12    1    4    4    0    0 -0.14420990474E+01 -0.30406040584E+01 -0.33855730334E+01  0.47735759622E+01  0.00000000000E+00 0. -1.
</event>
<event>
 8    1  0.2512298E-006  0.9118800E+02  0.7816164E-02  0.1184000E+00
        -11   -1    0    0    0    0  0.00000000000E+00  0.00000000000E+00  0.45593999997E+02  0.45594000000E+02  0.51100000000E-03 0. -1.
         11   -1    0    0    0    0 -0.00000000000E+00 -0.00000000000E+00 -0.45593999997E+02  0.45594000000E+02  0.51100000000E-03 0.  1.
         23    2    1    2    0    0  0.00000000000E+00  0.00000000000E+00 -0.17763568394E-14  0.91188000000E+02  0.91188000000E+02 0.  0.
    9900012    2    3    3    0    0 -0.17629277198E+02 -0.28966070944E+02  0.14351263503E+02  0.54367035257E+02  0.39999888476E+02 0.  0.
        -12    1    3    3    0    0  0.17629277198E+02  0.28966070944E+02 -0.14351263503E+02  0.36820964743E+02  0.00000000000E+00 0.  1.
         11    1    4    4    0    0 -0.42062775911E+01 -0.13147500696E+02 -0.69582322036E+01  0.15458542667E+02  0.51100000000E-03 0. -1.
        -11    1    4    4    0    0 -0.87461491662E+00  0.10133986207E+01 -0.50416617978E+01  0.52163475691E+01  0.51100000000E-03 0.  1.
        -12    1    4    4    0    0 -0.12548384690E+02 -0.16831968869E+02  0.26351157505E+02  0.33692145021E+02  0.00000000000E+00 0.  1.
</event>
<event>
 8    1  0.2512298E-006  0.9118800E+02  0.7816164E-02  0.1184000E+00
        -11   -1    0    0    0    0  0.00000000000E+00  0.00000000000E+00  0.45593999997E+02  0.45594000000E+02  0.51100000000E-03 0. -1.
         11   -1    0    0    0    0 -0.00000000000E+00 -0.00000000000E+00 -0.45593999997E+02  0.45594000000E+02  0.51100000000E-03 0.  1.
         23    2    1    2    0    0 -0.44408920985E-15 -0.35527136788E-14  0.00000000000E+00  0.91188000000E+02  0.91188000000E+02 0.  0.
    9900012    2    3    3    0    0 -0.20551705323E+01  0.23045512843E+02  0.28643661898E+02  0.54367098937E+02  0.40000033648E+02 0.  0.
        -12    1    3    3    0    0  0.20551705323E+01 -0.23045512843E+02 -0.28643661898E+02  0.36820901063E+02  0.00000000000E+00 0.  1.
         11    1    4    4    0    0 -0.85545609375E+01  0.25131322866E+02  0.95303814937E+01  0.28206241747E+02  0.51100000000E-03 0. -1.
        -11    1    4    4    0    0 -0.51636366665E+01  0.15005261877E+01  0.38185521000E+01  0.65951544989E+01  0.51100000000E-03 0.  1.
        -12    1    4    4    0    0  0.11663027072E+02 -0.35863362106E+01  0.15294728305E+02  0.19565702691E+02  0.00000000000E+00 0.  1.
</event>
<event>
 8    1  0.2512298E-006  0.9118800E+02  0.7816164E-02  0.1184000E+00
        -11   -1    0    0    0    0  0.00000000000E+00  0.00000000000E+00  0.45593999997E+02  0.45594000000E+02  0.51100000000E-03 0.  1.
         11   -1    0    0    0    0 -0.00000000000E+00 -0.00000000000E+00 -0.45593999997E+02  0.45594000000E+02  0.51100000000E-03 0. -1.
         23    2    1    2    0    0  0.33306690739E-15  0.00000000000E+00  0.00000000000E+00  0.91188000000E+02  0.91188000000E+02 0.  0.
    9900012    2    3    3    0    0 -0.41352903097E+00  0.60192031716E+01 -0.36323255564E+02  0.54367072420E+02  0.39999973196E+02 0.  0.
        -12    1    3    3    0    0  0.41352903097E+00 -0.60192031716E+01  0.36323255564E+02  0.36820927580E+02  0.00000000000E+00 0.  1.
         11    1    4    4    0    0  0.36653917924E+01 -0.50615384066E+00 -0.33170379837E+02  0.33376120019E+02  0.51100000000E-03 0. -1.
        -11    1    4    4    0    0  0.20046101450E+00 -0.57998221108E+01 -0.51904884606E+01  0.77858391877E+01  0.51100000000E-03 0.  1.
        -12    1    4    4    0    0 -0.42793818379E+01  0.12325179123E+02  0.20376127337E+01  0.13205113214E+02  0.00000000000E+00 0.  1.
</event>
<event>
 8    1  0.2512298E-006  0.9118800E+02  0.7816164E-02  0.1184000E+00
        -11   -1    0    0    0    0  0.00000000000E+00  0.00000000000E+00  0.45593999997E+02  0.45594000000E+02  0.51100000000E-03 0.  1.
         11   -1    0    0    0    0 -0.00000000000E+00 -0.00000000000E+00 -0.45593999997E+02  0.45594000000E+02  0.51100000000E-03 0. -1.
         23    2    1    2    0    0  0.00000000000E+00 -0.11102230246E-15 -0.35527136788E-14  0.91188000000E+02  0.91188000000E+02 0.  0.
    9900012    2    3    3    0    0 -0.25741271899E+02  0.52704359751E+00 -0.26322825931E+02  0.54367054616E+02  0.39999932608E+02 0.  0.
        -12    1    3    3    0    0  0.25741271899E+02 -0.52704359751E+00  0.26322825931E+02  0.36820945384E+02  0.00000000000E+00 0.  1.
         11    1    4    4    0    0 -0.22791088052E+02 -0.81151251722E+01 -0.23131986568E+02  0.33472044366E+02  0.51100000000E-03 0. -1.
        -11    1    4    4    0    0 -0.40947402659E+01  0.14271500024E+02 -0.15936360657E+01  0.14932591434E+02  0.51100000000E-03 0.  1.
         12    1    4    4    0    0  0.11445564188E+01 -0.56293312540E+01 -0.15972032974E+01  0.59624188159E+01  0.00000000000E+00 0. -1.
</event>
<event>
 8    1  0.2512298E-006  0.9118800E+02  0.7816164E-02  0.1184000E+00
        -11   -1    0    0    0    0  0.00000000000E+00  0.00000000000E+00  0.45593999997E+02  0.45594000000E+02  0.51100000000E-03 0.  1.
         11   -1    0    0    0    0 -0.00000000000E+00 -0.00000000000E+00 -0.45593999997E+02  0.45594000000E+02  0.51100000000E-03 0. -1.
         23    2    1    2    0    0 -0.35527136788E-14  0.00000000000E+00 -0.35527136788E-14  0.91188000000E+02  0.91188000000E+02 0.  0.
    9900012    2    3    3    0    0 -0.26364359657E+02 -0.17555007264E+02 -0.18775575763E+02  0.54367082231E+02  0.39999995561E+02 0.  0.
        -12    1    3    3    0    0  0.26364359657E+02  0.17555007264E+02  0.18775575763E+02  0.36820917769E+02  0.00000000000E+00 0.  1.
         11    1    4    4    0    0 -0.91179501665E+01 -0.21313567782E+02 -0.59376164193E+01  0.23930325444E+02  0.51100000000E-03 0. -1.
        -11    1    4    4    0    0 -0.16301933422E+02  0.31009655639E+01  0.93047046329E+00  0.16620312761E+02  0.51100000000E-03 0.  1.
         12    1    4    4    0    0 -0.94447606844E+00  0.65759495431E+00 -0.13768429807E+02  0.13816444026E+02  0.00000000000E+00 0. -1.
</event>
<event>
 8    1  0.2512298E-006  0.9118800E+02  0.7816164E-02  0.1184000E+00
        -11   -1    0    0    0    0  0.00000000000E+00  0.00000000000E+00  0.45593999997E+02  0.45594000000E+02  0.51100000000E-03 0.  1.
         11   -1    0    0    0    0 -0.00000000000E+00 -0.00000000000E+00 -0.45593999997E+02  0.45594000000E+02  0.51100000000E-03 0. -1.
         23    2    1    2    0    0  0.13322676296E-14  0.88817841970E-15  0.00000000000E+00  0.91188000000E+02  0.91188000000E+02 0.  0.
    9900012    2    3    3    0    0  0.34320729857E+01 -0.48967782103E+01  0.36332156208E+02  0.54367039440E+02  0.39999898012E+02 0.  0.
         12    1    3    3    0    0 -0.34320729857E+01  0.48967782103E+01 -0.36332156208E+02  0.36820960560E+02  0.00000000000E+00 0. -1.
         11    1    4    4    0    0  0.21385354710E+01  0.14262683925E+02  0.10221564579E+02  0.17677043571E+02  0.51100000000E-03 0. -1.
        -11    1    4    4    0    0  0.76086984404E+01 -0.91398862013E+01  0.59257858009E+01  0.13287014313E+02  0.51100000000E-03 0.  1.
         12    1    4    4    0    0 -0.63151609257E+01 -0.10019575934E+02  0.20184805828E+02  0.23402981556E+02  0.00000000000E+00 0. -1.
</event>
<event>
 8    1  0.2512298E-006  0.9118800E+02  0.7816164E-02  0.1184000E+00
        -11   -1    0    0    0    0  0.00000000000E+00  0.00000000000E+00  0.45593999997E+02  0.45594000000E+02  0.51100000000E-03 0.  1.
         11   -1    0    0    0    0 -0.00000000000E+00 -0.00000000000E+00 -0.45593999997E+02  0.45594000000E+02  0.51100000000E-03 0. -1.
         23    2    1    2    0    0  0.00000000000E+00  0.17763568394E-14  0.00000000000E+00  0.91188000000E+02  0.91188000000E+02 0.  0.
    9900012    2    3    3    0    0 -0.28061544982E+02  0.15737079955E+02 -0.17907376846E+02  0.54367080160E+02  0.39999990842E+02 0.  0.
        -12    1    3    3    0    0  0.28061544982E+02 -0.15737079955E+02  0.17907376846E+02  0.36820919840E+02  0.00000000000E+00 0.  1.
         11    1    4    4    0    0 -0.14428697240E+01 -0.83916663026E+00 -0.12416588606E+01  0.20803342667E+01  0.51100000000E-03 0. -1.
        -11    1    4    4    0    0  0.98827893723E+01  0.17929003825E+01 -0.49619479549E+01  0.11202898970E+02  0.51100000000E-03 0.  1.
         12    1    4    4    0    0 -0.36501464631E+02  0.14783346203E+02 -0.11703770031E+02  0.41083846924E+02  0.00000000000E+00 0. -1.
</event>
<event>
 8    1  0.2512298E-006  0.9118800E+02  0.7816164E-02  0.1184000E+00
        -11   -1    0    0    0    0  0.00000000000E+00  0.00000000000E+00  0.45593999997E+02  0.45594000000E+02  0.51100000000E-03 0. -1.
         11   -1    0    0    0    0 -0.00000000000E+00 -0.00000000000E+00 -0.45593999997E+02  0.45594000000E+02  0.51100000000E-03 0.  1.
         23    2    1    2    0    0  0.17763568394E-14  0.00000000000E+00 -0.35527136788E-14  0.91188000000E+02  0.91188000000E+02 0.  0.
    9900012    2    3    3    0    0 -0.15564530368E+02 -0.11041322628E+02  0.31489742046E+02  0.54367227805E+02  0.40000327425E+02 0.  0.
        -12    1    3    3    0    0  0.15564530368E+02  0.11041322628E+02 -0.31489742046E+02  0.36820772195E+02  0.00000000000E+00 0.  1.
         11    1    4    4    0    0 -0.39234886365E+01 -0.10665595290E+02  0.12646025564E+02  0.17002077779E+02  0.51100000000E-03 0. -1.
        -11    1    4    4    0    0  0.28979290625E+01 -0.30604734536E+01 -0.66624679905E+01  0.78837155325E+01  0.51100000000E-03 0.  1.
         12    1    4    4    0    0 -0.14538970794E+02  0.26847461164E+01  0.25506184472E+02  0.29481434493E+02  0.00000000000E+00 0. -1.
</event>
<event>
 8    1  0.2512298E-006  0.9118800E+02  0.7816164E-02  0.1184000E+00
        -11   -1    0    0    0    0  0.00000000000E+00  0.00000000000E+00  0.45593999997E+02  0.45594000000E+02  0.51100000000E-03 0. -1.
         11   -1    0    0    0    0 -0.00000000000E+00 -0.00000000000E+00 -0.45593999997E+02  0.45594000000E+02  0.51100000000E-03 0.  1.
         23    2    1    2    0    0 -0.88817841970E-15  0.00000000000E+00  0.71054273576E-14  0.91188000000E+02  0.91188000000E+02 0.  0.
    9900012    2    3    3    0    0 -0.48981469843E+01  0.28227418530E+02 -0.23130274910E+02  0.54366965005E+02  0.39999728320E+02 0.  0.
         12    1    3    3    0    0  0.48981469843E+01 -0.28227418530E+02  0.23130274910E+02  0.36821034995E+02  0.00000000000E+00 0. -1.
         11    1    4    4    0    0  0.81799654678E+01  0.62600951815E+01 -0.17692968297E+02  0.20472951769E+02  0.51100000000E-03 0.  1.
        -11    1    4    4    0    0  0.49956103791E+01  0.27212597933E+01  0.26575537650E+01  0.62788510253E+01  0.51100000000E-03 0. -1.
        -12    1    4    4    0    0 -0.18073722831E+02  0.19246063555E+02 -0.80948603777E+01  0.27615162210E+02  0.00000000000E+00 0.  1.
</event>
<event>
 8    1  0.2512298E-006  0.9118800E+02  0.7816164E-02  0.1184000E+00
        -11   -1    0    0    0    0  0.00000000000E+00  0.00000000000E+00  0.45593999997E+02  0.45594000000E+02  0.51100000000E-03 0. -1.
         11   -1    0    0    0    0 -0.00000000000E+00 -0.00000000000E+00 -0.45593999997E+02  0.45594000000E+02  0.51100000000E-03 0.  1.
         23    2    1    2    0    0  0.00000000000E+00  0.88817841970E-15  0.00000000000E+00  0.91188000000E+02  0.91188000000E+02 0.  0.
    9900012    2    3    3    0    0 -0.30748338846E+02 -0.55905856977E+01 -0.19469593133E+02  0.54367081394E+02  0.39999993653E+02 0.  0.
         12    1    3    3    0    0  0.30748338846E+02  0.55905856977E+01  0.19469593133E+02  0.36820918606E+02  0.00000000000E+00 0. -1.
         11    1    4    4    0    0 -0.76676830668E+01  0.53055351551E+01 -0.10934175213E+02  0.14370047138E+02  0.51100000000E-03 0. -1.
        -11    1    4    4    0    0  0.65393134003E+01 -0.63337073371E+01 -0.17924836521E+01  0.92785487164E+01  0.51100000000E-03 0.  1.
         12    1    4    4    0    0 -0.29619969180E+02 -0.45624135158E+01 -0.67429342683E+01  0.30718485539E+02  0.00000000000E+00 0. -1.
</event>
<event>
 8    1  0.2512298E-006  0.9118800E+02  0.7816164E-02  0.1184000E+00
        -11   -1    0    0    0    0  0.00000000000E+00  0.00000000000E+00  0.45593999997E+02  0.45594000000E+02  0.51100000000E-03 0.  1.
         11   -1    0    0    0    0 -0.00000000000E+00 -0.00000000000E+00 -0.45593999997E+02  0.45594000000E+02  0.51100000000E-03 0. -1.
         23    2    1    2    0    0  0.00000000000E+00  0.00000000000E+00  0.00000000000E+00  0.91188000000E+02  0.91188000000E+02 0.  0.
    9900012    2    3    3    0    0 -0.34929291558E+02  0.81114945248E+01  0.83622895941E+01  0.54367086928E+02  0.40000006270E+02 0.  0.
         12    1    3    3    0    0  0.34929291558E+02 -0.81114945248E+01 -0.83622895941E+01  0.36820913072E+02  0.00000000000E+00 0. -1.
         11    1    4    4    0    0 -0.72799639316E+00 -0.92380365773E+01  0.74932078090E+01  0.11917191871E+02  0.51100000000E-03 0. -1.
        -11    1    4    4    0    0 -0.14394543373E+02  0.55239096313E+01  0.91634986845E+01  0.17935611641E+02  0.51100000000E-03 0.  1.
        -12    1    4    4    0    0 -0.19806751792E+02  0.11825621471E+02 -0.82944168994E+01  0.24514283417E+02  0.00000000000E+00 0.  1.
</event>
<event>
 8    1  0.2512298E-006  0.9118800E+02  0.7816164E-02  0.1184000E+00
        -11   -1    0    0    0    0  0.00000000000E+00  0.00000000000E+00  0.45593999997E+02  0.45594000000E+02  0.51100000000E-03 0.  1.
         11   -1    0    0    0    0 -0.00000000000E+00 -0.00000000000E+00 -0.45593999997E+02  0.45594000000E+02  0.51100000000E-03 0. -1.
         23    2    1    2    0    0  0.71054273576E-14  0.35527136788E-14 -0.17763568394E-14  0.91188000000E+02  0.91188000000E+02 0.  0.
    9900012    2    3    3    0    0  0.34703991581E+02  0.11161186440E+02  0.51806259519E+01  0.54367109195E+02  0.40000057031E+02 0.  0.
        -12    1    3    3    0    0 -0.34703991581E+02 -0.11161186440E+02 -0.51806259519E+01  0.36820890805E+02  0.00000000000E+00 0.  1.
         11    1    4    4    0    0  0.27835793384E+02 -0.29881967813E+01  0.10081979142E+02  0.29755789639E+02  0.51100000000E-03 0. -1.
        -11    1    4    4    0    0  0.86556350057E+01 -0.55633749125E+00 -0.45470779907E+01  0.97931326587E+01  0.51100000000E-03 0.  1.
        -12    1    4    4    0    0 -0.17874368087E+01  0.14705720712E+02 -0.35427519896E+00  0.14818186898E+02  0.00000000000E+00 0.  1.
</event>
<event>
 8    1  0.2512298E-006  0.9118800E+02  0.7816164E-02  0.1184000E+00
        -11   -1    0    0    0    0  0.00000000000E+00  0.00000000000E+00  0.45593999997E+02  0.45594000000E+02  0.51100000000E-03 0. -1.
         11   -1    0    0    0    0 -0.00000000000E+00 -0.00000000000E+00 -0.45593999997E+02  0.45594000000E+02  0.51100000000E-03 0.  1.
         23    2    1    2    0    0  0.00000000000E+00  0.17763568394E-14  0.19984014443E-14  0.91188000000E+02  0.91188000000E+02 0.  0.
    9900012    2    3    3    0    0 -0.36251136596E+02  0.64350938836E+01  0.48385386254E+00  0.54366953676E+02  0.39999702495E+02 0.  0.
         12    1    3    3    0    0  0.36251136596E+02 -0.64350938836E+01 -0.48385386254E+00  0.36821046324E+02  0.00000000000E+00 0. -1.
         11    1    4    4    0    0 -0.22634770766E+02  0.10091392184E+02  0.11229976677E+02  0.27208113133E+02  0.51100000000E-03 0. -1.
        -11    1    4    4    0    0 -0.15991131624E+02 -0.67584726911E+01 -0.18701566678E+01  0.17461120524E+02  0.51100000000E-03 0.  1.
         12    1    4    4    0    0  0.23747657941E+01  0.31021743905E+01 -0.88759661466E+01  0.96977200187E+01  0.00000000000E+00 0. -1.
</event>
<event>
 8    1  0.2512298E-006  0.9118800E+02  0.7816164E-02  0.1184000E+00
        -11   -1    0    0    0    0  0.00000000000E+00  0.00000000000E+00  0.45593999997E+02  0.45594000000E+02  0.51100000000E-03 0.  1.
         11   -1    0    0    0    0 -0.00000000000E+00 -0.00000000000E+00 -0.45593999997E+02  0.45594000000E+02  0.51100000000E-03 0. -1.
         23    2    1    2    0    0  0.00000000000E+00  0.35527136788E-14  0.00000000000E+00  0.91188000000E+02  0.91188000000E+02 0.  0.
    9900012    2    3    3    0    0 -0.25995482988E+02 -0.20526919602E+02  0.16082916889E+02  0.54367085022E+02  0.40000001924E+02 0.  0.
         12    1    3    3    0    0  0.25995482988E+02  0.20526919602E+02 -0.16082916889E+02  0.36820914978E+02  0.00000000000E+00 0. -1.
         11    1    4    4    0    0  0.16904128797E+01 -0.15673432084E+02  0.88321667864E+01  0.18069895944E+02  0.51100000000E-03 0. -1.
        -11    1    4    4    0    0  0.23535054323E+01  0.92739449389E+00  0.50249136975E+01  0.56257271792E+01  0.51100000000E-03 0.  1.
        -12    1    4    4    0    0 -0.30039401300E+02 -0.57808820117E+01  0.22258364054E+01  0.30671461899E+02  0.00000000000E+00 0.  1.
</event>
<event>
 8    1  0.2512298E-006  0.9118800E+02  0.7816164E-02  0.1184000E+00
        -11   -1    0    0    0    0  0.00000000000E+00  0.00000000000E+00  0.45593999997E+02  0.45594000000E+02  0.51100000000E-03 0.  1.
         11   -1    0    0    0    0 -0.00000000000E+00 -0.00000000000E+00 -0.45593999997E+02  0.45594000000E+02  0.51100000000E-03 0. -1.
         23    2    1    2    0    0 -0.35527136788E-14  0.00000000000E+00  0.17763568394E-14  0.91188000000E+02  0.91188000000E+02 0.  0.
    9900012    2    3    3    0    0  0.26556284056E+02  0.24955886836E+02  0.52677137443E+01  0.54367064125E+02  0.39999954286E+02 0.  0.
         12    1    3    3    0    0 -0.26556284056E+02 -0.24955886836E+02 -0.52677137443E+01  0.36820935875E+02  0.00000000000E+00 0. -1.
         11    1    4    4    0    0  0.53939551488E+00 -0.34701079060E+01 -0.44237163217E+01  0.56481734000E+01  0.51100000000E-03 0. -1.
        -11    1    4    4    0    0  0.67873387798E+00  0.21198308662E+01  0.11920446494E+02  0.12126475475E+02  0.51100000000E-03 0.  1.
        -12    1    4    4    0    0  0.25338154663E+02  0.26306163875E+02 -0.22290164279E+01  0.36592415250E+02  0.00000000000E+00 0.  1.
</event>
<event>
 8    1  0.2512298E-006  0.9118800E+02  0.7816164E-02  0.1184000E+00
        -11   -1    0    0    0    0  0.00000000000E+00  0.00000000000E+00  0.45593999997E+02  0.45594000000E+02  0.51100000000E-03 0.  1.
         11   -1    0    0    0    0 -0.00000000000E+00 -0.00000000000E+00 -0.45593999997E+02  0.45594000000E+02  0.51100000000E-03 0. -1.
         23    2    1    2    0    0  0.00000000000E+00 -0.44408920985E-15  0.00000000000E+00  0.91188000000E+02  0.91188000000E+02 0.  0.
    9900012    2    3    3    0    0  0.11110987817E+02 -0.31176830158E+01  0.34965909817E+02  0.54366961897E+02  0.39999721235E+02 0.  0.
         12    1    3    3    0    0 -0.11110987817E+02  0.31176830158E+01 -0.34965909817E+02  0.36821038103E+02  0.00000000000E+00 0. -1.
         11    1    4    4    0    0  0.15548362199E+02 -0.36009388760E+01  0.57366499720E+01  0.16959583752E+02  0.51100000000E-03 0. -1.
        -11    1    4    4    0    0  0.85080648852E+01 -0.19870134964E+01  0.56794959041E+01  0.10420751639E+02  0.51100000000E-03 0.  1.
         12    1    4    4    0    0 -0.12945439267E+02  0.24702693565E+01  0.23549763941E+02  0.26986626507E+02  0.00000000000E+00 0. -1.
</event>
<event>
 8    1  0.2512298E-006  0.9118800E+02  0.7816164E-02  0.1184000E+00
        -11   -1    0    0    0    0  0.00000000000E+00  0.00000000000E+00  0.45593999997E+02  0.45594000000E+02  0.51100000000E-03 0.  1.
         11   -1    0    0    0    0 -0.00000000000E+00 -0.00000000000E+00 -0.45593999997E+02  0.45594000000E+02  0.51100000000E-03 0. -1.
         23    2    1    2    0    0 -0.44408920985E-15  0.00000000000E+00 -0.17763568394E-14  0.91188000000E+02  0.91188000000E+02 0.  0.
    9900012    2    3    3    0    0  0.15104378828E+01  0.33472619679E+02 -0.15267034202E+02  0.54367081705E+02  0.39999994362E+02 0.  0.
        -12    1    3    3    0    0 -0.15104378828E+01 -0.33472619679E+02  0.15267034202E+02  0.36820918295E+02  0.00000000000E+00 0.  1.
         11    1    4    4    0    0 -0.22151700619E-01  0.12401986534E+02  0.33629846069E+01  0.12849880405E+02  0.51100000000E-03 0. -1.
        -11    1    4    4    0    0 -0.30933803559E+01 -0.63367281475E+01  0.14863311177E+01  0.72064072945E+01  0.51100000000E-03 0.  1.
         12    1    4    4    0    0  0.46259699393E+01  0.27407361293E+02 -0.20116349927E+02  0.34310794005E+02  0.00000000000E+00 0. -1.
</event>
<event>
 8    1  0.2512298E-006  0.9118800E+02  0.7816164E-02  0.1184000E+00
        -11   -1    0    0    0    0  0.00000000000E+00  0.00000000000E+00  0.45593999997E+02  0.45594000000E+02  0.51100000000E-03 0.  1.
         11   -1    0    0    0    0 -0.00000000000E+00 -0.00000000000E+00 -0.45593999997E+02  0.45594000000E+02  0.51100000000E-03 0. -1.
         23    2    1    2    0    0  0.00000000000E+00  0.00000000000E+00  0.00000000000E+00  0.91188000000E+02  0.91188000000E+02 0.  0.
    9900012    2    3    3    0    0 -0.34291918314E+02 -0.12490127773E+02  0.48826281796E+01  0.54367095457E+02  0.40000025712E+02 0.  0.
        -12    1    3    3    0    0  0.34291918314E+02  0.12490127773E+02 -0.48826281796E+01  0.36820904543E+02  0.00000000000E+00 0.  1.
         11    1    4    4    0    0 -0.53960227605E+01 -0.55585639498E+01 -0.92469527875E+01  0.12063201521E+02  0.51100000000E-03 0. -1.
        -11    1    4    4    0    0 -0.23815571985E+02  0.50344495504E+01  0.18347427483E+01  0.24410928546E+02  0.51100000000E-03 0.  1.
         12    1    4    4    0    0 -0.50803235686E+01 -0.11966013373E+02  0.12294838219E+02  0.17892965390E+02  0.00000000000E+00 0. -1.
</event>
<event>
 8    1  0.2512298E-006  0.9118800E+02  0.7816164E-02  0.1184000E+00
        -11   -1    0    0    0    0  0.00000000000E+00  0.00000000000E+00  0.45593999997E+02  0.45594000000E+02  0.51100000000E-03 0. -1.
         11   -1    0    0    0    0 -0.00000000000E+00 -0.00000000000E+00 -0.45593999997E+02  0.45594000000E+02  0.51100000000E-03 0.  1.
         23    2    1    2    0    0  0.00000000000E+00  0.35527136788E-14  0.00000000000E+00  0.91188000000E+02  0.91188000000E+02 0.  0.
    9900012    2    3    3    0    0 -0.19149066521E+02 -0.27432746719E+02 -0.15379765903E+02  0.54367088273E+02  0.40000009337E+02 0.  0.
        -12    1    3    3    0    0  0.19149066521E+02  0.27432746719E+02  0.15379765903E+02  0.36820911727E+02  0.00000000000E+00 0.  1.
         11    1    4    4    0    0 -0.67606760310E+01 -0.51615547470E+01  0.17686816181E+01  0.86877282836E+01  0.51100000000E-03 0. -1.
        -11    1    4    4    0    0 -0.26224899332E+01 -0.21778090889E+02 -0.24912650279E+02  0.33193415619E+02  0.51100000000E-03 0.  1.
        -12    1    4    4    0    0 -0.97659005565E+01 -0.49310108258E+00  0.77642027586E+01  0.12485944371E+02  0.00000000000E+00 0.  1.
</event>
<event>
 8    1  0.2512298E-006  0.9118800E+02  0.7816164E-02  0.1184000E+00
        -11   -1    0    0    0    0  0.00000000000E+00  0.00000000000E+00  0.45593999997E+02  0.45594000000E+02  0.51100000000E-03 0. -1.
         11   -1    0    0    0    0 -0.00000000000E+00 -0.00000000000E+00 -0.45593999997E+02  0.45594000000E+02  0.51100000000E-03 0.  1.
         23    2    1    2    0    0 -0.29420910153E-14  0.00000000000E+00  0.00000000000E+00  0.91188000000E+02  0.91188000000E+02 0.  0.
    9900012    2    3    3    0    0 -0.31967304913E+00  0.34559591059E+02 -0.12701025981E+02  0.54367033337E+02  0.39999884098E+02 0.  0.
         12    1    3    3    0    0  0.31967304913E+00 -0.34559591059E+02  0.12701025981E+02  0.36820966663E+02  0.00000000000E+00 0. -1.
         11    1    4    4    0    0 -0.14071751726E+02  0.45309399860E+01  0.30525475300E+01  0.15095087296E+02  0.51100000000E-03 0. -1.
        -11    1    4    4    0    0  0.55484910649E+00  0.13895292452E+02 -0.11392469660E+02  0.17977079158E+02  0.51100000000E-03 0.  1.
         12    1    4    4    0    0  0.13197229571E+02  0.16133358621E+02 -0.43611038513E+01  0.21294866882E+02  0.00000000000E+00 0. -1.
</event>
<event>
 8    1  0.2512298E-006  0.9118800E+02  0.7816164E-02  0.1184000E+00
        -11   -1    0    0    0    0  0.00000000000E+00  0.00000000000E+00  0.45593999997E+02  0.45594000000E+02  0.51100000000E-03 0. -1.
         11   -1    0    0    0    0 -0.00000000000E+00 -0.00000000000E+00 -0.45593999997E+02  0.45594000000E+02  0.51100000000E-03 0.  1.
         23    2    1    2    0    0  0.00000000000E+00  0.22204460493E-14 -0.44408920985E-15  0.91188000000E+02  0.91188000000E+02 0.  0.
    9900012    2    3    3    0    0 -0.36656169720E+02  0.20762955898E+01  0.27917103814E+01  0.54367089789E+02  0.40000012791E+02 0.  0.
        -12    1    3    3    0    0  0.36656169720E+02 -0.20762955898E+01 -0.27917103814E+01  0.36820910211E+02  0.00000000000E+00 0.  1.
         11    1    4    4    0    0 -0.59077750746E+01  0.16364729413E+02 -0.21113932531E+01  0.17526099304E+02  0.51100000000E-03 0. -1.
        -11    1    4    4    0    0 -0.20475546671E+02 -0.29111370032E+01 -0.20790508458E+00  0.20682503594E+02  0.51100000000E-03 0.  1.
         12    1    4    4    0    0 -0.10272847974E+02 -0.11377296820E+02  0.51110087191E+01  0.16158486890E+02  0.00000000000E+00 0. -1.
</event>
<event>
 8    1  0.2512298E-006  0.9118800E+02  0.7816164E-02  0.1184000E+00
        -11   -1    0    0    0    0  0.00000000000E+00  0.00000000000E+00  0.45593999997E+02  0.45594000000E+02  0.51100000000E-03 0. -1.
         11   -1    0    0    0    0 -0.00000000000E+00 -0.00000000000E+00 -0.45593999997E+02  0.45594000000E+02  0.51100000000E-03 0.  1.
         23    2    1    2    0    0  0.00000000000E+00  0.00000000000E+00  0.35527136788E-14  0.91188000000E+02  0.91188000000E+02 0.  0.
    9900012    2    3    3    0    0  0.67131909669E+01  0.33533433926E+02 -0.13646209248E+02  0.54367120723E+02  0.40000083313E+02 0.  0.
         12    1    3    3    0    0 -0.67131909669E+01 -0.33533433926E+02  0.13646209248E+02  0.36820879277E+02  0.00000000000E+00 0. -1.
         11    1    4    4    0    0  0.83734177489E+01  0.80183581905E+01  0.28116783451E+01  0.11929531770E+02  0.51100000000E-03 0. -1.
        -11    1    4    4    0    0 -0.48870556652E+00  0.24159354771E+02  0.16694656002E+01  0.24221898599E+02  0.51100000000E-03 0.  1.
         12    1    4    4    0    0 -0.11715212156E+01  0.13557209651E+01 -0.18127353194E+02  0.18215690355E+02  0.00000000000E+00 0. -1.
</event>
<event>
 8    1  0.2512298E-006  0.9118800E+02  0.7816164E-02  0.1184000E+00
        -11   -1    0    0    0    0  0.00000000000E+00  0.00000000000E+00  0.45593999997E+02  0.45594000000E+02  0.51100000000E-03 0.  1.
         11   -1    0    0    0    0 -0.00000000000E+00 -0.00000000000E+00 -0.45593999997E+02  0.45594000000E+02  0.51100000000E-03 0. -1.
         23    2    1    2    0    0  0.71054273576E-14  0.88817841970E-15  0.00000000000E+00  0.91188000000E+02  0.91188000000E+02 0.  0.
    9900012    2    3    3    0    0 -0.35442591511E+02 -0.65316783644E+01  0.75458360419E+01  0.54367085334E+02  0.40000002635E+02 0.  0.
         12    1    3    3    0    0  0.35442591511E+02  0.65316783644E+01 -0.75458360419E+01  0.36820914666E+02  0.00000000000E+00 0. -1.
         11    1    4    4    0    0  0.11490842891E+01  0.17088215313E+01  0.36406220843E+01  0.41826540798E+01  0.51100000000E-03 0.  1.
        -11    1    4    4    0    0 -0.16910660663E+02  0.11609083196E+02  0.78340142595E+01  0.21957072582E+02  0.51100000000E-03 0. -1.
        -12    1    4    4    0    0 -0.19681015137E+02 -0.19849583092E+02 -0.39288003019E+01  0.28227358671E+02  0.00000000000E+00 0.  1.
</event>
<event>
 8    1  0.2512298E-006  0.9118800E+02  0.7816164E-02  0.1184000E+00
        -11   -1    0    0    0    0  0.00000000000E+00  0.00000000000E+00  0.45593999997E+02  0.45594000000E+02  0.51100000000E-03 0. -1.
         11   -1    0    0    0    0 -0.00000000000E+00 -0.00000000000E+00 -0.45593999997E+02  0.45594000000E+02  0.51100000000E-03 0.  1.
         23    2    1    2    0    0  0.19984014443E-14  0.00000000000E+00  0.35527136788E-14  0.91188000000E+02  0.91188000000E+02 0.  0.
    9900012    2    3    3    0    0 -0.14823228578E+01 -0.20168138895E+02 -0.30770572288E+02  0.54367092536E+02  0.40000019054E+02 0.  0.
         12    1    3    3    0    0  0.14823228578E+01  0.20168138895E+02  0.30770572288E+02  0.36820907464E+02  0.00000000000E+00 0. -1.
         11    1    4    4    0    0  0.83149086692E+01  0.14712648317E+01 -0.42857044756E+00  0.84549393417E+01  0.51100000000E-03 0. -1.
        -11    1    4    4    0    0  0.96563434578E+00 -0.22460591718E+02 -0.25746985185E+02  0.34180665241E+02  0.51100000000E-03 0.  1.
         12    1    4    4    0    0 -0.10762865873E+02  0.82118799071E+00 -0.45950166560E+01  0.11731487953E+02  0.00000000000E+00 0. -1.
</event>
<event>
 8    1  0.2512298E-006  0.9118800E+02  0.7816164E-02  0.1184000E+00
        -11   -1    0    0    0    0  0.00000000000E+00  0.00000000000E+00  0.45593999997E+02  0.45594000000E+02  0.51100000000E-03 0. -1.
         11   -1    0    0    0    0 -0.00000000000E+00 -0.00000000000E+00 -0.45593999997E+02  0.45594000000E+02  0.51100000000E-03 0.  1.
         23    2    1    2    0    0  0.35527136788E-14  0.00000000000E+00  0.00000000000E+00  0.91188000000E+02  0.91188000000E+02 0.  0.
    9900012    2    3    3    0    0 -0.24420488547E+02 -0.73765182002E+01  0.26551937781E+02  0.54367099936E+02  0.40000035924E+02 0.  0.
        -12    1    3    3    0    0  0.24420488547E+02  0.73765182002E+01 -0.26551937781E+02  0.36820900064E+02  0.00000000000E+00 0.  1.
         11    1    4    4    0    0 -0.29158817044E+02 -0.97668824975E+01  0.40303138134E+01  0.31014061888E+02  0.51100000000E-03 0. -1.
        -11    1    4    4    0    0  0.21748960262E+01  0.19738464577E+01  0.16991354283E+02  0.17243328077E+02  0.51100000000E-03 0.  1.
         12    1    4    4    0    0  0.25634324705E+01  0.41651783953E+00  0.55302696845E+01  0.61097099706E+01  0.00000000000E+00 0. -1.
</event>
<event>
 8    1  0.2512298E-006  0.9118800E+02  0.7816164E-02  0.1184000E+00
        -11   -1    0    0    0    0  0.00000000000E+00  0.00000000000E+00  0.45593999997E+02  0.45594000000E+02  0.51100000000E-03 0.  1.
         11   -1    0    0    0    0 -0.00000000000E+00 -0.00000000000E+00 -0.45593999997E+02  0.45594000000E+02  0.51100000000E-03 0. -1.
         23    2    1    2    0    0 -0.35527136788E-14  0.35527136788E-14  0.00000000000E+00  0.91188000000E+02  0.91188000000E+02 0.  0.
    9900012    2    3    3    0    0  0.19266078507E+02 -0.21101612328E+02 -0.23223258425E+02  0.54367088065E+02  0.40000008861E+02 0.  0.
        -12    1    3    3    0    0 -0.19266078507E+02  0.21101612328E+02  0.23223258425E+02  0.36820911935E+02  0.00000000000E+00 0.  1.
         11    1    4    4    0    0  0.99924494670E+01 -0.28308553502E+02 -0.13186767541E+02  0.32788932373E+02  0.51100000000E-03 0. -1.
        -11    1    4    4    0    0 -0.32204071357E+01  0.54668471954E+01 -0.46258329310E+01  0.78521188825E+01  0.51100000000E-03 0.  1.
        -12    1    4    4    0    0  0.12494036176E+02  0.17400939787E+01 -0.54106579525E+01  0.13726036809E+02  0.00000000000E+00 0.  1.
</event>
<event>
 8    1  0.2512298E-006  0.9118800E+02  0.7816164E-02  0.1184000E+00
        -11   -1    0    0    0    0  0.00000000000E+00  0.00000000000E+00  0.45593999997E+02  0.45594000000E+02  0.51100000000E-03 0.  1.
         11   -1    0    0    0    0 -0.00000000000E+00 -0.00000000000E+00 -0.45593999997E+02  0.45594000000E+02  0.51100000000E-03 0. -1.
         23    2    1    2    0    0 -0.35527136788E-14  0.88817841970E-15  0.00000000000E+00  0.91188000000E+02  0.91188000000E+02 0.  0.
    9900012    2    3    3    0    0 -0.28183882347E+02  0.66702895831E+01 -0.22736702142E+02  0.54367060148E+02  0.39999945220E+02 0.  0.
        -12    1    3    3    0    0  0.28183882347E+02 -0.66702895831E+01  0.22736702142E+02  0.36820939852E+02  0.00000000000E+00 0.  1.
         11    1    4    4    0    0 -0.12045368097E+02 -0.46423322867E+01 -0.21153719908E+01  0.13081167401E+02  0.51100000000E-03 0. -1.
        -11    1    4    4    0    0 -0.23001269820E+01 -0.81407338760E+01  0.16708116276E+01  0.86228617019E+01  0.51100000000E-03 0.  1.
        -12    1    4    4    0    0 -0.13838387268E+02  0.19453355746E+02 -0.22292141779E+02  0.32663031045E+02  0.00000000000E+00 0.  1.
</event>
<event>
 8    1  0.2512298E-006  0.9118800E+02  0.7816164E-02  0.1184000E+00
        -11   -1    0    0    0    0  0.00000000000E+00  0.00000000000E+00  0.45593999997E+02  0.45594000000E+02  0.51100000000E-03 0.  1.
         11   -1    0    0    0    0 -0.00000000000E+00 -0.00000000000E+00 -0.45593999997E+02  0.45594000000E+02  0.51100000000E-03 0. -1.
         23    2    1    2    0    0  0.69388939039E-15 -0.35527136788E-14 -0.35527136788E-14  0.91188000000E+02  0.91188000000E+02 0.  0.
    9900012    2    3    3    0    0  0.19813895388E+00  0.21764633501E+02 -0.29699208905E+02  0.54367061119E+02  0.39999947433E+02 0.  0.
        -12    1    3    3    0    0 -0.19813895388E+00 -0.21764633501E+02  0.29699208905E+02  0.36820938881E+02  0.00000000000E+00 0.  1.
         11    1    4    4    0    0  0.58655808444E+01  0.20082522009E+02 -0.23469286199E+02  0.31440739874E+02  0.51100000000E-03 0. -1.
        -11    1    4    4    0    0  0.60360151917E+01  0.69165721441E+01 -0.34557593103E+01  0.98089103519E+01  0.51100000000E-03 0.  1.
         12    1    4    4    0    0 -0.11703457082E+02 -0.52344606517E+01 -0.27741633958E+01  0.13117410893E+02  0.00000000000E+00 0. -1.
</event>
<event>
 8    1  0.2512298E-006  0.9118800E+02  0.7816164E-02  0.1184000E+00
        -11   -1    0    0    0    0  0.00000000000E+00  0.00000000000E+00  0.45593999997E+02  0.45594000000E+02  0.51100000000E-03 0. -1.
         11   -1    0    0    0    0 -0.00000000000E+00 -0.00000000000E+00 -0.45593999997E+02  0.45594000000E+02  0.51100000000E-03 0.  1.
         23    2    1    2    0    0 -0.17763568394E-14  0.35527136788E-14  0.00000000000E+00  0.91188000000E+02  0.91188000000E+02 0.  0.
    9900012    2    3    3    0    0  0.12695252741E+02  0.29017008483E+02 -0.18778251186E+02  0.54367096412E+02  0.40000027890E+02 0.  0.
         12    1    3    3    0    0 -0.12695252741E+02 -0.29017008483E+02  0.18778251186E+02  0.36820903588E+02  0.00000000000E+00 0. -1.
         11    1    4    4    0    0  0.89183889467E+01  0.20180923425E+01 -0.98534934864E+01  0.13442532955E+02  0.51100000000E-03 0. -1.
        -11    1    4    4    0    0 -0.60812823802E+01  0.22580741764E+01 -0.12470698983E+02  0.14056999245E+02  0.51100000000E-03 0.  1.
         12    1    4    4    0    0  0.98581461747E+01  0.24740841964E+02  0.35459412836E+01  0.26867564212E+02  0.00000000000E+00 0. -1.
</event>
<event>
 8    1  0.2512298E-006  0.9118800E+02  0.7816164E-02  0.1184000E+00
        -11   -1    0    0    0    0  0.00000000000E+00  0.00000000000E+00  0.45593999997E+02  0.45594000000E+02  0.51100000000E-03 0.  1.
         11   -1    0    0    0    0 -0.00000000000E+00 -0.00000000000E+00 -0.45593999997E+02  0.45594000000E+02  0.51100000000E-03 0. -1.
         23    2    1    2    0    0  0.00000000000E+00 -0.35527136788E-14 -0.35527136788E-14  0.91188000000E+02  0.91188000000E+02 0.  0.
    9900012    2    3    3    0    0  0.15011216294E+02  0.23858537633E+02 -0.23689847167E+02  0.54367145971E+02  0.40000140870E+02 0.  0.
        -12    1    3    3    0    0 -0.15011216294E+02 -0.23858537633E+02  0.23689847167E+02  0.36820854029E+02  0.00000000000E+00 0.  1.
         11    1    4    4    0    0  0.63511327250E+01 -0.24012337459E+01 -0.16835414944E+02  0.18153071558E+02  0.51100000000E-03 0.  1.
        -11    1    4    4    0    0  0.11621920742E+01  0.75978078576E+01 -0.13070965372E+02  0.15163360797E+02  0.51100000000E-03 0. -1.
         12    1    4    4    0    0  0.74978914951E+01  0.18661963522E+02  0.62165331486E+01  0.21050713616E+02  0.00000000000E+00 0. -1.
</event>
<event>
 8    1  0.2512298E-006  0.9118800E+02  0.7816164E-02  0.1184000E+00
        -11   -1    0    0    0    0  0.00000000000E+00  0.00000000000E+00  0.45593999997E+02  0.45594000000E+02  0.51100000000E-03 0.  1.
         11   -1    0    0    0    0 -0.00000000000E+00 -0.00000000000E+00 -0.45593999997E+02  0.45594000000E+02  0.51100000000E-03 0. -1.
         23    2    1    2    0    0 -0.35527136788E-14 -0.71054273576E-14  0.18960527592E-14  0.91188000000E+02  0.91188000000E+02 0.  0.
    9900012    2    3    3    0    0  0.29061084723E+02  0.22610468183E+02 -0.93605223301E-02  0.54367081973E+02  0.39999994974E+02 0.  0.
        -12    1    3    3    0    0 -0.29061084723E+02 -0.22610468183E+02  0.93605223301E-02  0.36820918027E+02  0.00000000000E+00 0.  1.
         11    1    4    4    0    0  0.18667788618E+01  0.45074939119E+01 -0.10559595098E+02  0.11632171491E+02  0.51100000000E-03 0. -1.
        -11    1    4    4    0    0  0.39767357700E+01  0.35645331774E+01  0.14132476979E+02  0.15107853256E+02  0.51100000000E-03 0.  1.
         12    1    4    4    0    0  0.23217570091E+02  0.14538441094E+02 -0.35822424034E+01  0.27627057227E+02  0.00000000000E+00 0. -1.
</event>
<event>
 8    1  0.2512298E-006  0.9118800E+02  0.7816164E-02  0.1184000E+00
        -11   -1    0    0    0    0  0.00000000000E+00  0.00000000000E+00  0.45593999997E+02  0.45594000000E+02  0.51100000000E-03 0.  1.
         11   -1    0    0    0    0 -0.00000000000E+00 -0.00000000000E+00 -0.45593999997E+02  0.45594000000E+02  0.51100000000E-03 0. -1.
         23    2    1    2    0    0  0.00000000000E+00  0.00000000000E+00  0.00000000000E+00  0.91188000000E+02  0.91188000000E+02 0.  0.
    9900012    2    3    3    0    0  0.12824159989E+02  0.85484500787E+01  0.33440171557E+02  0.54367079969E+02  0.39999990406E+02 0.  0.
         12    1    3    3    0    0 -0.12824159989E+02 -0.85484500787E+01 -0.33440171557E+02  0.36820920031E+02  0.00000000000E+00 0. -1.
         11    1    4    4    0    0 -0.37179114711E+01 -0.11263038165E+02  0.15523097179E+02  0.19535747764E+02  0.51100000000E-03 0. -1.
        -11    1    4    4    0    0  0.13704837489E+02  0.20242538079E+02  0.10002872636E+02  0.26412882837E+02  0.51100000000E-03 0.  1.
        -12    1    4    4    0    0  0.28372339706E+01 -0.43104983525E+00  0.79142017416E+01  0.84184493686E+01  0.00000000000E+00 0.  1.
</event>
<event>
 8    1  0.2512298E-006  0.9118800E+02  0.7816164E-02  0.1184000E+00
        -11   -1    0    0    0    0  0.00000000000E+00  0.00000000000E+00  0.45593999997E+02  0.45594000000E+02  0.51100000000E-03 0.  1.
         11   -1    0    0    0    0 -0.00000000000E+00 -0.00000000000E+00 -0.45593999997E+02  0.45594000000E+02  0.51100000000E-03 0. -1.
         23    2    1    2    0    0  0.88817841970E-15  0.00000000000E+00  0.00000000000E+00  0.91188000000E+02  0.91188000000E+02 0.  0.
    9900012    2    3    3    0    0 -0.75521005881E+01  0.15349615108E+02 -0.32605715528E+02  0.54367114726E+02  0.40000069641E+02 0.  0.
        -12    1    3    3    0    0  0.75521005881E+01 -0.15349615108E+02  0.32605715528E+02  0.36820885274E+02  0.00000000000E+00 0.  1.
         11    1    4    4    0    0  0.94246209018E+01  0.17472083257E+02 -0.23910657694E+02  0.31077591994E+02  0.51100000000E-03 0. -1.
        -11    1    4    4    0    0 -0.88370411123E+01  0.27969345238E+01  0.14519086573E+01  0.93821200888E+01  0.51100000000E-03 0.  1.
         12    1    4    4    0    0 -0.81396803777E+01 -0.49194026731E+01 -0.10146966492E+02  0.13907402644E+02  0.00000000000E+00 0. -1.
</event>
<event>
 8    1  0.2512298E-006  0.9118800E+02  0.7816164E-02  0.1184000E+00
        -11   -1    0    0    0    0  0.00000000000E+00  0.00000000000E+00  0.45593999997E+02  0.45594000000E+02  0.51100000000E-03 0.  1.
         11   -1    0    0    0    0 -0.00000000000E+00 -0.00000000000E+00 -0.45593999997E+02  0.45594000000E+02  0.51100000000E-03 0. -1.
         23    2    1    2    0    0  0.00000000000E+00  0.24424906542E-14  0.00000000000E+00  0.91188000000E+02  0.91188000000E+02 0.  0.
    9900012    2    3    3    0    0 -0.12234560159E+02 -0.76173632940E+00 -0.34720522600E+02  0.54367090259E+02  0.40000013864E+02 0.  0.
        -12    1    3    3    0    0  0.12234560159E+02  0.76173632940E+00  0.34720522600E+02  0.36820909741E+02  0.00000000000E+00 0.  1.
         11    1    4    4    0    0 -0.12300285548E+01 -0.12000943628E+02 -0.93041642295E+01  0.15234929947E+02  0.51100000000E-03 0.  1.
        -11    1    4    4    0    0 -0.15493705101E+02  0.14802464928E+02 -0.12038662782E+02  0.24578390255E+02  0.51100000000E-03 0. -1.
         12    1    4    4    0    0  0.44891734971E+01 -0.35632576294E+01 -0.13377695589E+02  0.14553770058E+02  0.00000000000E+00 0. -1.
</event>
<event>
 8    1  0.2512298E-006  0.9118800E+02  0.7816164E-02  0.1184000E+00
        -11   -1    0    0    0    0  0.00000000000E+00  0.00000000000E+00  0.45593999997E+02  0.45594000000E+02  0.51100000000E-03 0.  1.
         11   -1    0    0    0    0 -0.00000000000E+00 -0.00000000000E+00 -0.45593999997E+02  0.45594000000E+02  0.51100000000E-03 0. -1.
         23    2    1    2    0    0  0.71054273576E-14  0.00000000000E+00  0.00000000000E+00  0.91188000000E+02  0.91188000000E+02 0.  0.
    9900012    2    3    3    0    0 -0.31037039234E+02  0.14602358246E+02  0.13388446446E+02  0.54367120475E+02  0.40000082747E+02 0.  0.
        -12    1    3    3    0    0  0.31037039234E+02 -0.14602358246E+02 -0.13388446446E+02  0.36820879525E+02  0.00000000000E+00 0.  1.
         11    1    4    4    0    0 -0.48569719022E+01 -0.14025541953E+01 -0.96583808761E+00  0.51468609659E+01  0.51100000000E-03 0. -1.
        -11    1    4    4    0    0  0.46230535273E+01  0.48521081584E+01  0.15026566464E+02  0.16453366751E+02  0.51100000000E-03 0.  1.
        -12    1    4    4    0    0 -0.30803120859E+02  0.11152804283E+02 -0.67228192956E+00  0.32766892758E+02  0.00000000000E+00 0.  1.
</event>
<event>
 8    1  0.2512298E-006  0.9118800E+02  0.7816164E-02  0.1184000E+00
        -11   -1    0    0    0    0  0.00000000000E+00  0.00000000000E+00  0.45593999997E+02  0.45594000000E+02  0.51100000000E-03 0.  1.
         11   -1    0    0    0    0 -0.00000000000E+00 -0.00000000000E+00 -0.45593999997E+02  0.45594000000E+02  0.51100000000E-03 0. -1.
         23    2    1    2    0    0  0.17763568394E-14 -0.11102230246E-14  0.00000000000E+00  0.91188000000E+02  0.91188000000E+02 0.  0.
    9900012    2    3    3    0    0 -0.13043915035E+02  0.16831285983E+01 -0.34391914136E+02  0.54367076611E+02  0.39999982749E+02 0.  0.
        -12    1    3    3    0    0  0.13043915035E+02 -0.16831285983E+01  0.34391914136E+02  0.36820923389E+02  0.00000000000E+00 0.  1.
         11    1    4    4    0    0  0.26358100786E+01  0.46963503142E+01 -0.10430342597E+02  0.11738622066E+02  0.51100000000E-03 0. -1.
        -11    1    4    4    0    0 -0.92666752598E+01 -0.10373437911E+02 -0.28612956548E+02  0.31814788498E+02  0.51100000000E-03 0.  1.
        -12    1    4    4    0    0 -0.64130498537E+01  0.73602161955E+01  0.46513850096E+01  0.10813666047E+02  0.00000000000E+00 0.  1.
</event>
<event>
 8    1  0.2512298E-006  0.9118800E+02  0.7816164E-02  0.1184000E+00
        -11   -1    0    0    0    0  0.00000000000E+00  0.00000000000E+00  0.45593999997E+02  0.45594000000E+02  0.51100000000E-03 0. -1.
         11   -1    0    0    0    0 -0.00000000000E+00 -0.00000000000E+00 -0.45593999997E+02  0.45594000000E+02  0.51100000000E-03 0.  1.
         23    2    1    2    0    0  0.00000000000E+00 -0.71054273576E-14  0.88817841970E-15  0.91188000000E+02  0.91188000000E+02 0.  0.
    9900012    2    3    3    0    0  0.23170248488E+02 -0.28588577264E+02  0.12695981048E+01  0.54367095010E+02  0.40000024693E+02 0.  0.
         12    1    3    3    0    0 -0.23170248488E+02  0.28588577264E+02 -0.12695981048E+01  0.36820904990E+02  0.00000000000E+00 0. -1.
         11    1    4    4    0    0  0.29383937258E+02 -0.25039999840E+02 -0.51047752810E+01  0.38941957985E+02  0.51100000000E-03 0. -1.
        -11    1    4    4    0    0  0.21944281137E+01 -0.31377089965E+01 -0.12901935312E+01  0.40404618674E+01  0.51100000000E-03 0.  1.
        -12    1    4    4    0    0 -0.84081168841E+01 -0.41086842716E+00  0.76645669170E+01  0.11384675157E+02  0.00000000000E+00 0.  1.
</event>
<event>
 8    1  0.2512298E-006  0.9118800E+02  0.7816164E-02  0.1184000E+00
        -11   -1    0    0    0    0  0.00000000000E+00  0.00000000000E+00  0.45593999997E+02  0.45594000000E+02  0.51100000000E-03 0.  1.
         11   -1    0    0    0    0 -0.00000000000E+00 -0.00000000000E+00 -0.45593999997E+02  0.45594000000E+02  0.51100000000E-03 0. -1.
         23    2    1    2    0    0  0.00000000000E+00 -0.35527136788E-14  0.00000000000E+00  0.91188000000E+02  0.91188000000E+02 0.  0.
    9900012    2    3    3    0    0  0.14774334630E+02 -0.27912708412E+02  0.18930931973E+02  0.54367076057E+02  0.39999981488E+02 0.  0.
         12    1    3    3    0    0 -0.14774334630E+02  0.27912708412E+02 -0.18930931973E+02  0.36820923943E+02  0.00000000000E+00 0. -1.
         11    1    4    4    0    0 -0.26062569459E+01 -0.18178892084E+01 -0.60785589671E+01  0.68590214914E+01  0.51100000000E-03 0. -1.
        -11    1    4    4    0    0  0.17139893191E+02 -0.47016891848E+01  0.17199409924E+02  0.24732600385E+02  0.51100000000E-03 0.  1.
        -12    1    4    4    0    0  0.24069838495E+00 -0.21393130018E+02  0.78100810159E+01  0.22775454181E+02  0.00000000000E+00 0.  1.
</event>
<event>
 8    1  0.2512298E-006  0.9118800E+02  0.7816164E-02  0.1184000E+00
        -11   -1    0    0    0    0  0.00000000000E+00  0.00000000000E+00  0.45593999997E+02  0.45594000000E+02  0.51100000000E-03 0.  1.
         11   -1    0    0    0    0 -0.00000000000E+00 -0.00000000000E+00 -0.45593999997E+02  0.45594000000E+02  0.51100000000E-03 0. -1.
         23    2    1    2    0    0  0.00000000000E+00  0.00000000000E+00  0.00000000000E+00  0.91188000000E+02  0.91188000000E+02 0.  0.
    9900012    2    3    3    0    0 -0.24557183870E+02 -0.10755723334E+02  0.25239610993E+02  0.54367097959E+02  0.40000031417E+02 0.  0.
         12    1    3    3    0    0  0.24557183870E+02  0.10755723334E+02 -0.25239610993E+02  0.36820902041E+02  0.00000000000E+00 0. -1.
         11    1    4    4    0    0 -0.91358575513E+01 -0.31404901178E+00  0.16461209415E+02  0.18829071556E+02  0.51100000000E-03 0. -1.
        -11    1    4    4    0    0 -0.91452558203E+01  0.58426917774E+01  0.13631531212E+02  0.17423874273E+02  0.51100000000E-03 0.  1.
         12    1    4    4    0    0 -0.62760704982E+01 -0.16284366099E+02 -0.48531296345E+01  0.18114152130E+02  0.00000000000E+00 0. -1.
</event>
<event>
 8    1  0.2512298E-006  0.9118800E+02  0.7816164E-02  0.1184000E+00
        -11   -1    0    0    0    0  0.00000000000E+00  0.00000000000E+00  0.45593999997E+02  0.45594000000E+02  0.51100000000E-03 0.  1.
         11   -1    0    0    0    0 -0.00000000000E+00 -0.00000000000E+00 -0.45593999997E+02  0.45594000000E+02  0.51100000000E-03 0. -1.
         23    2    1    2    0    0  0.00000000000E+00  0.35527136788E-14  0.35527136788E-14  0.91188000000E+02  0.91188000000E+02 0.  0.
    9900012    2    3    3    0    0 -0.12095185415E+02  0.19895644247E+02  0.28524549466E+02  0.54367080777E+02  0.39999992246E+02 0.  0.
         12    1    3    3    0    0  0.12095185415E+02 -0.19895644247E+02 -0.28524549466E+02  0.36820919223E+02  0.00000000000E+00 0. -1.
         11    1    4    4    0    0  0.56490820099E+00  0.11925885153E+02 -0.41760352054E+01  0.12648522770E+02  0.51100000000E-03 0. -1.
        -11    1    4    4    0    0 -0.65101788999E+01  0.14631329777E+02  0.25627215961E+02  0.30219405000E+02  0.51100000000E-03 0.  1.
         12    1    4    4    0    0 -0.61499147157E+01 -0.66615706830E+01  0.70733687104E+01  0.11499153007E+02  0.00000000000E+00 0. -1.
</event>
<event>
 8    1  0.2512298E-006  0.9118800E+02  0.7816164E-02  0.1184000E+00
        -11   -1    0    0    0    0  0.00000000000E+00  0.00000000000E+00  0.45593999997E+02  0.45594000000E+02  0.51100000000E-03 0.  1.
         11   -1    0    0    0    0 -0.00000000000E+00 -0.00000000000E+00 -0.45593999997E+02  0.45594000000E+02  0.51100000000E-03 0. -1.
         23    2    1    2    0    0 -0.35527136788E-14 -0.35527136788E-14  0.00000000000E+00  0.91188000000E+02  0.91188000000E+02 0.  0.
    9900012    2    3    3    0    0  0.16972815866E+02 -0.20075347970E+02 -0.25781434078E+02  0.54367103519E+02  0.40000044092E+02 0.  0.
        -12    1    3    3    0    0 -0.16972815866E+02  0.20075347970E+02  0.25781434078E+02  0.36820896481E+02  0.00000000000E+00 0.  1.
         11    1    4    4    0    0  0.17189936890E+02 -0.12452879177E+02 -0.20965890203E+02  0.29835158494E+02  0.51100000000E-03 0. -1.
        -11    1    4    4    0    0 -0.27321779559E+01  0.73782130452E+01  0.15920645669E+01  0.80272968034E+01  0.51100000000E-03 0.  1.
         12    1    4    4    0    0  0.25150569316E+01 -0.15000681838E+02 -0.64076084421E+01  0.16504648222E+02  0.00000000000E+00 0. -1.
</event>
<event>
 8    1  0.2512298E-006  0.9118800E+02  0.7816164E-02  0.1184000E+00
        -11   -1    0    0    0    0  0.00000000000E+00  0.00000000000E+00  0.45593999997E+02  0.45594000000E+02  0.51100000000E-03 0.  1.
         11   -1    0    0    0    0 -0.00000000000E+00 -0.00000000000E+00 -0.45593999997E+02  0.45594000000E+02  0.51100000000E-03 0. -1.
         23    2    1    2    0    0  0.00000000000E+00 -0.35527136788E-14  0.35527136788E-14  0.91188000000E+02  0.91188000000E+02 0.  0.
    9900012    2    3    3    0    0 -0.19261726878E+02  0.27194751832E+02 -0.15659190559E+02  0.54367096990E+02  0.40000029207E+02 0.  0.
        -12    1    3    3    0    0  0.19261726878E+02 -0.27194751832E+02  0.15659190559E+02  0.36820903010E+02  0.00000000000E+00 0.  1.
         11    1    4    4    0    0 -0.10270919799E+02  0.15776677379E+02  0.20659236682E+01  0.18938410269E+02  0.51100000000E-03 0. -1.
        -11    1    4    4    0    0 -0.13632459685E+02  0.49190330426E+01 -0.22019490756E+02  0.26360933530E+02  0.51100000000E-03 0.  1.
        -12    1    4    4    0    0  0.46416526061E+01  0.64990414105E+01  0.42943765288E+01  0.90677531915E+01  0.00000000000E+00 0.  1.
</event>
<event>
 8    1  0.2512298E-006  0.9118800E+02  0.7816164E-02  0.1184000E+00
        -11   -1    0    0    0    0  0.00000000000E+00  0.00000000000E+00  0.45593999997E+02  0.45594000000E+02  0.51100000000E-03 0.  1.
         11   -1    0    0    0    0 -0.00000000000E+00 -0.00000000000E+00 -0.45593999997E+02  0.45594000000E+02  0.51100000000E-03 0. -1.
         23    2    1    2    0    0  0.00000000000E+00 -0.35527136788E-14  0.00000000000E+00  0.91188000000E+02  0.91188000000E+02 0.  0.
    9900012    2    3    3    0    0  0.12533944043E+02  0.27332311384E+02  0.21251473085E+02  0.54367080577E+02  0.39999991791E+02 0.  0.
         12    1    3    3    0    0 -0.12533944043E+02 -0.27332311384E+02 -0.21251473085E+02  0.36820919423E+02  0.00000000000E+00 0. -1.
         11    1    4    4    0    0 -0.59205085118E+01 -0.18278969713E+01  0.20383245830E+01  0.65229131331E+01  0.51100000000E-03 0. -1.
        -11    1    4    4    0    0 -0.22753619730E+01  0.21423020892E+02  0.11434886091E+02  0.24390156138E+02  0.51100000000E-03 0.  1.
         12    1    4    4    0    0  0.20729814527E+02  0.77371874636E+01  0.77782624111E+01  0.23454011306E+02  0.00000000000E+00 0. -1.
</event>
<event>
 8    1  0.2512298E-006  0.9118800E+02  0.7816164E-02  0.1184000E+00
        -11   -1    0    0    0    0  0.00000000000E+00  0.00000000000E+00  0.45593999997E+02  0.45594000000E+02  0.51100000000E-03 0. -1.
         11   -1    0    0    0    0 -0.00000000000E+00 -0.00000000000E+00 -0.45593999997E+02  0.45594000000E+02  0.51100000000E-03 0.  1.
         23    2    1    2    0    0  0.35527136788E-14  0.44408920985E-15  0.00000000000E+00  0.91188000000E+02  0.91188000000E+02 0.  0.
    9900012    2    3    3    0    0 -0.91249060555E+01 -0.28648892916E+01  0.35557277468E+02  0.54366926114E+02  0.39999639660E+02 0.  0.
        -12    1    3    3    0    0  0.91249060555E+01  0.28648892916E+01 -0.35557277468E+02  0.36821073886E+02  0.00000000000E+00 0.  1.
         11    1    4    4    0    0 -0.14621153155E+02 -0.18174409181E+01  0.10042300695E+02  0.17830564057E+02  0.51100000000E-03 0. -1.
        -11    1    4    4    0    0  0.95584862378E+01  0.18980957450E+01 -0.77116072948E+00  0.97755877443E+01  0.51100000000E-03 0.  1.
        -12    1    4    4    0    0 -0.40622391378E+01 -0.29455441186E+01  0.26286137503E+02  0.26760774312E+02  0.00000000000E+00 0.  1.
</event>
<event>
 8    1  0.2512298E-006  0.9118800E+02  0.7816164E-02  0.1184000E+00
        -11   -1    0    0    0    0  0.00000000000E+00  0.00000000000E+00  0.45593999997E+02  0.45594000000E+02  0.51100000000E-03 0. -1.
         11   -1    0    0    0    0 -0.00000000000E+00 -0.00000000000E+00 -0.45593999997E+02  0.45594000000E+02  0.51100000000E-03 0.  1.
         23    2    1    2    0    0 -0.17763568394E-14 -0.17763568394E-14  0.00000000000E+00  0.91188000000E+02  0.91188000000E+02 0.  0.
    9900012    2    3    3    0    0 -0.49982855109E+01  0.63800595081E+01 -0.35917896855E+02  0.54367036788E+02  0.39999891966E+02 0.  0.
         12    1    3    3    0    0  0.49982855109E+01 -0.63800595081E+01  0.35917896855E+02  0.36820963212E+02  0.00000000000E+00 0. -1.
         11    1    4    4    0    0  0.22466824382E+00  0.11262746063E+02 -0.18736856858E+01  0.11419747064E+02  0.51100000000E-03 0. -1.
        -11    1    4    4    0    0  0.91227301445E+01 -0.38663709616E+01 -0.22219641766E+02  0.24328697256E+02  0.51100000000E-03 0.  1.
        -12    1    4    4    0    0 -0.14345683899E+02 -0.10163155932E+01 -0.11824569403E+02  0.18618592468E+02  0.00000000000E+00 0.  1.
</event>
<event>
 8    1  0.2512298E-006  0.9118800E+02  0.7816164E-02  0.1184000E+00
        -11   -1    0    0    0    0  0.00000000000E+00  0.00000000000E+00  0.45593999997E+02  0.45594000000E+02  0.51100000000E-03 0.  1.
         11   -1    0    0    0    0 -0.00000000000E+00 -0.00000000000E+00 -0.45593999997E+02  0.45594000000E+02  0.51100000000E-03 0. -1.
         23    2    1    2    0    0  0.00000000000E+00  0.00000000000E+00  0.00000000000E+00  0.91188000000E+02  0.91188000000E+02 0.  0.
    9900012    2    3    3    0    0 -0.20799854769E+02 -0.28919479434E+02 -0.93171796091E+01  0.54367080878E+02  0.39999992477E+02 0.  0.
         12    1    3    3    0    0  0.20799854769E+02  0.28919479434E+02  0.93171796091E+01  0.36820919122E+02  0.00000000000E+00 0. -1.
         11    1    4    4    0    0 -0.10412095188E+02 -0.10716990625E+01 -0.49964887282E+01  0.11598498392E+02  0.51100000000E-03 0. -1.
        -11    1    4    4    0    0 -0.16523193626E+02 -0.10417594482E+02 -0.11814740931E+02  0.22828278645E+02  0.51100000000E-03 0.  1.
        -12    1    4    4    0    0  0.61354340453E+01 -0.17430185890E+02  0.74940500497E+01  0.19940303840E+02  0.00000000000E+00 0.  1.
</event>
<event>
 8    1  0.2512298E-006  0.9118800E+02  0.7816164E-02  0.1184000E+00
        -11   -1    0    0    0    0  0.00000000000E+00  0.00000000000E+00  0.45593999997E+02  0.45594000000E+02  0.51100000000E-03 0. -1.
         11   -1    0    0    0    0 -0.00000000000E+00 -0.00000000000E+00 -0.45593999997E+02  0.45594000000E+02  0.51100000000E-03 0.  1.
         23    2    1    2    0    0 -0.35527136788E-14  0.00000000000E+00  0.35527136788E-14  0.91188000000E+02  0.91188000000E+02 0.  0.
    9900012    2    3    3    0    0  0.25235880505E+02  0.18216200407E+02 -0.19674778851E+02  0.54367128949E+02  0.40000102064E+02 0.  0.
         12    1    3    3    0    0 -0.25235880505E+02 -0.18216200407E+02  0.19674778851E+02  0.36820871051E+02  0.00000000000E+00 0. -1.
         11    1    4    4    0    0  0.18355843655E+02  0.22915323607E+01 -0.12419795787E+02  0.22280921087E+02  0.51100000000E-03 0. -1.
        -11    1    4    4    0    0  0.16739828173E+02  0.79824956165E+01 -0.34288339224E+01  0.18859983718E+02  0.51100000000E-03 0.  1.
         12    1    4    4    0    0 -0.98597913227E+01  0.79421724298E+01 -0.38261491416E+01  0.13226224143E+02  0.00000000000E+00 0. -1.
</event>
<event>
 8    1  0.2512298E-006  0.9118800E+02  0.7816164E-02  0.1184000E+00
        -11   -1    0    0    0    0  0.00000000000E+00  0.00000000000E+00  0.45593999997E+02  0.45594000000E+02  0.51100000000E-03 0. -1.
         11   -1    0    0    0    0 -0.00000000000E+00 -0.00000000000E+00 -0.45593999997E+02  0.45594000000E+02  0.51100000000E-03 0.  1.
         23    2    1    2    0    0  0.00000000000E+00 -0.35527136788E-14  0.00000000000E+00  0.91188000000E+02  0.91188000000E+02 0.  0.
    9900012    2    3    3    0    0 -0.34308484791E+02  0.12654605771E+02 -0.43091208155E+01  0.54367086132E+02  0.40000004456E+02 0.  0.
         12    1    3    3    0    0  0.34308484791E+02 -0.12654605771E+02  0.43091208155E+01  0.36820913868E+02  0.00000000000E+00 0. -1.
         11    1    4    4    0    0 -0.36375893197E+01 -0.40886262984E+01  0.65152027424E+01  0.85086302130E+01  0.51100000000E-03 0. -1.
        -11    1    4    4    0    0 -0.21804194241E+02  0.24335742874E+02 -0.99323833498E+01  0.34151186026E+02  0.51100000000E-03 0.  1.
        -12    1    4    4    0    0 -0.88667012304E+01 -0.75925108046E+01 -0.89194020809E+00  0.11707269894E+02  0.00000000000E+00 0.  1.
</event>
<event>
 8    1  0.2512298E-006  0.9118800E+02  0.7816164E-02  0.1184000E+00
        -11   -1    0    0    0    0  0.00000000000E+00  0.00000000000E+00  0.45593999997E+02  0.45594000000E+02  0.51100000000E-03 0. -1.
         11   -1    0    0    0    0 -0.00000000000E+00 -0.00000000000E+00 -0.45593999997E+02  0.45594000000E+02  0.51100000000E-03 0.  1.
         23    2    1    2    0    0  0.00000000000E+00  0.00000000000E+00  0.00000000000E+00  0.91188000000E+02  0.91188000000E+02 0.  0.
    9900012    2    3    3    0    0 -0.22194041782E+02 -0.27229874027E+02 -0.11033494603E+02  0.54367088370E+02  0.40000009557E+02 0.  0.
        -12    1    3    3    0    0  0.22194041782E+02  0.27229874027E+02  0.11033494603E+02  0.36820911630E+02  0.00000000000E+00 0.  1.
         11    1    4    4    0    0  0.48906697740E+01 -0.13491517442E+02  0.81715533102E+01  0.16514053939E+02  0.51100000000E-03 0. -1.
        -11    1    4    4    0    0 -0.15019901261E+02 -0.11778042535E+02 -0.16731281114E+02  0.25382188397E+02  0.51100000000E-03 0.  1.
         12    1    4    4    0    0 -0.12064810294E+02 -0.19603140491E+01 -0.24737667993E+01  0.12470846033E+02  0.00000000000E+00 0. -1.
</event>
<event>
 8    1  0.2512298E-006  0.9118800E+02  0.7816164E-02  0.1184000E+00
        -11   -1    0    0    0    0  0.00000000000E+00  0.00000000000E+00  0.45593999997E+02  0.45594000000E+02  0.51100000000E-03 0.  1.
         11   -1    0    0    0    0 -0.00000000000E+00 -0.00000000000E+00 -0.45593999997E+02  0.45594000000E+02  0.51100000000E-03 0. -1.
         23    2    1    2    0    0  0.00000000000E+00  0.35527136788E-14  0.15543122345E-14  0.91188000000E+02  0.91188000000E+02 0.  0.
    9900012    2    3    3    0    0  0.32046838432E+02 -0.18082507503E+02 -0.13427825280E+01  0.54367082086E+02  0.39999995232E+02 0.  0.
         12    1    3    3    0    0 -0.32046838432E+02  0.18082507503E+02  0.13427825280E+01  0.36820917914E+02  0.00000000000E+00 0. -1.
         11    1    4    4    0    0  0.40920551498E+01  0.58744864655E+01 -0.11053272111E+02  0.13169257048E+02  0.51100000000E-03 0. -1.
        -11    1    4    4    0    0  0.18293521867E+02 -0.53337465227E+01  0.44308194949E+01  0.19563587502E+02  0.51100000000E-03 0.  1.
        -12    1    4    4    0    0  0.96612614150E+01 -0.18623247446E+02  0.52796700878E+01  0.21634237536E+02  0.00000000000E+00 0.  1.
</event>
<event>
 8    1  0.2512298E-006  0.9118800E+02  0.7816164E-02  0.1184000E+00
        -11   -1    0    0    0    0  0.00000000000E+00  0.00000000000E+00  0.45593999997E+02  0.45594000000E+02  0.51100000000E-03 0. -1.
         11   -1    0    0    0    0 -0.00000000000E+00 -0.00000000000E+00 -0.45593999997E+02  0.45594000000E+02  0.51100000000E-03 0.  1.
         23    2    1    2    0    0  0.17763568394E-14  0.17763568394E-14  0.00000000000E+00  0.91188000000E+02  0.91188000000E+02 0.  0.
    9900012    2    3    3    0    0  0.83193494049E+01  0.12200417419E+02 -0.33730099591E+02  0.54367063318E+02  0.39999952446E+02 0.  0.
         12    1    3    3    0    0 -0.83193494049E+01 -0.12200417419E+02  0.33730099591E+02  0.36820936682E+02  0.00000000000E+00 0. -1.
         11    1    4    4    0    0  0.20533589130E+02  0.13055868663E+02 -0.19370815858E+02  0.31101647808E+02  0.51100000000E-03 0. -1.
        -11    1    4    4    0    0  0.45893585844E+00  0.43378089896E+01 -0.19282789200E+01  0.47692209853E+01  0.51100000000E-03 0.  1.
         12    1    4    4    0    0 -0.12673175584E+02 -0.51932602329E+01 -0.12431004813E+02  0.18496194524E+02  0.00000000000E+00 0. -1.
</event>
<event>
 8    1  0.2512298E-006  0.9118800E+02  0.7816164E-02  0.1184000E+00
        -11   -1    0    0    0    0  0.00000000000E+00  0.00000000000E+00  0.45593999997E+02  0.45594000000E+02  0.51100000000E-03 0. -1.
         11   -1    0    0    0    0 -0.00000000000E+00 -0.00000000000E+00 -0.45593999997E+02  0.45594000000E+02  0.51100000000E-03 0.  1.
         23    2    1    2    0    0 -0.35527136788E-14  0.35527136788E-14  0.17763568394E-14  0.91188000000E+02  0.91188000000E+02 0.  0.
    9900012    2    3    3    0    0  0.25161915612E+02 -0.24521685726E+02  0.11015770272E+02  0.54367051305E+02  0.39999925060E+02 0.  0.
         12    1    3    3    0    0 -0.25161915612E+02  0.24521685726E+02 -0.11015770272E+02  0.36820948695E+02  0.00000000000E+00 0. -1.
         11    1    4    4    0    0  0.98976965575E+00 -0.20091960070E+02 -0.26987527346E+01  0.20296545766E+02  0.51100000000E-03 0. -1.
        -11    1    4    4    0    0  0.56643931589E+01  0.41969064845E+01 -0.30203344843E+01  0.76695367889E+01  0.51100000000E-03 0.  1.
        -12    1    4    4    0    0  0.18507752798E+02 -0.86266321401E+01  0.16734857491E+02  0.26400968750E+02  0.00000000000E+00 0.  1.
</event>
<event>
 8    1  0.2512298E-006  0.9118800E+02  0.7816164E-02  0.1184000E+00
        -11   -1    0    0    0    0  0.00000000000E+00  0.00000000000E+00  0.45593999997E+02  0.45594000000E+02  0.51100000000E-03 0.  1.
         11   -1    0    0    0    0 -0.00000000000E+00 -0.00000000000E+00 -0.45593999997E+02  0.45594000000E+02  0.51100000000E-03 0. -1.
         23    2    1    2    0    0  0.22204460493E-15  0.00000000000E+00  0.35527136788E-14  0.91188000000E+02  0.91188000000E+02 0.  0.
    9900012    2    3    3    0    0 -0.12754410213E+01  0.18781170193E+02  0.31645206674E+02  0.54367106352E+02  0.40000050550E+02 0.  0.
         12    1    3    3    0    0  0.12754410213E+01 -0.18781170193E+02 -0.31645206674E+02  0.36820893648E+02  0.00000000000E+00 0. -1.
         11    1    4    4    0    0  0.27730395359E+01  0.15413373077E+02  0.14497487555E+02  0.21341015991E+02  0.51100000000E-03 0. -1.
        -11    1    4    4    0    0 -0.66683882096E+01  0.11814802356E+02  0.19610206848E+02  0.23845694976E+02  0.51100000000E-03 0.  1.
         12    1    4    4    0    0  0.26199076524E+01 -0.84470052386E+01 -0.24624877288E+01  0.91803953849E+01  0.00000000000E+00 0. -1.
</event>
<event>
 8    1  0.2512298E-006  0.9118800E+02  0.7816164E-02  0.1184000E+00
        -11   -1    0    0    0    0  0.00000000000E+00  0.00000000000E+00  0.45593999997E+02  0.45594000000E+02  0.51100000000E-03 0. -1.
         11   -1    0    0    0    0 -0.00000000000E+00 -0.00000000000E+00 -0.45593999997E+02  0.45594000000E+02  0.51100000000E-03 0.  1.
         23    2    1    2    0    0  0.00000000000E+00  0.35527136788E-14  0.00000000000E+00  0.91188000000E+02  0.91188000000E+02 0.  0.
    9900012    2    3    3    0    0 -0.80349117626E+01  0.31334586906E+02  0.17588740142E+02  0.54367083073E+02  0.39999997481E+02 0.  0.
        -12    1    3    3    0    0  0.80349117626E+01 -0.31334586906E+02 -0.17588740142E+02  0.36820916927E+02  0.00000000000E+00 0.  1.
         11    1    4    4    0    0 -0.45964298701E+01  0.92280680891E+01  0.79702135040E+01  0.13031067177E+02  0.51100000000E-03 0. -1.
        -11    1    4    4    0    0  0.97034145247E+00 -0.39053322625E+01  0.14022195896E+02  0.14588185652E+02  0.51100000000E-03 0.  1.
         12    1    4    4    0    0 -0.44088233449E+01  0.26011851079E+02 -0.44036692577E+01  0.26747830244E+02  0.00000000000E+00 0. -1.
</event>
<event>
 8    1  0.2512298E-006  0.9118800E+02  0.7816164E-02  0.1184000E+00
        -11   -1    0    0    0    0  0.00000000000E+00  0.00000000000E+00  0.45593999997E+02  0.45594000000E+02  0.51100000000E-03 0. -1.
         11   -1    0    0    0    0 -0.00000000000E+00 -0.00000000000E+00 -0.45593999997E+02  0.45594000000E+02  0.51100000000E-03 0.  1.
         23    2    1    2    0    0  0.00000000000E+00  0.00000000000E+00  0.71054273576E-14  0.91188000000E+02  0.91188000000E+02 0.  0.
    9900012    2    3    3    0    0 -0.89814755430E+01 -0.14796860016E+02  0.32498718998E+02  0.54367072448E+02  0.39999973261E+02 0.  0.
        -12    1    3    3    0    0  0.89814755430E+01  0.14796860016E+02 -0.32498718998E+02  0.36820927552E+02  0.00000000000E+00 0.  1.
         11    1    4    4    0    0 -0.29204381219E+01 -0.14444630441E+02  0.17399183539E+02  0.22801488888E+02  0.51100000000E-03 0. -1.
        -11    1    4    4    0    0  0.10178606823E+02 -0.14471383602E+01  0.10400705862E+02  0.14624394995E+02  0.51100000000E-03 0.  1.
         12    1    4    4    0    0 -0.16239644244E+02  0.10949087848E+01  0.46988295962E+01  0.16941188565E+02  0.00000000000E+00 0. -1.
</event>
<event>
 8    1  0.2512298E-006  0.9118800E+02  0.7816164E-02  0.1184000E+00
        -11   -1    0    0    0    0  0.00000000000E+00  0.00000000000E+00  0.45593999997E+02  0.45594000000E+02  0.51100000000E-03 0.  1.
         11   -1    0    0    0    0 -0.00000000000E+00 -0.00000000000E+00 -0.45593999997E+02  0.45594000000E+02  0.51100000000E-03 0. -1.
         23    2    1    2    0    0  0.00000000000E+00  0.88817841970E-15 -0.35527136788E-14  0.91188000000E+02  0.91188000000E+02 0.  0.
    9900012    2    3    3    0    0  0.17856762371E+02 -0.56796913069E+01  0.31696318492E+02  0.54367089342E+02  0.40000011773E+02 0.  0.
         12    1    3    3    0    0 -0.17856762371E+02  0.56796913069E+01 -0.31696318492E+02  0.36820910658E+02  0.00000000000E+00 0. -1.
         11    1    4    4    0    0  0.18865473362E+02  0.21386396858E+01  0.58958884175E+01  0.19880678192E+02  0.51100000000E-03 0. -1.
        -11    1    4    4    0    0  0.54005060183E+01 -0.10455693730E+01  0.24454050018E+02  0.25065100102E+02  0.51100000000E-03 0.  1.
        -12    1    4    4    0    0 -0.64092170087E+01 -0.67727616197E+01  0.13463800564E+01  0.94213110488E+01  0.00000000000E+00 0.  1.
</event>
<event>
 8    1  0.2512298E-006  0.9118800E+02  0.7816164E-02  0.1184000E+00
        -11   -1    0    0    0    0  0.00000000000E+00  0.00000000000E+00  0.45593999997E+02  0.45594000000E+02  0.51100000000E-03 0. -1.
         11   -1    0    0    0    0 -0.00000000000E+00 -0.00000000000E+00 -0.45593999997E+02  0.45594000000E+02  0.51100000000E-03 0.  1.
         23    2    1    2    0    0 -0.13322676296E-14  0.00000000000E+00  0.11102230246E-15  0.91188000000E+02  0.91188000000E+02 0.  0.
    9900012    2    3    3    0    0  0.38567626555E+01 -0.36612086709E+02  0.67878487491E+00  0.54367078497E+02  0.39999987050E+02 0.  0.
        -12    1    3    3    0    0 -0.38567626555E+01  0.36612086709E+02 -0.67878487491E+00  0.36820921503E+02  0.00000000000E+00 0.  1.
         11    1    4    4    0    0 -0.10932317625E+01 -0.92633305896E+01 -0.38454683678E+01  0.10089205941E+02  0.51100000000E-03 0. -1.
        -11    1    4    4    0    0 -0.11564949740E+02 -0.23563864542E+02 -0.15100438411E+01  0.26292280375E+02  0.51100000000E-03 0.  1.
        -12    1    4    4    0    0  0.16514944158E+02 -0.37848915777E+01  0.60342970838E+01  0.17985592181E+02  0.00000000000E+00 0.  1.
</event>
<event>
 8    1  0.2512298E-006  0.9118800E+02  0.7816164E-02  0.1184000E+00
        -11   -1    0    0    0    0  0.00000000000E+00  0.00000000000E+00  0.45593999997E+02  0.45594000000E+02  0.51100000000E-03 0.  1.
         11   -1    0    0    0    0 -0.00000000000E+00 -0.00000000000E+00 -0.45593999997E+02  0.45594000000E+02  0.51100000000E-03 0. -1.
         23    2    1    2    0    0  0.00000000000E+00  0.00000000000E+00  0.00000000000E+00  0.91188000000E+02  0.91188000000E+02 0.  0.
    9900012    2    3    3    0    0 -0.33121847122E+02 -0.14868246336E+02  0.61365334563E+01  0.54367101740E+02  0.40000040036E+02 0.  0.
         12    1    3    3    0    0  0.33121847122E+02  0.14868246336E+02 -0.61365334563E+01  0.36820898260E+02  0.00000000000E+00 0. -1.
         11    1    4    4    0    0 -0.18743393794E+02 -0.10307770859E+02  0.41260511648E+01  0.21785069416E+02  0.51100000000E-03 0. -1.
        -11    1    4    4    0    0 -0.16383397934E+02 -0.39662505530E+01  0.13067796441E+02  0.21328717153E+02  0.51100000000E-03 0.  1.
         12    1    4    4    0    0  0.20049446058E+01 -0.59422492375E+00 -0.11057314149E+02  0.11253315171E+02  0.00000000000E+00 0. -1.
</event>
<event>
 8    1  0.2512298E-006  0.9118800E+02  0.7816164E-02  0.1184000E+00
        -11   -1    0    0    0    0  0.00000000000E+00  0.00000000000E+00  0.45593999997E+02  0.45594000000E+02  0.51100000000E-03 0. -1.
         11   -1    0    0    0    0 -0.00000000000E+00 -0.00000000000E+00 -0.45593999997E+02  0.45594000000E+02  0.51100000000E-03 0.  1.
         23    2    1    2    0    0  0.00000000000E+00  0.00000000000E+00 -0.35527136788E-14  0.91188000000E+02  0.91188000000E+02 0.  0.
    9900012    2    3    3    0    0 -0.32136911151E+02 -0.94626874313E+00 -0.17947234985E+02  0.54367085747E+02  0.40000003577E+02 0.  0.
         12    1    3    3    0    0  0.32136911151E+02  0.94626874313E+00  0.17947234985E+02  0.36820914253E+02  0.00000000000E+00 0. -1.
         11    1    4    4    0    0 -0.34303680521E+01  0.90787702493E+00 -0.12733400838E+02  0.13218591560E+02  0.51100000000E-03 0. -1.
        -11    1    4    4    0    0 -0.12182515832E+02  0.18757901493E+00 -0.16880411349E+02  0.20818193136E+02  0.51100000000E-03 0.  1.
         12    1    4    4    0    0 -0.16524027266E+02 -0.20417247830E+01  0.11666577202E+02  0.20330301050E+02  0.00000000000E+00 0. -1.
</event>
<event>
 8    1  0.2512298E-006  0.9118800E+02  0.7816164E-02  0.1184000E+00
        -11   -1    0    0    0    0  0.00000000000E+00  0.00000000000E+00  0.45593999997E+02  0.45594000000E+02  0.51100000000E-03 0.  1.
         11   -1    0    0    0    0 -0.00000000000E+00 -0.00000000000E+00 -0.45593999997E+02  0.45594000000E+02  0.51100000000E-03 0. -1.
         23    2    1    2    0    0  0.00000000000E+00  0.00000000000E+00  0.00000000000E+00  0.91188000000E+02  0.91188000000E+02 0.  0.
    9900012    2    3    3    0    0 -0.24408158793E+02  0.17776589386E+02  0.21071634936E+02  0.54367093646E+02  0.40000021584E+02 0.  0.
         12    1    3    3    0    0  0.24408158793E+02 -0.17776589386E+02 -0.21071634936E+02  0.36820906354E+02  0.00000000000E+00 0. -1.
         11    1    4    4    0    0 -0.18001100732E+02  0.16954824836E+02  0.20986381943E+02  0.32433531108E+02  0.51100000000E-03 0.  1.
        -11    1    4    4    0    0  0.35402190215E+01  0.52010537297E+01 -0.66441267009E+01  0.91503295295E+01  0.51100000000E-03 0. -1.
         12    1    4    4    0    0 -0.99472770828E+01 -0.43792891804E+01  0.67293796934E+01  0.12783233008E+02  0.00000000000E+00 0. -1.
</event>
<event>
 8    1  0.2512298E-006  0.9118800E+02  0.7816164E-02  0.1184000E+00
        -11   -1    0    0    0    0  0.00000000000E+00  0.00000000000E+00  0.45593999997E+02  0.45594000000E+02  0.51100000000E-03 0.  1.
         11   -1    0    0    0    0 -0.00000000000E+00 -0.00000000000E+00 -0.45593999997E+02  0.45594000000E+02  0.51100000000E-03 0. -1.
         23    2    1    2    0    0  0.00000000000E+00  0.35527136788E-14  0.00000000000E+00  0.91188000000E+02  0.91188000000E+02 0.  0.
    9900012    2    3    3    0    0  0.17466059530E+01 -0.29901556307E+02 -0.21415568452E+02  0.54367078310E+02  0.39999986624E+02 0.  0.
        -12    1    3    3    0    0 -0.17466059530E+01  0.29901556307E+02  0.21415568452E+02  0.36820921690E+02  0.00000000000E+00 0.  1.
         11    1    4    4    0    0 -0.25031009528E+01 -0.45312403511E+01 -0.11653475517E+02  0.12751515415E+02  0.51100000000E-03 0. -1.
        -11    1    4    4    0    0  0.23751821902E+01  0.27317866810E+01  0.76779868396E+01  0.84885588339E+01  0.51100000000E-03 0.  1.
        -12    1    4    4    0    0  0.18745247155E+01 -0.28102102637E+02 -0.17440079775E+02  0.33127004061E+02  0.00000000000E+00 0.  1.
</event>
<event>
 8    1  0.2512298E-006  0.9118800E+02  0.7816164E-02  0.1184000E+00
        -11   -1    0    0    0    0  0.00000000000E+00  0.00000000000E+00  0.45593999997E+02  0.45594000000E+02  0.51100000000E-03 0.  1.
         11   -1    0    0    0    0 -0.00000000000E+00 -0.00000000000E+00 -0.45593999997E+02  0.45594000000E+02  0.51100000000E-03 0. -1.
         23    2    1    2    0    0  0.00000000000E+00  0.00000000000E+00  0.71054273576E-14  0.91188000000E+02  0.91188000000E+02 0.  0.
    9900012    2    3    3    0    0  0.58292837054E+01 -0.91020461096E+01 -0.35198746097E+02  0.54367088568E+02  0.40000010008E+02 0.  0.
        -12    1    3    3    0    0 -0.58292837054E+01  0.91020461096E+01  0.35198746097E+02  0.36820911432E+02  0.00000000000E+00 0.  1.
         11    1    4    4    0    0 -0.14239188201E+02 -0.23408660374E+01 -0.13426007498E+02  0.19710195637E+02  0.51100000000E-03 0. -1.
        -11    1    4    4    0    0  0.11746128443E+02  0.10004673870E-01 -0.16618985900E+01  0.11863116819E+02  0.51100000000E-03 0.  1.
         12    1    4    4    0    0  0.83223434637E+01 -0.67711847461E+01 -0.20110840009E+02  0.22793776112E+02  0.00000000000E+00 0. -1.
</event>
<event>
 8    1  0.2512298E-006  0.9118800E+02  0.7816164E-02  0.1184000E+00
        -11   -1    0    0    0    0  0.00000000000E+00  0.00000000000E+00  0.45593999997E+02  0.45594000000E+02  0.51100000000E-03 0. -1.
         11   -1    0    0    0    0 -0.00000000000E+00 -0.00000000000E+00 -0.45593999997E+02  0.45594000000E+02  0.51100000000E-03 0.  1.
         23    2    1    2    0    0  0.00000000000E+00 -0.71054273576E-14  0.00000000000E+00  0.91188000000E+02  0.91188000000E+02 0.  0.
    9900012    2    3    3    0    0 -0.74387663450E+01 -0.35284675840E+02 -0.74456029253E+01  0.54367073928E+02  0.39999976634E+02 0.  0.
        -12    1    3    3    0    0  0.74387663450E+01  0.35284675840E+02  0.74456029253E+01  0.36820926072E+02  0.00000000000E+00 0.  1.
         11    1    4    4    0    0 -0.24154813931E+01 -0.38022790387E+02 -0.26469444067E+01  0.38191274581E+02  0.51100000000E-03 0. -1.
        -11    1    4    4    0    0 -0.83064131951E+01  0.34251082916E+01 -0.76291122266E+01  0.11786908866E+02  0.51100000000E-03 0.  1.
         12    1    4    4    0    0  0.32831282433E+01 -0.68699374483E+00  0.28304537080E+01  0.43888904817E+01  0.00000000000E+00 0. -1.
</event>
<event>
 8    1  0.2512298E-006  0.9118800E+02  0.7816164E-02  0.1184000E+00
        -11   -1    0    0    0    0  0.00000000000E+00  0.00000000000E+00  0.45593999997E+02  0.45594000000E+02  0.51100000000E-03 0.  1.
         11   -1    0    0    0    0 -0.00000000000E+00 -0.00000000000E+00 -0.45593999997E+02  0.45594000000E+02  0.51100000000E-03 0. -1.
         23    2    1    2    0    0  0.00000000000E+00 -0.71054273576E-14  0.00000000000E+00  0.91188000000E+02  0.91188000000E+02 0.  0.
    9900012    2    3    3    0    0 -0.15353414203E+02  0.32294689698E+02  0.87809630924E+01  0.54367087149E+02  0.40000006774E+02 0.  0.
        -12    1    3    3    0    0  0.15353414203E+02 -0.32294689698E+02 -0.87809630924E+01  0.36820912851E+02  0.00000000000E+00 0.  1.
         11    1    4    4    0    0 -0.10360611372E+02  0.13832907939E+02 -0.19763674942E-01  0.17282708148E+02  0.51100000000E-03 0. -1.
        -11    1    4    4    0    0 -0.73616713577E+01 -0.62136717316E+01  0.75929326739E+01  0.12266073064E+02  0.51100000000E-03 0.  1.
         12    1    4    4    0    0  0.23688685264E+01  0.24675453490E+02  0.12077940934E+01  0.24818305937E+02  0.00000000000E+00 0. -1.
</event>
<event>
 8    1  0.2512298E-006  0.9118800E+02  0.7816164E-02  0.1184000E+00
        -11   -1    0    0    0    0  0.00000000000E+00  0.00000000000E+00  0.45593999997E+02  0.45594000000E+02  0.51100000000E-03 0.  1.
         11   -1    0    0    0    0 -0.00000000000E+00 -0.00000000000E+00 -0.45593999997E+02  0.45594000000E+02  0.51100000000E-03 0. -1.
         23    2    1    2    0    0  0.35527136788E-14  0.00000000000E+00 -0.35527136788E-14  0.91188000000E+02  0.91188000000E+02 0.  0.
    9900012    2    3    3    0    0 -0.12086150463E+02  0.17522189615E+02  0.30044562693E+02  0.54367110421E+02  0.40000059827E+02 0.  0.
         12    1    3    3    0    0  0.12086150463E+02 -0.17522189615E+02 -0.30044562693E+02  0.36820889579E+02  0.00000000000E+00 0. -1.
         11    1    4    4    0    0 -0.15341347276E+02  0.43046288695E+01 -0.33121036772E+01  0.16274421556E+02  0.51100000000E-03 0. -1.
        -11    1    4    4    0    0  0.21193664979E+01  0.13168973756E+02  0.16588173088E+02  0.21285701088E+02  0.51100000000E-03 0.  1.
        -12    1    4    4    0    0  0.11358303147E+01  0.48586989782E-01  0.16768493282E+02  0.16806987777E+02  0.00000000000E+00 0.  1.
</event>
<event>
 8    1  0.2512298E-006  0.9118800E+02  0.7816164E-02  0.1184000E+00
        -11   -1    0    0    0    0  0.00000000000E+00  0.00000000000E+00  0.45593999997E+02  0.45594000000E+02  0.51100000000E-03 0.  1.
         11   -1    0    0    0    0 -0.00000000000E+00 -0.00000000000E+00 -0.45593999997E+02  0.45594000000E+02  0.51100000000E-03 0. -1.
         23    2    1    2    0    0  0.00000000000E+00  0.00000000000E+00  0.35527136788E-14  0.91188000000E+02  0.91188000000E+02 0.  0.
    9900012    2    3    3    0    0 -0.19323748646E+02 -0.13818428815E+02  0.28132486786E+02  0.54366904831E+02  0.39999591141E+02 0.  0.
         12    1    3    3    0    0  0.19323748646E+02  0.13818428815E+02 -0.28132486786E+02  0.36821095169E+02  0.00000000000E+00 0. -1.
         11    1    4    4    0    0 -0.84253007998E+00 -0.49812550018E+01  0.12944632369E+02  0.13895548415E+02  0.51100000000E-03 0. -1.
        -11    1    4    4    0    0  0.40864802537E+00 -0.30233193407E+01  0.19916861850E+02  0.20149164728E+02  0.51100000000E-03 0.  1.
         12    1    4    4    0    0 -0.18889866592E+02 -0.58138544728E+01 -0.47290074322E+01  0.20322191687E+02  0.00000000000E+00 0. -1.
</event>
<event>
 8    1  0.2512298E-006  0.9118800E+02  0.7816164E-02  0.1184000E+00
        -11   -1    0    0    0    0  0.00000000000E+00  0.00000000000E+00  0.45593999997E+02  0.45594000000E+02  0.51100000000E-03 0.  1.
         11   -1    0    0    0    0 -0.00000000000E+00 -0.00000000000E+00 -0.45593999997E+02  0.45594000000E+02  0.51100000000E-03 0. -1.
         23    2    1    2    0    0  0.00000000000E+00 -0.35527136788E-14  0.00000000000E+00  0.91188000000E+02  0.91188000000E+02 0.  0.
    9900012    2    3    3    0    0 -0.11222844244E+02  0.21293175485E+02 -0.27864465048E+02  0.54367082473E+02  0.39999996113E+02 0.  0.
        -12    1    3    3    0    0  0.11222844244E+02 -0.21293175485E+02  0.27864465048E+02  0.36820917527E+02  0.00000000000E+00 0.  1.
         11    1    4    4    0    0 -0.79948866135E+01  0.84561417257E+01 -0.49197306466E+01  0.12634409157E+02  0.51100000000E-03 0. -1.
        -11    1    4    4    0    0 -0.14769686538E+02 -0.14630994543E+01 -0.16656754501E+02  0.22309902985E+02  0.51100000000E-03 0.  1.
         12    1    4    4    0    0  0.11541728907E+02  0.14300133213E+02 -0.62879799007E+01  0.19422770331E+02  0.00000000000E+00 0. -1.
</event>
<event>
 8    1  0.2512298E-006  0.9118800E+02  0.7816164E-02  0.1184000E+00
        -11   -1    0    0    0    0  0.00000000000E+00  0.00000000000E+00  0.45593999997E+02  0.45594000000E+02  0.51100000000E-03 0.  1.
         11   -1    0    0    0    0 -0.00000000000E+00 -0.00000000000E+00 -0.45593999997E+02  0.45594000000E+02  0.51100000000E-03 0. -1.
         23    2    1    2    0    0  0.00000000000E+00  0.35527136788E-14 -0.22204460493E-15  0.91188000000E+02  0.91188000000E+02 0.  0.
    9900012    2    3    3    0    0  0.32100031653E+02  0.18029823912E+02  0.54265851753E+00  0.54367067629E+02  0.39999962274E+02 0.  0.
         12    1    3    3    0    0 -0.32100031653E+02 -0.18029823912E+02 -0.54265851753E+00  0.36820932371E+02  0.00000000000E+00 0. -1.
         11    1    4    4    0    0  0.20507226877E+01  0.14277920601E+02 -0.39066991890E+01  0.14944121889E+02  0.51100000000E-03 0. -1.
        -11    1    4    4    0    0  0.89358080347E+01 -0.10346959680E+02  0.14312195836E+00  0.13672187975E+02  0.51100000000E-03 0.  1.
        -12    1    4    4    0    0  0.21113500930E+02  0.14098862991E+02  0.43062357482E+01  0.25750757765E+02  0.00000000000E+00 0.  1.
</event>
<event>
 8    1  0.2512298E-006  0.9118800E+02  0.7816164E-02  0.1184000E+00
        -11   -1    0    0    0    0  0.00000000000E+00  0.00000000000E+00  0.45593999997E+02  0.45594000000E+02  0.51100000000E-03 0. -1.
         11   -1    0    0    0    0 -0.00000000000E+00 -0.00000000000E+00 -0.45593999997E+02  0.45594000000E+02  0.51100000000E-03 0.  1.
         23    2    1    2    0    0  0.00000000000E+00 -0.35527136788E-14  0.00000000000E+00  0.91188000000E+02  0.91188000000E+02 0.  0.
    9900012    2    3    3    0    0 -0.81472852315E+01  0.26432852393E+02 -0.24304412851E+02  0.54367103401E+02  0.40000043823E+02 0.  0.
        -12    1    3    3    0    0  0.81472852315E+01 -0.26432852393E+02  0.24304412851E+02  0.36820896599E+02  0.00000000000E+00 0.  1.
         11    1    4    4    0    0  0.13120607242E+02  0.19781512435E+02 -0.13353177494E+02  0.27235379896E+02  0.51100000000E-03 0. -1.
        -11    1    4    4    0    0 -0.83285431125E+01 -0.83501166652E+00  0.37172354321E+00  0.83785472198E+01  0.51100000000E-03 0.  1.
         12    1    4    4    0    0 -0.12939349361E+02  0.74863516249E+01 -0.11322958900E+02  0.18753176286E+02  0.00000000000E+00 0. -1.
</event>
<event>
 8    1  0.2512298E-006  0.9118800E+02  0.7816164E-02  0.1184000E+00
        -11   -1    0    0    0    0  0.00000000000E+00  0.00000000000E+00  0.45593999997E+02  0.45594000000E+02  0.51100000000E-03 0.  1.
         11   -1    0    0    0    0 -0.00000000000E+00 -0.00000000000E+00 -0.45593999997E+02  0.45594000000E+02  0.51100000000E-03 0. -1.
         23    2    1    2    0    0  0.17763568394E-14  0.00000000000E+00  0.17763568394E-14  0.91188000000E+02  0.91188000000E+02 0.  0.
    9900012    2    3    3    0    0  0.10425125984E+02 -0.32338400275E+02 -0.14188889020E+02  0.54367082633E+02  0.39999996479E+02 0.  0.
         12    1    3    3    0    0 -0.10425125984E+02  0.32338400275E+02  0.14188889020E+02  0.36820917367E+02  0.00000000000E+00 0. -1.
         11    1    4    4    0    0  0.80502589312E+01 -0.25390120337E+02  0.15107541937E+01  0.26678591756E+02  0.51100000000E-03 0. -1.
        -11    1    4    4    0    0  0.11283524509E+01 -0.11331489594E+02 -0.48713265680E-01  0.11387634035E+02  0.51100000000E-03 0.  1.
         12    1    4    4    0    0  0.12465146017E+01  0.43832096569E+01 -0.15650929948E+02  0.16300856842E+02  0.00000000000E+00 0. -1.
</event>
<event>
 8    1  0.2512298E-006  0.9118800E+02  0.7816164E-02  0.1184000E+00
        -11   -1    0    0    0    0  0.00000000000E+00  0.00000000000E+00  0.45593999997E+02  0.45594000000E+02  0.51100000000E-03 0. -1.
         11   -1    0    0    0    0 -0.00000000000E+00 -0.00000000000E+00 -0.45593999997E+02  0.45594000000E+02  0.51100000000E-03 0.  1.
         23    2    1    2    0    0  0.00000000000E+00 -0.17763568394E-14  0.00000000000E+00  0.91188000000E+02  0.91188000000E+02 0.  0.
    9900012    2    3    3    0    0  0.35240754403E+02  0.74210254681E+01  0.76680636323E+01  0.54367060444E+02  0.39999945895E+02 0.  0.
        -12    1    3    3    0    0 -0.35240754403E+02 -0.74210254681E+01 -0.76680636323E+01  0.36820939556E+02  0.00000000000E+00 0.  1.
         11    1    4    4    0    0  0.13284922771E+02  0.15632118626E+02 -0.44352468683E+01  0.20988656956E+02  0.51100000000E-03 0. -1.
        -11    1    4    4    0    0  0.16519325658E+01 -0.32848754910E+01 -0.51186466071E+01  0.63023671381E+01  0.51100000000E-03 0.  1.
         12    1    4    4    0    0  0.20303899067E+02 -0.49262176672E+01  0.17221957108E+02  0.27076036350E+02  0.00000000000E+00 0. -1.
</event>
<event>
 8    1  0.2512298E-006  0.9118800E+02  0.7816164E-02  0.1184000E+00
        -11   -1    0    0    0    0  0.00000000000E+00  0.00000000000E+00  0.45593999997E+02  0.45594000000E+02  0.51100000000E-03 0.  1.
         11   -1    0    0    0    0 -0.00000000000E+00 -0.00000000000E+00 -0.45593999997E+02  0.45594000000E+02  0.51100000000E-03 0. -1.
         23    2    1    2    0    0 -0.35527136788E-14  0.00000000000E+00  0.35527136788E-14  0.91188000000E+02  0.91188000000E+02 0.  0.
    9900012    2    3    3    0    0 -0.22242330793E+02 -0.20379075129E+01  0.29272946457E+02  0.54367085557E+02  0.40000003145E+02 0.  0.
         12    1    3    3    0    0  0.22242330793E+02  0.20379075129E+01 -0.29272946457E+02  0.36820914443E+02  0.00000000000E+00 0. -1.
         11    1    4    4    0    0 -0.21906981825E+01  0.10738126597E+02  0.87367022175E+00  0.10994081192E+02  0.51100000000E-03 0. -1.
        -11    1    4    4    0    0 -0.19102833263E+02  0.65959374058E+00  0.14277977173E+02  0.23858204773E+02  0.51100000000E-03 0.  1.
         12    1    4    4    0    0 -0.94879934787E+00 -0.13435627850E+02  0.14121299062E+02  0.19514799592E+02  0.00000000000E+00 0. -1.
</event>
<event>
 8    1  0.2512298E-006  0.9118800E+02  0.7816164E-02  0.1184000E+00
        -11   -1    0    0    0    0  0.00000000000E+00  0.00000000000E+00  0.45593999997E+02  0.45594000000E+02  0.51100000000E-03 0.  1.
         11   -1    0    0    0    0 -0.00000000000E+00 -0.00000000000E+00 -0.45593999997E+02  0.45594000000E+02  0.51100000000E-03 0. -1.
         23    2    1    2    0    0  0.00000000000E+00  0.17763568394E-14  0.00000000000E+00  0.91188000000E+02  0.91188000000E+02 0.  0.
    9900012    2    3    3    0    0  0.18027665484E+02  0.12466872647E+01 -0.32081594013E+02  0.54367087106E+02  0.40000006677E+02 0.  0.
        -12    1    3    3    0    0 -0.18027665484E+02 -0.12466872647E+01  0.32081594013E+02  0.36820912894E+02  0.00000000000E+00 0.  1.
         11    1    4    4    0    0  0.95812798892E+01 -0.91284424408E+01 -0.23612435506E+02  0.27067997645E+02  0.51100000000E-03 0. -1.
        -11    1    4    4    0    0  0.15195905753E+02  0.60953052391E+01 -0.99669450190E+01  0.19167897404E+02  0.51100000000E-03 0.  1.
         12    1    4    4    0    0 -0.67495201591E+01  0.42798244664E+01  0.14977865123E+01  0.81311920576E+01  0.00000000000E+00 0. -1.
</event>
<event>
 8    1  0.2512298E-006  0.9118800E+02  0.7816164E-02  0.1184000E+00
        -11   -1    0    0    0    0  0.00000000000E+00  0.00000000000E+00  0.45593999997E+02  0.45594000000E+02  0.51100000000E-03 0. -1.
         11   -1    0    0    0    0 -0.00000000000E+00 -0.00000000000E+00 -0.45593999997E+02  0.45594000000E+02  0.51100000000E-03 0.  1.
         23    2    1    2    0    0  0.00000000000E+00  0.00000000000E+00  0.00000000000E+00  0.91188000000E+02  0.91188000000E+02 0.  0.
    9900012    2    3    3    0    0  0.19406369928E+02  0.26291999808E+02 -0.16967683996E+02  0.54367099035E+02  0.40000033871E+02 0.  0.
         12    1    3    3    0    0 -0.19406369928E+02 -0.26291999808E+02  0.16967683996E+02  0.36820900965E+02  0.00000000000E+00 0. -1.
         11    1    4    4    0    0  0.34858571229E+01  0.75353898916E+01  0.77621439091E+01  0.11365921829E+02  0.51100000000E-03 0. -1.
        -11    1    4    4    0    0  0.17251854168E+01 -0.59967546734E+01 -0.71312560432E+01  0.94758716934E+01  0.51100000000E-03 0.  1.
        -12    1    4    4    0    0  0.14195327388E+02  0.24753364590E+02 -0.17598571862E+02  0.33525305513E+02  0.00000000000E+00 0.  1.
</event>
<event>
 8    1  0.2512298E-006  0.9118800E+02  0.7816164E-02  0.1184000E+00
        -11   -1    0    0    0    0  0.00000000000E+00  0.00000000000E+00  0.45593999997E+02  0.45594000000E+02  0.51100000000E-03 0.  1.
         11   -1    0    0    0    0 -0.00000000000E+00 -0.00000000000E+00 -0.45593999997E+02  0.45594000000E+02  0.51100000000E-03 0. -1.
         23    2    1    2    0    0  0.00000000000E+00  0.25535129566E-14  0.00000000000E+00  0.91188000000E+02  0.91188000000E+02 0.  0.
    9900012    2    3    3    0    0 -0.60570351442E+01  0.42892737424E+00  0.36316790849E+02  0.54367069118E+02  0.39999965669E+02 0.  0.
         12    1    3    3    0    0  0.60570351442E+01 -0.42892737424E+00 -0.36316790849E+02  0.36820930882E+02  0.00000000000E+00 0. -1.
         11    1    4    4    0    0  0.29705592962E+01  0.89432794052E+01  0.59573971823E+01  0.11148858708E+02  0.51100000000E-03 0. -1.
        -11    1    4    4    0    0 -0.90874089086E+01 -0.63714432730E+01  0.35741431610E+02  0.37424941200E+02  0.51100000000E-03 0.  1.
         12    1    4    4    0    0  0.59814468174E-01 -0.21429087579E+01 -0.53820379432E+01  0.57932692098E+01  0.00000000000E+00 0. -1.
</event>
<event>
 8    1  0.2512298E-006  0.9118800E+02  0.7816164E-02  0.1184000E+00
        -11   -1    0    0    0    0  0.00000000000E+00  0.00000000000E+00  0.45593999997E+02  0.45594000000E+02  0.51100000000E-03 0.  1.
         11   -1    0    0    0    0 -0.00000000000E+00 -0.00000000000E+00 -0.45593999997E+02  0.45594000000E+02  0.51100000000E-03 0. -1.
         23    2    1    2    0    0 -0.35527136788E-14  0.00000000000E+00 -0.71054273576E-14  0.91188000000E+02  0.91188000000E+02 0.  0.
    9900012    2    3    3    0    0 -0.17591586466E+02 -0.16302963559E+02 -0.27937953155E+02  0.54367085269E+02  0.40000002487E+02 0.  0.
        -12    1    3    3    0    0  0.17591586466E+02  0.16302963559E+02  0.27937953155E+02  0.36820914731E+02  0.00000000000E+00 0.  1.
         11    1    4    4    0    0  0.80772129352E+01 -0.99270602143E+00  0.18962708620E+01  0.83559964988E+01  0.51100000000E-03 0. -1.
        -11    1    4    4    0    0 -0.50602787177E+01 -0.25481121860E+01  0.19914040889E+01  0.60054131348E+01  0.51100000000E-03 0.  1.
         12    1    4    4    0    0 -0.20608520683E+02 -0.12762145351E+02 -0.31825628105E+02  0.40005675635E+02  0.00000000000E+00 0. -1.
</event>
<event>
 8    1  0.2512298E-006  0.9118800E+02  0.7816164E-02  0.1184000E+00
        -11   -1    0    0    0    0  0.00000000000E+00  0.00000000000E+00  0.45593999997E+02  0.45594000000E+02  0.51100000000E-03 0. -1.
         11   -1    0    0    0    0 -0.00000000000E+00 -0.00000000000E+00 -0.45593999997E+02  0.45594000000E+02  0.51100000000E-03 0.  1.
         23    2    1    2    0    0 -0.35527136788E-14 -0.17763568394E-14  0.00000000000E+00  0.91188000000E+02  0.91188000000E+02 0.  0.
    9900012    2    3    3    0    0 -0.12086735292E+02 -0.12597543767E+02 -0.32419011220E+02  0.54367087906E+02  0.40000008498E+02 0.  0.
         12    1    3    3    0    0  0.12086735292E+02  0.12597543767E+02  0.32419011220E+02  0.36820912094E+02  0.00000000000E+00 0. -1.
         11    1    4    4    0    0 -0.54411332933E-01  0.82229800254E+00 -0.57450151047E+00  0.10045829208E+01  0.51100000000E-03 0. -1.
        -11    1    4    4    0    0  0.98199235530E+01 -0.62799386341E+00 -0.25392532676E+02  0.27232443718E+02  0.51100000000E-03 0.  1.
         12    1    4    4    0    0 -0.21852247512E+02 -0.12791847906E+02 -0.64519770337E+01  0.26130061267E+02  0.00000000000E+00 0. -1.
</event>
<event>
 8    1  0.2512298E-006  0.9118800E+02  0.7816164E-02  0.1184000E+00
        -11   -1    0    0    0    0  0.00000000000E+00  0.00000000000E+00  0.45593999997E+02  0.45594000000E+02  0.51100000000E-03 0.  1.
         11   -1    0    0    0    0 -0.00000000000E+00 -0.00000000000E+00 -0.45593999997E+02  0.45594000000E+02  0.51100000000E-03 0. -1.
         23    2    1    2    0    0  0.00000000000E+00  0.35527136788E-14  0.00000000000E+00  0.91188000000E+02  0.91188000000E+02 0.  0.
    9900012    2    3    3    0    0 -0.13900514174E+02  0.28606334460E+02 -0.18553512120E+02  0.54367089127E+02  0.40000011282E+02 0.  0.
        -12    1    3    3    0    0  0.13900514174E+02 -0.28606334460E+02  0.18553512120E+02  0.36820910873E+02  0.00000000000E+00 0.  1.
         11    1    4    4    0    0 -0.56109241997E+01  0.12810789825E+02 -0.28739072287E+02  0.31961431170E+02  0.51100000000E-03 0. -1.
        -11    1    4    4    0    0 -0.89222046836E+01  0.76074159864E+01  0.55072546259E+01  0.12954086930E+02  0.51100000000E-03 0.  1.
         12    1    4    4    0    0  0.63261470936E+00  0.81881286491E+01  0.46783055402E+01  0.94515710267E+01  0.00000000000E+00 0. -1.
</event>
<event>
 8    1  0.2512298E-006  0.9118800E+02  0.7816164E-02  0.1184000E+00
        -11   -1    0    0    0    0  0.00000000000E+00  0.00000000000E+00  0.45593999997E+02  0.45594000000E+02  0.51100000000E-03 0.  1.
         11   -1    0    0    0    0 -0.00000000000E+00 -0.00000000000E+00 -0.45593999997E+02  0.45594000000E+02  0.51100000000E-03 0. -1.
         23    2    1    2    0    0  0.17763568394E-14  0.00000000000E+00 -0.35527136788E-14  0.91188000000E+02  0.91188000000E+02 0.  0.
    9900012    2    3    3    0    0 -0.12489755006E+02  0.13328936646E+02 -0.31970693107E+02  0.54367085427E+02  0.40000002848E+02 0.  0.
        -12    1    3    3    0    0  0.12489755006E+02 -0.13328936646E+02  0.31970693107E+02  0.36820914573E+02  0.00000000000E+00 0.  1.
         11    1    4    4    0    0 -0.11947458957E+02  0.11024520084E+02 -0.27699206447E+01  0.16491036330E+02  0.51100000000E-03 0. -1.
        -11    1    4    4    0    0 -0.88168561459E+00 -0.92843588377E+01 -0.40222985676E+01  0.10156553282E+02  0.51100000000E-03 0.  1.
        -12    1    4    4    0    0  0.33938956510E+00  0.11588775400E+02 -0.25178473895E+02  0.27719495815E+02  0.00000000000E+00 0.  1.
</event>
<event>
 8    1  0.2512298E-006  0.9118800E+02  0.7816164E-02  0.1184000E+00
        -11   -1    0    0    0    0  0.00000000000E+00  0.00000000000E+00  0.45593999997E+02  0.45594000000E+02  0.51100000000E-03 0. -1.
         11   -1    0    0    0    0 -0.00000000000E+00 -0.00000000000E+00 -0.45593999997E+02  0.45594000000E+02  0.51100000000E-03 0.  1.
         23    2    1    2    0    0  0.44408920985E-15  0.00000000000E+00 -0.71054273576E-14  0.91188000000E+02  0.91188000000E+02 0.  0.
    9900012    2    3    3    0    0  0.36843127047E+01  0.14932097784E+02 -0.33454953147E+02  0.54367141856E+02  0.40000131490E+02 0.  0.
         12    1    3    3    0    0 -0.36843127047E+01 -0.14932097784E+02  0.33454953147E+02  0.36820858144E+02  0.00000000000E+00 0. -1.
         11    1    4    4    0    0  0.32649058697E+01  0.24584461052E+00  0.13185015707E+01  0.35296595535E+01  0.51100000000E-03 0. -1.
        -11    1    4    4    0    0  0.41259039751E+01 -0.17235097548E+01 -0.33683574596E+02  0.33979063661E+02  0.51100000000E-03 0.  1.
         12    1    4    4    0    0 -0.37064971401E+01  0.16409762928E+02 -0.10898801224E+01  0.16858418642E+02  0.00000000000E+00 0. -1.
</event>
<event>
 8    1  0.2512298E-006  0.9118800E+02  0.7816164E-02  0.1184000E+00
        -11   -1    0    0    0    0  0.00000000000E+00  0.00000000000E+00  0.45593999997E+02  0.45594000000E+02  0.51100000000E-03 0.  1.
         11   -1    0    0    0    0 -0.00000000000E+00 -0.00000000000E+00 -0.45593999997E+02  0.45594000000E+02  0.51100000000E-03 0. -1.
         23    2    1    2    0    0  0.00000000000E+00  0.17763568394E-14  0.11102230246E-14  0.91188000000E+02  0.91188000000E+02 0.  0.
    9900012    2    3    3    0    0  0.33974305023E+02  0.14188109742E+02  0.47356149963E+00  0.54367080398E+02  0.39999991383E+02 0.  0.
        -12    1    3    3    0    0 -0.33974305023E+02 -0.14188109742E+02 -0.47356149963E+00  0.36820919602E+02  0.00000000000E+00 0.  1.
         11    1    4    4    0    0  0.15200959790E+02  0.90959600184E+01 -0.13377096663E+02  0.22198026547E+02  0.51100000000E-03 0. -1.
        -11    1    4    4    0    0  0.56649362157E+01  0.94541528394E+01  0.14647592165E+02  0.18330970098E+02  0.51100000000E-03 0.  1.
        -12    1    4    4    0    0  0.13108409018E+02 -0.43620031156E+01 -0.79693400235E+00  0.13838083753E+02  0.00000000000E+00 0.  1.
</event>
<event>
 8    1  0.2512298E-006  0.9118800E+02  0.7816164E-02  0.1184000E+00
        -11   -1    0    0    0    0  0.00000000000E+00  0.00000000000E+00  0.45593999997E+02  0.45594000000E+02  0.51100000000E-03 0.  1.
         11   -1    0    0    0    0 -0.00000000000E+00 -0.00000000000E+00 -0.45593999997E+02  0.45594000000E+02  0.51100000000E-03 0. -1.
         23    2    1    2    0    0 -0.35527136788E-14  0.00000000000E+00  0.00000000000E+00  0.91188000000E+02  0.91188000000E+02 0.  0.
    9900012    2    3    3    0    0 -0.30915518982E+02 -0.13093546535E+02 -0.15118530809E+02  0.54367078656E+02  0.39999987413E+02 0.  0.
         12    1    3    3    0    0  0.30915518982E+02  0.13093546535E+02  0.15118530809E+02  0.36820921344E+02  0.00000000000E+00 0. -1.
         11    1    4    4    0    0 -0.16941013722E+01 -0.79072924463E+01  0.14736305249E+01  0.82199051379E+01  0.51100000000E-03 0. -1.
        -11    1    4    4    0    0 -0.55744699448E+01 -0.12674632015E+02  0.34361691968E+01  0.14266333478E+02  0.51100000000E-03 0.  1.
        -12    1    4    4    0    0 -0.23646947665E+02  0.74883779269E+01 -0.20028330531E+02  0.31880840041E+02  0.00000000000E+00 0.  1.
</event>
<event>
 8    1  0.2512298E-006  0.9118800E+02  0.7816164E-02  0.1184000E+00
        -11   -1    0    0    0    0  0.00000000000E+00  0.00000000000E+00  0.45593999997E+02  0.45594000000E+02  0.51100000000E-03 0.  1.
         11   -1    0    0    0    0 -0.00000000000E+00 -0.00000000000E+00 -0.45593999997E+02  0.45594000000E+02  0.51100000000E-03 0. -1.
         23    2    1    2    0    0  0.00000000000E+00 -0.17763568394E-14  0.71054273576E-14  0.91188000000E+02  0.91188000000E+02 0.  0.
    9900012    2    3    3    0    0 -0.51914163529E+01 -0.11060921779E+02  0.34734477417E+02  0.54367099471E+02  0.40000034864E+02 0.  0.
         12    1    3    3    0    0  0.51914163529E+01  0.11060921779E+02 -0.34734477417E+02  0.36820900529E+02  0.00000000000E+00 0. -1.
         11    1    4    4    0    0 -0.14493734077E+01  0.65446219024E+01  0.23556141387E+02  0.24491315939E+02  0.51100000000E-03 0.  1.
        -11    1    4    4    0    0 -0.94104745894E+01 -0.91784356055E+01  0.14130250467E+02  0.19299344307E+02  0.51100000000E-03 0. -1.
        -12    1    4    4    0    0  0.56684316442E+01 -0.84271080757E+01 -0.29519144372E+01  0.10576439225E+02  0.00000000000E+00 0.  1.
</event>
<event>
 8    1  0.2512298E-006  0.9118800E+02  0.7816164E-02  0.1184000E+00
        -11   -1    0    0    0    0  0.00000000000E+00  0.00000000000E+00  0.45593999997E+02  0.45594000000E+02  0.51100000000E-03 0.  1.
         11   -1    0    0    0    0 -0.00000000000E+00 -0.00000000000E+00 -0.45593999997E+02  0.45594000000E+02  0.51100000000E-03 0. -1.
         23    2    1    2    0    0  0.71054273576E-14  0.00000000000E+00  0.00000000000E+00  0.91188000000E+02  0.91188000000E+02 0.  0.
    9900012    2    3    3    0    0  0.33905065159E+02 -0.12623750775E+02  0.68458024319E+01  0.54367115465E+02  0.40000071324E+02 0.  0.
         12    1    3    3    0    0 -0.33905065159E+02  0.12623750775E+02 -0.68458024319E+01  0.36820884535E+02  0.00000000000E+00 0. -1.
         11    1    4    4    0    0 -0.30936215018E+01 -0.10517204304E+02  0.96613508507E+00  0.11005248641E+02  0.51100000000E-03 0. -1.
        -11    1    4    4    0    0  0.37530002079E+02 -0.59146812375E+01  0.22269574358E+01  0.38058426792E+02  0.51100000000E-03 0.  1.
        -12    1    4    4    0    0 -0.53131541909E+00  0.38081347667E+01  0.36527099110E+01  0.53034400317E+01  0.00000000000E+00 0.  1.
</event>
<event>
 8    1  0.2512298E-006  0.9118800E+02  0.7816164E-02  0.1184000E+00
        -11   -1    0    0    0    0  0.00000000000E+00  0.00000000000E+00  0.45593999997E+02  0.45594000000E+02  0.51100000000E-03 0. -1.
         11   -1    0    0    0    0 -0.00000000000E+00 -0.00000000000E+00 -0.45593999997E+02  0.45594000000E+02  0.51100000000E-03 0.  1.
         23    2    1    2    0    0  0.00000000000E+00  0.00000000000E+00 -0.71054273576E-14  0.91188000000E+02  0.91188000000E+02 0.  0.
    9900012    2    3    3    0    0 -0.15828512304E+02  0.50915656164E+01 -0.32852915682E+02  0.54367083241E+02  0.39999997864E+02 0.  0.
         12    1    3    3    0    0  0.15828512304E+02 -0.50915656164E+01  0.32852915682E+02  0.36820916759E+02  0.00000000000E+00 0. -1.
         11    1    4    4    0    0 -0.12992365192E+02 -0.15858629052E+01  0.13309817484E+01  0.13156292301E+02  0.51100000000E-03 0. -1.
        -11    1    4    4    0    0 -0.62925025466E+01  0.21815508615E+01 -0.34868380065E+02  0.35498713795E+02  0.51100000000E-03 0.  1.
         12    1    4    4    0    0  0.34563554345E+01  0.44958776601E+01  0.68448263498E+00  0.57120771443E+01  0.00000000000E+00 0. -1.
</event>
<event>
 8    1  0.2512298E-006  0.9118800E+02  0.7816164E-02  0.1184000E+00
        -11   -1    0    0    0    0  0.00000000000E+00  0.00000000000E+00  0.45593999997E+02  0.45594000000E+02  0.51100000000E-03 0.  1.
         11   -1    0    0    0    0 -0.00000000000E+00 -0.00000000000E+00 -0.45593999997E+02  0.45594000000E+02  0.51100000000E-03 0. -1.
         23    2    1    2    0    0  0.00000000000E+00  0.88817841970E-15 -0.71054273576E-14  0.91188000000E+02  0.91188000000E+02 0.  0.
    9900012    2    3    3    0    0  0.15973496533E+02  0.29202151716E+01 -0.33046903205E+02  0.54367108382E+02  0.40000055178E+02 0.  0.
        -12    1    3    3    0    0 -0.15973496533E+02 -0.29202151716E+01  0.33046903205E+02  0.36820891618E+02  0.00000000000E+00 0.  1.
         11    1    4    4    0    0  0.56126121195E+01  0.57622462345E+01 -0.40836797162E+01  0.90211604995E+01  0.51100000000E-03 0. -1.
        -11    1    4    4    0    0 -0.57464799513E+01  0.89833746941E+01 -0.63985599945E+00  0.10683279866E+02  0.51100000000E-03 0.  1.
         12    1    4    4    0    0  0.16107364365E+02 -0.11825405757E+02 -0.28323367489E+02  0.34662668017E+02  0.00000000000E+00 0. -1.
</event>
<event>
 8    1  0.2512298E-006  0.9118800E+02  0.7816164E-02  0.1184000E+00
        -11   -1    0    0    0    0  0.00000000000E+00  0.00000000000E+00  0.45593999997E+02  0.45594000000E+02  0.51100000000E-03 0.  1.
         11   -1    0    0    0    0 -0.00000000000E+00 -0.00000000000E+00 -0.45593999997E+02  0.45594000000E+02  0.51100000000E-03 0. -1.
         23    2    1    2    0    0  0.22204460493E-15  0.00000000000E+00  0.71054273576E-14  0.91188000000E+02  0.91188000000E+02 0.  0.
    9900012    2    3    3    0    0  0.13841357342E+01  0.21166478705E+01 -0.36733972581E+02  0.54367071555E+02  0.39999971225E+02 0.  0.
        -12    1    3    3    0    0 -0.13841357342E+01 -0.21166478705E+01  0.36733972581E+02  0.36820928445E+02  0.00000000000E+00 0.  1.
         11    1    4    4    0    0 -0.39636151315E+00  0.41436060950E+01  0.52894304714E+01  0.67308728180E+01  0.51100000000E-03 0. -1.
        -11    1    4    4    0    0 -0.15836250445E+00 -0.36973809842E+01  0.15322441814E+01  0.40054309778E+01  0.51100000000E-03 0.  1.
         12    1    4    4    0    0  0.19388597518E+01  0.16704227597E+01 -0.43555647234E+02  0.43630767760E+02  0.00000000000E+00 0. -1.
</event>
<event>
 8    1  0.2512298E-006  0.9118800E+02  0.7816164E-02  0.1184000E+00
        -11   -1    0    0    0    0  0.00000000000E+00  0.00000000000E+00  0.45593999997E+02  0.45594000000E+02  0.51100000000E-03 0. -1.
         11   -1    0    0    0    0 -0.00000000000E+00 -0.00000000000E+00 -0.45593999997E+02  0.45594000000E+02  0.51100000000E-03 0.  1.
         23    2    1    2    0    0 -0.35527136788E-14 -0.17763568394E-14 -0.35527136788E-14  0.91188000000E+02  0.91188000000E+02 0.  0.
    9900012    2    3    3    0    0  0.24581905290E+02  0.13362341264E+02 -0.23936551437E+02  0.54367072168E+02  0.39999972621E+02 0.  0.
         12    1    3    3    0    0 -0.24581905290E+02 -0.13362341264E+02  0.23936551437E+02  0.36820927832E+02  0.00000000000E+00 0. -1.
         11    1    4    4    0    0  0.20121885741E+02  0.14272189962E+01  0.37229007336E+01  0.20513098985E+02  0.51100000000E-03 0. -1.
        -11    1    4    4    0    0  0.27459178453E+01  0.34913673310E+00  0.96077402135E+00  0.29300252990E+01  0.51100000000E-03 0.  1.
         12    1    4    4    0    0  0.17141017038E+01  0.11585985535E+02 -0.28620226192E+02  0.30923947884E+02  0.00000000000E+00 0. -1.
</event>
<event>
 8    1  0.2512298E-006  0.9118800E+02  0.7816164E-02  0.1184000E+00
        -11   -1    0    0    0    0  0.00000000000E+00  0.00000000000E+00  0.45593999997E+02  0.45594000000E+02  0.51100000000E-03 0.  1.
         11   -1    0    0    0    0 -0.00000000000E+00 -0.00000000000E+00 -0.45593999997E+02  0.45594000000E+02  0.51100000000E-03 0. -1.
         23    2    1    2    0    0  0.35527136788E-14 -0.35527136788E-14  0.17763568394E-14  0.91188000000E+02  0.91188000000E+02 0.  0.
    9900012    2    3    3    0    0 -0.22526281736E+02  0.28352526521E+02 -0.66694402817E+01  0.54367074392E+02  0.39999977691E+02 0.  0.
        -12    1    3    3    0    0  0.22526281736E+02 -0.28352526521E+02  0.66694402817E+01  0.36820925608E+02  0.00000000000E+00 0.  1.
         11    1    4    4    0    0 -0.43646575717E+01  0.12109813567E+01  0.98660295779E+01  0.10856115855E+02  0.51100000000E-03 0. -1.
        -11    1    4    4    0    0 -0.30408591763E+01 -0.43188060563E+01 -0.13933297325E+01  0.54626255854E+01  0.51100000000E-03 0.  1.
         12    1    4    4    0    0 -0.15120764988E+02  0.31460351220E+02 -0.15142140127E+02  0.38048332951E+02  0.00000000000E+00 0. -1.
</event>
<event>
 8    1  0.2512298E-006  0.9118800E+02  0.7816164E-02  0.1184000E+00
        -11   -1    0    0    0    0  0.00000000000E+00  0.00000000000E+00  0.45593999997E+02  0.45594000000E+02  0.51100000000E-03 0.  1.
         11   -1    0    0    0    0 -0.00000000000E+00 -0.00000000000E+00 -0.45593999997E+02  0.45594000000E+02  0.51100000000E-03 0. -1.
         23    2    1    2    0    0 -0.71054273576E-14 -0.88817841970E-15  0.00000000000E+00  0.91188000000E+02  0.91188000000E+02 0.  0.
    9900012    2    3    3    0    0 -0.34953680311E+02  0.22542398514E+01  0.11355098323E+02  0.54367087158E+02  0.40000006794E+02 0.  0.
        -12    1    3    3    0    0  0.34953680311E+02 -0.22542398514E+01 -0.11355098323E+02  0.36820912842E+02  0.00000000000E+00 0.  1.
         11    1    4    4    0    0 -0.17535407438E+02  0.26760147442E+00  0.39864408742E+01  0.17984822370E+02  0.51100000000E-03 0. -1.
        -11    1    4    4    0    0  0.18384929989E+01  0.12821495642E+02  0.59137107227E+01  0.14238777398E+02  0.51100000000E-03 0.  1.
        -12    1    4    4    0    0 -0.19256765872E+02 -0.10834857265E+02  0.14549467260E+01  0.22143487390E+02  0.00000000000E+00 0.  1.
</event>
<event>
 8    1  0.2512298E-006  0.9118800E+02  0.7816164E-02  0.1184000E+00
        -11   -1    0    0    0    0  0.00000000000E+00  0.00000000000E+00  0.45593999997E+02  0.45594000000E+02  0.51100000000E-03 0.  1.
         11   -1    0    0    0    0 -0.00000000000E+00 -0.00000000000E+00 -0.45593999997E+02  0.45594000000E+02  0.51100000000E-03 0. -1.
         23    2    1    2    0    0  0.00000000000E+00  0.00000000000E+00  0.00000000000E+00  0.91188000000E+02  0.91188000000E+02 0.  0.
    9900012    2    3    3    0    0  0.59333718707E+01 -0.25113903405E+02 -0.26265268797E+02  0.54367117461E+02  0.40000075875E+02 0.  0.
        -12    1    3    3    0    0 -0.59333718707E+01  0.25113903405E+02  0.26265268797E+02  0.36820882539E+02  0.00000000000E+00 0.  1.
         11    1    4    4    0    0  0.77931678653E+01 -0.12689379895E+02 -0.25036397773E+02  0.29130311382E+02  0.51100000000E-03 0. -1.
        -11    1    4    4    0    0 -0.93763622476E+01 -0.14481878226E+02 -0.21656326611E+01  0.17387666060E+02  0.51100000000E-03 0.  1.
        -12    1    4    4    0    0  0.75165662530E+01  0.20573547162E+01  0.93676163639E+00  0.78491400183E+01  0.00000000000E+00 0.  1.
</event>
<event>
 8    1  0.2512298E-006  0.9118800E+02  0.7816164E-02  0.1184000E+00
        -11   -1    0    0    0    0  0.00000000000E+00  0.00000000000E+00  0.45593999997E+02  0.45594000000E+02  0.51100000000E-03 0.  1.
         11   -1    0    0    0    0 -0.00000000000E+00 -0.00000000000E+00 -0.45593999997E+02  0.45594000000E+02  0.51100000000E-03 0. -1.
         23    2    1    2    0    0 -0.71054273576E-14  0.88817841970E-15 -0.44408920985E-15  0.91188000000E+02  0.91188000000E+02 0.  0.
    9900012    2    3    3    0    0 -0.36713742967E+02 -0.14378079742E+01  0.24110020703E+01  0.54367093637E+02  0.40000021565E+02 0.  0.
        -12    1    3    3    0    0  0.36713742967E+02  0.14378079742E+01 -0.24110020703E+01  0.36820906363E+02  0.00000000000E+00 0.  1.
         11    1    4    4    0    0 -0.36289895531E+01  0.46847705718E+01  0.95893922872E+01  0.11272669834E+02  0.51100000000E-03 0. -1.
        -11    1    4    4    0    0  0.29046935778E+01  0.33394933468E+01 -0.36094100533E+01  0.57111559065E+01  0.51100000000E-03 0.  1.
         12    1    4    4    0    0 -0.35989446991E+02 -0.94620718929E+01 -0.35689801636E+01  0.37383267897E+02  0.00000000000E+00 0. -1.
</event>
<event>
 8    1  0.2512298E-006  0.9118800E+02  0.7816164E-02  0.1184000E+00
        -11   -1    0    0    0    0  0.00000000000E+00  0.00000000000E+00  0.45593999997E+02  0.45594000000E+02  0.51100000000E-03 0.  1.
         11   -1    0    0    0    0 -0.00000000000E+00 -0.00000000000E+00 -0.45593999997E+02  0.45594000000E+02  0.51100000000E-03 0. -1.
         23    2    1    2    0    0 -0.35527136788E-14  0.44408920985E-15  0.00000000000E+00  0.91188000000E+02  0.91188000000E+02 0.  0.
    9900012    2    3    3    0    0 -0.16837326576E+02 -0.34909189109E+01  0.32559148878E+02  0.54367078546E+02  0.39999987161E+02 0.  0.
         12    1    3    3    0    0  0.16837326576E+02  0.34909189109E+01 -0.32559148878E+02  0.36820921454E+02  0.00000000000E+00 0. -1.
         11    1    4    4    0    0  0.88744494881E+01  0.72229238008E+01  0.39654379591E+01  0.12109962032E+02  0.51100000000E-03 0. -1.
        -11    1    4    4    0    0 -0.84567077719E+01 -0.10058174681E+02  0.16877394402E+02  0.21389932826E+02  0.51100000000E-03 0.  1.
         12    1    4    4    0    0 -0.17255068292E+02 -0.65566803046E+00  0.11716316518E+02  0.20867183688E+02  0.00000000000E+00 0. -1.
</event>
<event>
 8    1  0.2512298E-006  0.9118800E+02  0.7816164E-02  0.1184000E+00
        -11   -1    0    0    0    0  0.00000000000E+00  0.00000000000E+00  0.45593999997E+02  0.45594000000E+02  0.51100000000E-03 0. -1.
         11   -1    0    0    0    0 -0.00000000000E+00 -0.00000000000E+00 -0.45593999997E+02  0.45594000000E+02  0.51100000000E-03 0.  1.
         23    2    1    2    0    0  0.00000000000E+00  0.00000000000E+00  0.00000000000E+00  0.91188000000E+02  0.91188000000E+02 0.  0.
    9900012    2    3    3    0    0 -0.26702382698E+02  0.19517201078E+02  0.16181509753E+02  0.54367086954E+02  0.40000006328E+02 0.  0.
        -12    1    3    3    0    0  0.26702382698E+02 -0.19517201078E+02 -0.16181509753E+02  0.36820913046E+02  0.00000000000E+00 0.  1.
         11    1    4    4    0    0 -0.78868484412E+01  0.20944156017E+02  0.43425884231E+01  0.22797327126E+02  0.51100000000E-03 0. -1.
        -11    1    4    4    0    0 -0.22910024587E+02 -0.53525838879E+01  0.86798807996E+01  0.25077075423E+02  0.51100000000E-03 0.  1.
        -12    1    4    4    0    0  0.40944903298E+01  0.39256289490E+01  0.31590405301E+01  0.64926844046E+01  0.00000000000E+00 0.  1.
</event>
<event>
 8    1  0.2512298E-006  0.9118800E+02  0.7816164E-02  0.1184000E+00
        -11   -1    0    0    0    0  0.00000000000E+00  0.00000000000E+00  0.45593999997E+02  0.45594000000E+02  0.51100000000E-03 0. -1.
         11   -1    0    0    0    0 -0.00000000000E+00 -0.00000000000E+00 -0.45593999997E+02  0.45594000000E+02  0.51100000000E-03 0.  1.
         23    2    1    2    0    0  0.00000000000E+00 -0.74940054162E-15  0.00000000000E+00  0.91188000000E+02  0.91188000000E+02 0.  0.
    9900012    2    3    3    0    0 -0.28868718122E+02 -0.15456380447E+00  0.22855052405E+02  0.54367079365E+02  0.39999989029E+02 0.  0.
        -12    1    3    3    0    0  0.28868718122E+02  0.15456380447E+00 -0.22855052405E+02  0.36820920635E+02  0.00000000000E+00 0.  1.
         11    1    4    4    0    0 -0.95270183567E+01 -0.63369135532E+01 -0.29178904089E+01  0.11808244444E+02  0.51100000000E-03 0. -1.
        -11    1    4    4    0    0 -0.25452817028E+02  0.71931553518E+01  0.24857982013E+02  0.36297474411E+02  0.51100000000E-03 0.  1.
        -12    1    4    4    0    0  0.61111172632E+01 -0.10108056030E+01  0.91496080081E+00  0.62613605102E+01  0.00000000000E+00 0.  1.
</event>
<event>
 8    1  0.2512298E-006  0.9118800E+02  0.7816164E-02  0.1184000E+00
        -11   -1    0    0    0    0  0.00000000000E+00  0.00000000000E+00  0.45593999997E+02  0.45594000000E+02  0.51100000000E-03 0.  1.
         11   -1    0    0    0    0 -0.00000000000E+00 -0.00000000000E+00 -0.45593999997E+02  0.45594000000E+02  0.51100000000E-03 0. -1.
         23    2    1    2    0    0  0.00000000000E+00  0.00000000000E+00  0.00000000000E+00  0.91188000000E+02  0.91188000000E+02 0.  0.
    9900012    2    3    3    0    0  0.29100018376E+02 -0.94550325875E+01 -0.20483444534E+02  0.54367079171E+02  0.39999988586E+02 0.  0.
        -12    1    3    3    0    0 -0.29100018376E+02  0.94550325875E+01  0.20483444534E+02  0.36820920829E+02  0.00000000000E+00 0.  1.
         11    1    4    4    0    0  0.80250963999E+01  0.22530608857E-02 -0.13036453277E+02  0.15308536560E+02  0.51100000000E-03 0. -1.
        -11    1    4    4    0    0  0.18672307624E+02  0.81603139796E+01 -0.20690194317E+01  0.20482349424E+02  0.51100000000E-03 0.  1.
         12    1    4    4    0    0  0.24026143522E+01 -0.17617599628E+02 -0.53779718256E+01  0.18576193187E+02  0.00000000000E+00 0. -1.
</event>
<event>
 8    1  0.2512298E-006  0.9118800E+02  0.7816164E-02  0.1184000E+00
        -11   -1    0    0    0    0  0.00000000000E+00  0.00000000000E+00  0.45593999997E+02  0.45594000000E+02  0.51100000000E-03 0. -1.
         11   -1    0    0    0    0 -0.00000000000E+00 -0.00000000000E+00 -0.45593999997E+02  0.45594000000E+02  0.51100000000E-03 0.  1.
         23    2    1    2    0    0 -0.98185348740E-15 -0.88817841970E-15  0.00000000000E+00  0.91188000000E+02  0.91188000000E+02 0.  0.
    9900012    2    3    3    0    0 -0.20133048125E-01  0.52587877252E+01  0.36443439625E+02  0.54367088206E+02  0.40000009183E+02 0.  0.
        -12    1    3    3    0    0  0.20133048125E-01 -0.52587877252E+01 -0.36443439625E+02  0.36820911794E+02  0.00000000000E+00 0.  1.
         11    1    4    4    0    0 -0.97295342810E+01  0.54836097966E+01  0.10334686634E+02  0.15216424081E+02  0.51100000000E-03 0. -1.
        -11    1    4    4    0    0  0.12957326965E+02  0.11196302147E+02  0.13282296331E+02  0.21671845789E+02  0.51100000000E-03 0.  1.
        -12    1    4    4    0    0 -0.32479257319E+01 -0.11421124218E+02  0.12826456660E+02  0.17478818336E+02  0.00000000000E+00 0.  1.
</event>
<event>
 8    1  0.2512298E-006  0.9118800E+02  0.7816164E-02  0.1184000E+00
        -11   -1    0    0    0    0  0.00000000000E+00  0.00000000000E+00  0.45593999997E+02  0.45594000000E+02  0.51100000000E-03 0. -1.
         11   -1    0    0    0    0 -0.00000000000E+00 -0.00000000000E+00 -0.45593999997E+02  0.45594000000E+02  0.51100000000E-03 0.  1.
         23    2    1    2    0    0 -0.35527136788E-14  0.00000000000E+00  0.00000000000E+00  0.91188000000E+02  0.91188000000E+02 0.  0.
    9900012    2    3    3    0    0 -0.24577256272E+02 -0.10501238904E+02  0.25327073436E+02  0.54367106567E+02  0.40000051041E+02 0.  0.
        -12    1    3    3    0    0  0.24577256272E+02  0.10501238904E+02 -0.25327073436E+02  0.36820893433E+02  0.00000000000E+00 0.  1.
         11    1    4    4    0    0 -0.20624375215E+02 -0.15746927531E+02  0.55186613081E+01  0.26528969120E+02  0.51100000000E-03 0. -1.
        -11    1    4    4    0    0 -0.72495824972E+01 -0.61989480929E+00  0.38938554522E+00  0.72864488829E+01  0.51100000000E-03 0.  1.
        -12    1    4    4    0    0  0.32967014400E+01  0.58655834367E+01  0.19419026582E+02  0.20551688564E+02  0.00000000000E+00 0.  1.
</event>
<event>
 8    1  0.2512298E-006  0.9118800E+02  0.7816164E-02  0.1184000E+00
        -11   -1    0    0    0    0  0.00000000000E+00  0.00000000000E+00  0.45593999997E+02  0.45594000000E+02  0.51100000000E-03 0. -1.
         11   -1    0    0    0    0 -0.00000000000E+00 -0.00000000000E+00 -0.45593999997E+02  0.45594000000E+02  0.51100000000E-03 0.  1.
         23    2    1    2    0    0  0.00000000000E+00 -0.17763568394E-14  0.00000000000E+00  0.91188000000E+02  0.91188000000E+02 0.  0.
    9900012    2    3    3    0    0  0.29139809983E+02 -0.15169166367E+02  0.16629731479E+02  0.54367080631E+02  0.39999991914E+02 0.  0.
        -12    1    3    3    0    0 -0.29139809983E+02  0.15169166367E+02 -0.16629731479E+02  0.36820919369E+02  0.00000000000E+00 0.  1.
         11    1    4    4    0    0  0.61959914126E-01 -0.65045397891E+01  0.14725405057E+02  0.16098149932E+02  0.51100000000E-03 0. -1.
        -11    1    4    4    0    0  0.19744393677E+02  0.26824712494E+01  0.91041883153E+01  0.21907144470E+02  0.51100000000E-03 0.  1.
        -12    1    4    4    0    0  0.93334563920E+01 -0.11347097827E+02 -0.71998618928E+01  0.16361786229E+02  0.00000000000E+00 0.  1.
</event>
<event>
 8    1  0.2512298E-006  0.9118800E+02  0.7816164E-02  0.1184000E+00
        -11   -1    0    0    0    0  0.00000000000E+00  0.00000000000E+00  0.45593999997E+02  0.45594000000E+02  0.51100000000E-03 0.  1.
         11   -1    0    0    0    0 -0.00000000000E+00 -0.00000000000E+00 -0.45593999997E+02  0.45594000000E+02  0.51100000000E-03 0. -1.
         23    2    1    2    0    0  0.00000000000E+00  0.00000000000E+00 -0.35527136788E-14  0.91188000000E+02  0.91188000000E+02 0.  0.
    9900012    2    3    3    0    0  0.27693637878E+02  0.38286195192E+01  0.23962143241E+02  0.54367079112E+02  0.39999988451E+02 0.  0.
         12    1    3    3    0    0 -0.27693637878E+02 -0.38286195192E+01 -0.23962143241E+02  0.36820920888E+02  0.00000000000E+00 0. -1.
         11    1    4    4    0    0  0.70015148239E+01 -0.29978162064E+01 -0.10607348300E+02  0.13058481920E+02  0.51100000000E-03 0. -1.
        -11    1    4    4    0    0  0.56864719305E+01  0.48352330578E+01  0.12044887053E+02  0.14170206284E+02  0.51100000000E-03 0.  1.
         12    1    4    4    0    0  0.15005651124E+02  0.19912026678E+01  0.22524604488E+02  0.27138390908E+02  0.00000000000E+00 0. -1.
</event>
<event>
 8    1  0.2512298E-006  0.9118800E+02  0.7816164E-02  0.1184000E+00
        -11   -1    0    0    0    0  0.00000000000E+00  0.00000000000E+00  0.45593999997E+02  0.45594000000E+02  0.51100000000E-03 0.  1.
         11   -1    0    0    0    0 -0.00000000000E+00 -0.00000000000E+00 -0.45593999997E+02  0.45594000000E+02  0.51100000000E-03 0. -1.
         23    2    1    2    0    0 -0.44408920985E-15  0.00000000000E+00  0.00000000000E+00  0.91188000000E+02  0.91188000000E+02 0.  0.
    9900012    2    3    3    0    0 -0.53861355606E+00 -0.18908400212E+02  0.31590503871E+02  0.54367114106E+02  0.40000068228E+02 0.  0.
         12    1    3    3    0    0  0.53861355606E+00  0.18908400212E+02 -0.31590503871E+02  0.36820885894E+02  0.00000000000E+00 0. -1.
         11    1    4    4    0    0 -0.85769839926E+01 -0.14719720273E+02  0.29249930088E+02  0.33849567645E+02  0.51100000000E-03 0. -1.
        -11    1    4    4    0    0 -0.36132529737E+01 -0.73888966603E+01  0.18154795946E+01  0.84230254260E+01  0.51100000000E-03 0.  1.
         12    1    4    4    0    0  0.11651623410E+02  0.32002167214E+01  0.52509418863E+00  0.12094521035E+02  0.00000000000E+00 0. -1.
</event>
<event>
 8    1  0.2512298E-006  0.9118800E+02  0.7816164E-02  0.1184000E+00
        -11   -1    0    0    0    0  0.00000000000E+00  0.00000000000E+00  0.45593999997E+02  0.45594000000E+02  0.51100000000E-03 0.  1.
         11   -1    0    0    0    0 -0.00000000000E+00 -0.00000000000E+00 -0.45593999997E+02  0.45594000000E+02  0.51100000000E-03 0. -1.
         23    2    1    2    0    0  0.00000000000E+00  0.00000000000E+00 -0.35527136788E-14  0.91188000000E+02  0.91188000000E+02 0.  0.
    9900012    2    3    3    0    0  0.25763165231E+02  0.83845688830E+01  0.24934691110E+02  0.54367075259E+02  0.39999979667E+02 0.  0.
         12    1    3    3    0    0 -0.25763165231E+02 -0.83845688830E+01 -0.24934691110E+02  0.36820924741E+02  0.00000000000E+00 0. -1.
         11    1    4    4    0    0  0.97107870712E+01  0.12726355980E+02 -0.71321519937E+01  0.17525042493E+02  0.51100000000E-03 0. -1.
        -11    1    4    4    0    0  0.10468300157E+02  0.16222007963E+00  0.14658907942E+02  0.18013750466E+02  0.51100000000E-03 0.  1.
         12    1    4    4    0    0  0.55840780029E+01 -0.45040071763E+01  0.17407935161E+02  0.18828282300E+02  0.00000000000E+00 0. -1.
</event>
<event>
 8    1  0.2512298E-006  0.9118800E+02  0.7816164E-02  0.1184000E+00
        -11   -1    0    0    0    0  0.00000000000E+00  0.00000000000E+00  0.45593999997E+02  0.45594000000E+02  0.51100000000E-03 0. -1.
         11   -1    0    0    0    0 -0.00000000000E+00 -0.00000000000E+00 -0.45593999997E+02  0.45594000000E+02  0.51100000000E-03 0.  1.
         23    2    1    2    0    0  0.00000000000E+00  0.71054273576E-14 -0.17763568394E-14  0.91188000000E+02  0.91188000000E+02 0.  0.
    9900012    2    3    3    0    0  0.39832628278E+01 -0.34495289222E+02  0.12246990973E+02  0.54367080006E+02  0.39999990490E+02 0.  0.
        -12    1    3    3    0    0 -0.39832628278E+01  0.34495289222E+02 -0.12246990973E+02  0.36820919994E+02  0.00000000000E+00 0.  1.
         11    1    4    4    0    0 -0.33745685278E+01  0.48672061815E+01  0.12241000443E+02  0.13598510980E+02  0.51100000000E-03 0. -1.
        -11    1    4    4    0    0  0.26253621663E+01 -0.11026582520E+02 -0.34128519602E+01  0.11837466255E+02  0.51100000000E-03 0.  1.
        -12    1    4    4    0    0  0.47324691892E+01 -0.28335912883E+02  0.34188424905E+01  0.28931102771E+02  0.00000000000E+00 0.  1.
</event>
<event>
 8    1  0.2512298E-006  0.9118800E+02  0.7816164E-02  0.1184000E+00
        -11   -1    0    0    0    0  0.00000000000E+00  0.00000000000E+00  0.45593999997E+02  0.45594000000E+02  0.51100000000E-03 0. -1.
         11   -1    0    0    0    0 -0.00000000000E+00 -0.00000000000E+00 -0.45593999997E+02  0.45594000000E+02  0.51100000000E-03 0.  1.
         23    2    1    2    0    0 -0.35527136788E-14  0.35527136788E-14  0.00000000000E+00  0.91188000000E+02  0.91188000000E+02 0.  0.
    9900012    2    3    3    0    0  0.18216491760E+02 -0.31652315103E+02 -0.46979051995E+01  0.54367082892E+02  0.39999997069E+02 0.  0.
        -12    1    3    3    0    0 -0.18216491760E+02  0.31652315103E+02  0.46979051995E+01  0.36820917108E+02  0.00000000000E+00 0.  1.
         11    1    4    4    0    0  0.16462162018E+01 -0.28028120627E+02  0.36917608713E+01  0.28318097964E+02  0.51100000000E-03 0. -1.
        -11    1    4    4    0    0  0.19736229637E+02 -0.48783236265E+01 -0.43949669389E+01  0.20799820584E+02  0.51100000000E-03 0.  1.
         12    1    4    4    0    0 -0.31659540786E+01  0.12541291510E+01 -0.39946991320E+01  0.52491643440E+01  0.00000000000E+00 0. -1.
</event>
<event>
 8    1  0.2512298E-006  0.9118800E+02  0.7816164E-02  0.1184000E+00
        -11   -1    0    0    0    0  0.00000000000E+00  0.00000000000E+00  0.45593999997E+02  0.45594000000E+02  0.51100000000E-03 0.  1.
         11   -1    0    0    0    0 -0.00000000000E+00 -0.00000000000E+00 -0.45593999997E+02  0.45594000000E+02  0.51100000000E-03 0. -1.
         23    2    1    2    0    0  0.53290705182E-14  0.17763568394E-14 -0.71054273576E-14  0.91188000000E+02  0.91188000000E+02 0.  0.
    9900012    2    3    3    0    0 -0.14754401297E+02 -0.10885764822E+02  0.31930981845E+02  0.54367084273E+02  0.40000000218E+02 0.  0.
         12    1    3    3    0    0  0.14754401297E+02  0.10885764822E+02 -0.31930981845E+02  0.36820915727E+02  0.00000000000E+00 0. -1.
         11    1    4    4    0    0 -0.54398896705E+01  0.12193160458E+02  0.65025103468E+01  0.14850865384E+02  0.51100000000E-03 0. -1.
        -11    1    4    4    0    0  0.28229703059E+01 -0.97734465326E+01  0.27149793588E+01  0.10529032798E+02  0.51100000000E-03 0.  1.
        -12    1    4    4    0    0 -0.12137481933E+02 -0.13305478747E+02  0.22713492139E+02  0.28987186092E+02  0.00000000000E+00 0.  1.
</event>
<event>
 8    1  0.2512298E-006  0.9118800E+02  0.7816164E-02  0.1184000E+00
        -11   -1    0    0    0    0  0.00000000000E+00  0.00000000000E+00  0.45593999997E+02  0.45594000000E+02  0.51100000000E-03 0. -1.
         11   -1    0    0    0    0 -0.00000000000E+00 -0.00000000000E+00 -0.45593999997E+02  0.45594000000E+02  0.51100000000E-03 0.  1.
         23    2    1    2    0    0  0.00000000000E+00  0.00000000000E+00  0.16653345369E-15  0.91188000000E+02  0.91188000000E+02 0.  0.
    9900012    2    3    3    0    0  0.32496227490E+02 -0.17313375254E+02  0.14853360025E+00  0.54367084394E+02  0.40000000494E+02 0.  0.
        -12    1    3    3    0    0 -0.32496227490E+02  0.17313375254E+02 -0.14853360025E+00  0.36820915606E+02  0.00000000000E+00 0.  1.
         11    1    4    4    0    0 -0.45237200107E+00 -0.68336118151E+01  0.42613657921E+01  0.80661099386E+01  0.51100000000E-03 0. -1.
        -11    1    4    4    0    0  0.23353528812E+02 -0.21307095552E+02 -0.19492818767E+01  0.31673006313E+02  0.51100000000E-03 0.  1.
        -12    1    4    4    0    0  0.95950706794E+01  0.10827332112E+02 -0.21635503152E+01  0.14627968143E+02  0.00000000000E+00 0.  1.
</event>
<event>
 8    1  0.2512298E-006  0.9118800E+02  0.7816164E-02  0.1184000E+00
        -11   -1    0    0    0    0  0.00000000000E+00  0.00000000000E+00  0.45593999997E+02  0.45594000000E+02  0.51100000000E-03 0. -1.
         11   -1    0    0    0    0 -0.00000000000E+00 -0.00000000000E+00 -0.45593999997E+02  0.45594000000E+02  0.51100000000E-03 0.  1.
         23    2    1    2    0    0  0.13322676296E-14  0.00000000000E+00  0.00000000000E+00  0.91188000000E+02  0.91188000000E+02 0.  0.
    9900012    2    3    3    0    0  0.14134281326E+01  0.31039337779E+02  0.19757036147E+02  0.54367099058E+02  0.40000033922E+02 0.  0.
        -12    1    3    3    0    0 -0.14134281326E+01 -0.31039337779E+02 -0.19757036147E+02  0.36820900942E+02  0.00000000000E+00 0.  1.
         11    1    4    4    0    0 -0.14523652125E+01  0.28467879370E+02  0.11890212234E+02  0.30885379515E+02  0.51100000000E-03 0. -1.
        -11    1    4    4    0    0 -0.34356847540E+01 -0.74442415771E+00  0.13782864496E+02  0.14224115123E+02  0.51100000000E-03 0.  1.
        -12    1    4    4    0    0  0.63014780991E+01  0.33158825668E+01 -0.59160405825E+01  0.92576044204E+01  0.00000000000E+00 0.  1.
</event>
<event>
 8    1  0.2512298E-006  0.9118800E+02  0.7816164E-02  0.1184000E+00
        -11   -1    0    0    0    0  0.00000000000E+00  0.00000000000E+00  0.45593999997E+02  0.45594000000E+02  0.51100000000E-03 0.  1.
         11   -1    0    0    0    0 -0.00000000000E+00 -0.00000000000E+00 -0.45593999997E+02  0.45594000000E+02  0.51100000000E-03 0. -1.
         23    2    1    2    0    0  0.17763568394E-14 -0.44408920985E-15  0.00000000000E+00  0.91188000000E+02  0.91188000000E+02 0.  0.
    9900012    2    3    3    0    0 -0.12237370428E+02  0.32385454769E+01 -0.34576532470E+02  0.54367109062E+02  0.40000056730E+02 0.  0.
        -12    1    3    3    0    0  0.12237370428E+02 -0.32385454769E+01  0.34576532470E+02  0.36820890938E+02  0.00000000000E+00 0.  1.
         11    1    4    4    0    0 -0.12468263008E+01 -0.61047869299E+01 -0.25004737287E+02  0.25769359448E+02  0.51100000000E-03 0. -1.
        -11    1    4    4    0    0  0.64997846579E+01  0.62499924466E+01 -0.17286594200E+01  0.91813871410E+01  0.51100000000E-03 0.  1.
        -12    1    4    4    0    0 -0.17490328785E+02  0.30933399603E+01 -0.78431357625E+01  0.19416362474E+02  0.00000000000E+00 0.  1.
</event>
<event>
 8    1  0.2512298E-006  0.9118800E+02  0.7816164E-02  0.1184000E+00
        -11   -1    0    0    0    0  0.00000000000E+00  0.00000000000E+00  0.45593999997E+02  0.45594000000E+02  0.51100000000E-03 0.  1.
         11   -1    0    0    0    0 -0.00000000000E+00 -0.00000000000E+00 -0.45593999997E+02  0.45594000000E+02  0.51100000000E-03 0. -1.
         23    2    1    2    0    0  0.00000000000E+00  0.35527136788E-14 -0.17763568394E-14  0.91188000000E+02  0.91188000000E+02 0.  0.
    9900012    2    3    3    0    0 -0.27280417319E+02  0.20303578132E+02  0.14118217008E+02  0.54367075167E+02  0.39999979458E+02 0.  0.
         12    1    3    3    0    0  0.27280417319E+02 -0.20303578132E+02 -0.14118217008E+02  0.36820924833E+02  0.00000000000E+00 0. -1.
         11    1    4    4    0    0 -0.28224545998E+02  0.14349140287E+02  0.26987795734E+00  0.31663790962E+02  0.51100000000E-03 0. -1.
        -11    1    4    4    0    0 -0.51620990409E+01  0.95663363543E+01  0.77799846562E+01  0.13367506097E+02  0.51100000000E-03 0.  1.
         12    1    4    4    0    0  0.61062277196E+01 -0.36118985089E+01  0.60683543949E+01  0.93357781071E+01  0.00000000000E+00 0. -1.
</event>
<event>
 8    1  0.2512298E-006  0.9118800E+02  0.7816164E-02  0.1184000E+00
        -11   -1    0    0    0    0  0.00000000000E+00  0.00000000000E+00  0.45593999997E+02  0.45594000000E+02  0.51100000000E-03 0. -1.
         11   -1    0    0    0    0 -0.00000000000E+00 -0.00000000000E+00 -0.45593999997E+02  0.45594000000E+02  0.51100000000E-03 0.  1.
         23    2    1    2    0    0  0.00000000000E+00 -0.88817841970E-15 -0.35527136788E-14  0.91188000000E+02  0.91188000000E+02 0.  0.
    9900012    2    3    3    0    0 -0.19361060705E+02  0.67516320160E+01  0.30583450728E+02  0.54367045845E+02  0.39999912612E+02 0.  0.
        -12    1    3    3    0    0  0.19361060705E+02 -0.67516320160E+01 -0.30583450728E+02  0.36820954155E+02  0.00000000000E+00 0.  1.
         11    1    4    4    0    0 -0.26986904893E+02  0.12388971422E+01  0.24755606062E+02  0.36642433511E+02  0.51100000000E-03 0. -1.
        -11    1    4    4    0    0 -0.10231252108E+01  0.11181184187E+01 -0.37789176152E+01  0.40715098672E+01  0.51100000000E-03 0.  1.
        -12    1    4    4    0    0  0.86489693985E+01  0.43946164551E+01  0.96067622804E+01  0.13653102466E+02  0.00000000000E+00 0.  1.
</event>
<event>
 8    1  0.2512298E-006  0.9118800E+02  0.7816164E-02  0.1184000E+00
        -11   -1    0    0    0    0  0.00000000000E+00  0.00000000000E+00  0.45593999997E+02  0.45594000000E+02  0.51100000000E-03 0.  1.
         11   -1    0    0    0    0 -0.00000000000E+00 -0.00000000000E+00 -0.45593999997E+02  0.45594000000E+02  0.51100000000E-03 0. -1.
         23    2    1    2    0    0  0.00000000000E+00  0.88817841970E-15 -0.71054273576E-14  0.91188000000E+02  0.91188000000E+02 0.  0.
    9900012    2    3    3    0    0  0.57694245671E+01 -0.35558287012E+01  0.36191832708E+02  0.54367096530E+02  0.40000028159E+02 0.  0.
         12    1    3    3    0    0 -0.57694245671E+01  0.35558287012E+01 -0.36191832708E+02  0.36820903470E+02  0.00000000000E+00 0. -1.
         11    1    4    4    0    0  0.28298462193E+01 -0.15633444195E+02  0.28486243609E+02  0.32617153191E+02  0.51100000000E-03 0.  1.
        -11    1    4    4    0    0  0.26727556064E+01  0.53252660191E+01 -0.47228775726E+01  0.76031344544E+01  0.51100000000E-03 0. -1.
         12    1    4    4    0    0  0.26682274135E+00  0.67523494751E+01  0.12428466672E+02  0.14146808885E+02  0.00000000000E+00 0. -1.
</event>
<event>
 8    1  0.2512298E-006  0.9118800E+02  0.7816164E-02  0.1184000E+00
        -11   -1    0    0    0    0  0.00000000000E+00  0.00000000000E+00  0.45593999997E+02  0.45594000000E+02  0.51100000000E-03 0.  1.
         11   -1    0    0    0    0 -0.00000000000E+00 -0.00000000000E+00 -0.45593999997E+02  0.45594000000E+02  0.51100000000E-03 0. -1.
         23    2    1    2    0    0 -0.17763568394E-14  0.00000000000E+00  0.35527136788E-14  0.91188000000E+02  0.91188000000E+02 0.  0.
    9900012    2    3    3    0    0  0.82346424446E+01  0.31706266500E+02 -0.16813194571E+02  0.54367079544E+02  0.39999989436E+02 0.  0.
        -12    1    3    3    0    0 -0.82346424446E+01 -0.31706266500E+02  0.16813194571E+02  0.36820920456E+02  0.00000000000E+00 0.  1.
         11    1    4    4    0    0  0.34321873641E+01  0.25207279048E+02 -0.15383675963E+02  0.29729519227E+02  0.51100000000E-03 0. -1.
        -11    1    4    4    0    0  0.14097553249E+02  0.47528394959E+01 -0.26170448462E+01  0.15105608722E+02  0.51100000000E-03 0.  1.
         12    1    4    4    0    0 -0.92950981681E+01  0.17461479564E+01  0.11875262379E+01  0.95319515948E+01  0.00000000000E+00 0. -1.
</event>
<event>
 8    1  0.2512298E-006  0.9118800E+02  0.7816164E-02  0.1184000E+00
        -11   -1    0    0    0    0  0.00000000000E+00  0.00000000000E+00  0.45593999997E+02  0.45594000000E+02  0.51100000000E-03 0.  1.
         11   -1    0    0    0    0 -0.00000000000E+00 -0.00000000000E+00 -0.45593999997E+02  0.45594000000E+02  0.51100000000E-03 0. -1.
         23    2    1    2    0    0  0.88817841970E-15  0.00000000000E+00  0.35527136788E-14  0.91188000000E+02  0.91188000000E+02 0.  0.
    9900012    2    3    3    0    0  0.69968158967E+01 -0.33531188285E+02 -0.13508683364E+02  0.54367074608E+02  0.39999978184E+02 0.  0.
        -12    1    3    3    0    0 -0.69968158967E+01  0.33531188285E+02  0.13508683364E+02  0.36820925392E+02  0.00000000000E+00 0.  1.
         11    1    4    4    0    0  0.47318487684E+01 -0.38910738155E+01 -0.67569779252E+01  0.91207236088E+01  0.51100000000E-03 0. -1.
        -11    1    4    4    0    0  0.54018969674E+01 -0.60093399777E+01 -0.17364550519E+02  0.19152552645E+02  0.51100000000E-03 0.  1.
        -12    1    4    4    0    0 -0.31369298392E+01 -0.23630774491E+02  0.10612845080E+02  0.26093798355E+02  0.00000000000E+00 0.  1.
</event>
<event>
 8    1  0.2512298E-006  0.9118800E+02  0.7816164E-02  0.1184000E+00
        -11   -1    0    0    0    0  0.00000000000E+00  0.00000000000E+00  0.45593999997E+02  0.45594000000E+02  0.51100000000E-03 0.  1.
         11   -1    0    0    0    0 -0.00000000000E+00 -0.00000000000E+00 -0.45593999997E+02  0.45594000000E+02  0.51100000000E-03 0. -1.
         23    2    1    2    0    0  0.00000000000E+00  0.00000000000E+00  0.00000000000E+00  0.91188000000E+02  0.91188000000E+02 0.  0.
    9900012    2    3    3    0    0 -0.32129179063E+01 -0.35084799995E+02 -0.10701110390E+02  0.54367084805E+02  0.40000001431E+02 0.  0.
        -12    1    3    3    0    0  0.32129179063E+01  0.35084799995E+02  0.10701110390E+02  0.36820915195E+02  0.00000000000E+00 0.  1.
         11    1    4    4    0    0  0.20520741961E+01 -0.72360404420E+01 -0.41742511278E+01  0.86020731526E+01  0.51100000000E-03 0. -1.
        -11    1    4    4    0    0 -0.62888458114E+01 -0.35355772927E+02 -0.10219478053E+02  0.37336550361E+02  0.51100000000E-03 0.  1.
        -12    1    4    4    0    0  0.10238537090E+01  0.75070133738E+01  0.36926187906E+01  0.84284612917E+01  0.00000000000E+00 0.  1.
</event>
<event>
 8    1  0.2512298E-006  0.9118800E+02  0.7816164E-02  0.1184000E+00
        -11   -1    0    0    0    0  0.00000000000E+00  0.00000000000E+00  0.45593999997E+02  0.45594000000E+02  0.51100000000E-03 0.  1.
         11   -1    0    0    0    0 -0.00000000000E+00 -0.00000000000E+00 -0.45593999997E+02  0.45594000000E+02  0.51100000000E-03 0. -1.
         23    2    1    2    0    0  0.00000000000E+00  0.35527136788E-14 -0.35527136788E-14  0.91188000000E+02  0.91188000000E+02 0.  0.
    9900012    2    3    3    0    0 -0.10766535380E+02 -0.20863971828E+02  0.28364700900E+02  0.54367083910E+02  0.39999999390E+02 0.  0.
         12    1    3    3    0    0  0.10766535380E+02  0.20863971828E+02 -0.28364700900E+02  0.36820916090E+02  0.00000000000E+00 0. -1.
         11    1    4    4    0    0 -0.76834449548E+01 -0.12672720913E+02 -0.12785864460E+01  0.14875078665E+02  0.51100000000E-03 0. -1.
        -11    1    4    4    0    0 -0.40498944757E+01 -0.10631979148E+02  0.33186317818E+02  0.35082364750E+02  0.51100000000E-03 0.  1.
        -12    1    4    4    0    0  0.96680405078E+00  0.24407282337E+01 -0.35430304712E+01  0.44096404959E+01  0.00000000000E+00 0.  1.
</event>
<event>
 8    1  0.2512298E-006  0.9118800E+02  0.7816164E-02  0.1184000E+00
        -11   -1    0    0    0    0  0.00000000000E+00  0.00000000000E+00  0.45593999997E+02  0.45594000000E+02  0.51100000000E-03 0. -1.
         11   -1    0    0    0    0 -0.00000000000E+00 -0.00000000000E+00 -0.45593999997E+02  0.45594000000E+02  0.51100000000E-03 0.  1.
         23    2    1    2    0    0  0.22759572005E-14  0.00000000000E+00 -0.35527136788E-14  0.91188000000E+02  0.91188000000E+02 0.  0.
    9900012    2    3    3    0    0  0.32761515160E+00  0.24331207652E+02  0.27634482171E+02  0.54367087432E+02  0.40000007418E+02 0.  0.
        -12    1    3    3    0    0 -0.32761515160E+00 -0.24331207652E+02 -0.27634482171E+02  0.36820912568E+02  0.00000000000E+00 0.  1.
         11    1    4    4    0    0  0.13915833271E+02  0.10190979908E+02  0.29973725566E+01  0.17506876638E+02  0.51100000000E-03 0.  1.
        -11    1    4    4    0    0 -0.25196305676E+01  0.78887968706E+01  0.22492501589E+02  0.23968610353E+02  0.51100000000E-03 0. -1.
         12    1    4    4    0    0 -0.11068587552E+02  0.62514308735E+01  0.21446080259E+01  0.12891600441E+02  0.00000000000E+00 0. -1.
</event>
<event>
 8    1  0.2512298E-006  0.9118800E+02  0.7816164E-02  0.1184000E+00
        -11   -1    0    0    0    0  0.00000000000E+00  0.00000000000E+00  0.45593999997E+02  0.45594000000E+02  0.51100000000E-03 0. -1.
         11   -1    0    0    0    0 -0.00000000000E+00 -0.00000000000E+00 -0.45593999997E+02  0.45594000000E+02  0.51100000000E-03 0.  1.
         23    2    1    2    0    0 -0.17763568394E-14  0.35527136788E-14  0.35527136788E-14  0.91188000000E+02  0.91188000000E+02 0.  0.
    9900012    2    3    3    0    0 -0.11522392610E+02  0.20024997278E+02  0.28670816756E+02  0.54367057849E+02  0.39999939978E+02 0.  0.
        -12    1    3    3    0    0  0.11522392610E+02 -0.20024997278E+02 -0.28670816756E+02  0.36820942151E+02  0.00000000000E+00 0.  1.
         11    1    4    4    0    0 -0.11992390222E+02  0.34234000173E+01  0.15495697325E+02  0.19891046396E+02  0.51100000000E-03 0. -1.
        -11    1    4    4    0    0 -0.11962426088E+02  0.15190337378E+01  0.29373495374E+01  0.12411088750E+02  0.51100000000E-03 0.  1.
        -12    1    4    4    0    0  0.12432423699E+02  0.15082563523E+02  0.10237769894E+02  0.22064922702E+02  0.00000000000E+00 0.  1.
</event>
<event>
 8    1  0.2512298E-006  0.9118800E+02  0.7816164E-02  0.1184000E+00
        -11   -1    0    0    0    0  0.00000000000E+00  0.00000000000E+00  0.45593999997E+02  0.45594000000E+02  0.51100000000E-03 0.  1.
         11   -1    0    0    0    0 -0.00000000000E+00 -0.00000000000E+00 -0.45593999997E+02  0.45594000000E+02  0.51100000000E-03 0. -1.
         23    2    1    2    0    0  0.00000000000E+00  0.00000000000E+00  0.00000000000E+00  0.91188000000E+02  0.91188000000E+02 0.  0.
    9900012    2    3    3    0    0  0.28455068475E+02 -0.15451558254E+02  0.17531117133E+02  0.54367059730E+02  0.39999944267E+02 0.  0.
        -12    1    3    3    0    0 -0.28455068475E+02  0.15451558254E+02 -0.17531117133E+02  0.36820940270E+02  0.00000000000E+00 0.  1.
         11    1    4    4    0    0  0.19847108275E+02 -0.19317656776E+02 -0.44794143897E+01  0.28056099581E+02  0.51100000000E-03 0. -1.
        -11    1    4    4    0    0  0.43975711638E+01 -0.24297107104E+01  0.15597377659E+02  0.16386589529E+02  0.51100000000E-03 0.  1.
         12    1    4    4    0    0  0.42103890371E+01  0.62958092321E+01  0.64131538638E+01  0.99243706204E+01  0.00000000000E+00 0. -1.
</event>
<event>
 8    1  0.2512298E-006  0.9118800E+02  0.7816164E-02  0.1184000E+00
        -11   -1    0    0    0    0  0.00000000000E+00  0.00000000000E+00  0.45593999997E+02  0.45594000000E+02  0.51100000000E-03 0. -1.
         11   -1    0    0    0    0 -0.00000000000E+00 -0.00000000000E+00 -0.45593999997E+02  0.45594000000E+02  0.51100000000E-03 0.  1.
         23    2    1    2    0    0 -0.17763568394E-14  0.00000000000E+00  0.00000000000E+00  0.91188000000E+02  0.91188000000E+02 0.  0.
    9900012    2    3    3    0    0  0.88254521018E+01 -0.66939264138E+01 -0.35115282928E+02  0.54367077269E+02  0.39999984251E+02 0.  0.
         12    1    3    3    0    0 -0.88254521018E+01  0.66939264138E+01  0.35115282928E+02  0.36820922731E+02  0.00000000000E+00 0. -1.
         11    1    4    4    0    0  0.19892443322E+02  0.52910947935E+01 -0.14143946122E+02  0.24975111563E+02  0.51100000000E-03 0. -1.
        -11    1    4    4    0    0 -0.10453230359E+02 -0.10796326944E+02 -0.93609232868E+01  0.17704733419E+02  0.51100000000E-03 0.  1.
        -12    1    4    4    0    0 -0.61376086107E+00 -0.11886942635E+01 -0.11610413519E+02  0.11687232287E+02  0.00000000000E+00 0.  1.
</event>
<event>
 8    1  0.2512298E-006  0.9118800E+02  0.7816164E-02  0.1184000E+00
        -11   -1    0    0    0    0  0.00000000000E+00  0.00000000000E+00  0.45593999997E+02  0.45594000000E+02  0.51100000000E-03 0.  1.
         11   -1    0    0    0    0 -0.00000000000E+00 -0.00000000000E+00 -0.45593999997E+02  0.45594000000E+02  0.51100000000E-03 0. -1.
         23    2    1    2    0    0 -0.17763568394E-14  0.00000000000E+00  0.35527136788E-14  0.91188000000E+02  0.91188000000E+02 0.  0.
    9900012    2    3    3    0    0 -0.13264674124E+02  0.27890906186E+02  0.20048063448E+02  0.54367094586E+02  0.40000023728E+02 0.  0.
         12    1    3    3    0    0  0.13264674124E+02 -0.27890906186E+02 -0.20048063448E+02  0.36820905414E+02  0.00000000000E+00 0. -1.
         11    1    4    4    0    0  0.56573994803E+01  0.10721810752E+01  0.77745004494E+00  0.58103502452E+01  0.51100000000E-03 0. -1.
        -11    1    4    4    0    0 -0.97981357031E+01  0.21087385965E+02  0.26747717435E+02  0.35441807210E+02  0.51100000000E-03 0.  1.
         12    1    4    4    0    0 -0.91239379017E+01  0.57313391453E+01 -0.74771040323E+01  0.13114937131E+02  0.00000000000E+00 0. -1.
</event>
<event>
 8    1  0.2512298E-006  0.9118800E+02  0.7816164E-02  0.1184000E+00
        -11   -1    0    0    0    0  0.00000000000E+00  0.00000000000E+00  0.45593999997E+02  0.45594000000E+02  0.51100000000E-03 0.  1.
         11   -1    0    0    0    0 -0.00000000000E+00 -0.00000000000E+00 -0.45593999997E+02  0.45594000000E+02  0.51100000000E-03 0. -1.
         23    2    1    2    0    0  0.00000000000E+00 -0.13322676296E-14  0.00000000000E+00  0.91188000000E+02  0.91188000000E+02 0.  0.
    9900012    2    3    3    0    0 -0.82597396378E+01  0.15359912647E+01  0.35849704620E+02  0.54367029217E+02  0.39999874705E+02 0.  0.
         12    1    3    3    0    0  0.82597396378E+01 -0.15359912647E+01 -0.35849704620E+02  0.36820970783E+02  0.00000000000E+00 0. -1.
         11    1    4    4    0    0 -0.15340203165E+02 -0.42103884079E+01  0.19814373139E+02  0.25409812806E+02  0.51100000000E-03 0. -1.
        -11    1    4    4    0    0  0.17065058541E+01  0.13988763136E+02  0.76831210544E+01  0.16050794550E+02  0.51100000000E-03 0.  1.
         12    1    4    4    0    0  0.53739576729E+01 -0.82423834630E+01  0.83522104268E+01  0.12906421860E+02  0.00000000000E+00 0. -1.
</event>
<event>
 8    1  0.2512298E-006  0.9118800E+02  0.7816164E-02  0.1184000E+00
        -11   -1    0    0    0    0  0.00000000000E+00  0.00000000000E+00  0.45593999997E+02  0.45594000000E+02  0.51100000000E-03 0.  1.
         11   -1    0    0    0    0 -0.00000000000E+00 -0.00000000000E+00 -0.45593999997E+02  0.45594000000E+02  0.51100000000E-03 0. -1.
         23    2    1    2    0    0  0.35527136788E-14  0.71054273576E-14 -0.17763568394E-14  0.91188000000E+02  0.91188000000E+02 0.  0.
    9900012    2    3    3    0    0  0.29795071595E+02  0.16673937742E+02 -0.13784574545E+02  0.54367068635E+02  0.39999964568E+02 0.  0.
         12    1    3    3    0    0 -0.29795071595E+02 -0.16673937742E+02  0.13784574545E+02  0.36820931365E+02  0.00000000000E+00 0. -1.
         11    1    4    4    0    0  0.56314353506E+01 -0.47169232074E+01 -0.13251494387E+00  0.73471075346E+01  0.51100000000E-03 0. -1.
        -11    1    4    4    0    0  0.31236112317E+02  0.14700609431E+02 -0.69894371388E+01  0.35222930913E+02  0.51100000000E-03 0.  1.
         12    1    4    4    0    0 -0.70724760728E+01  0.66902515184E+01 -0.66626224623E+01  0.11797030188E+02  0.00000000000E+00 0. -1.
</event>
<event>
 8    1  0.2512298E-006  0.9118800E+02  0.7816164E-02  0.1184000E+00
        -11   -1    0    0    0    0  0.00000000000E+00  0.00000000000E+00  0.45593999997E+02  0.45594000000E+02  0.51100000000E-03 0.  1.
         11   -1    0    0    0    0 -0.00000000000E+00 -0.00000000000E+00 -0.45593999997E+02  0.45594000000E+02  0.51100000000E-03 0. -1.
         23    2    1    2    0    0 -0.17763568394E-14 -0.13322676296E-14  0.71054273576E-14  0.91188000000E+02  0.91188000000E+02 0.  0.
    9900012    2    3    3    0    0  0.13092215259E+02 -0.29934978298E+01 -0.34284286257E+02  0.54367089992E+02  0.40000013255E+02 0.  0.
        -12    1    3    3    0    0 -0.13092215259E+02  0.29934978298E+01  0.34284286257E+02  0.36820910008E+02  0.00000000000E+00 0.  1.
         11    1    4    4    0    0  0.33701755431E+01 -0.30478993841E+01 -0.21874287452E+02  0.22341267324E+02  0.51100000000E-03 0. -1.
        -11    1    4    4    0    0 -0.35184344621E+01  0.11468215364E+02 -0.41680991354E+01  0.12699306885E+02  0.51100000000E-03 0.  1.
        -12    1    4    4    0    0  0.13240474178E+02 -0.11413813809E+02 -0.82418996695E+01  0.19326515783E+02  0.00000000000E+00 0.  1.
</event>
<event>
 8    1  0.2512298E-006  0.9118800E+02  0.7816164E-02  0.1184000E+00
        -11   -1    0    0    0    0  0.00000000000E+00  0.00000000000E+00  0.45593999997E+02  0.45594000000E+02  0.51100000000E-03 0. -1.
         11   -1    0    0    0    0 -0.00000000000E+00 -0.00000000000E+00 -0.45593999997E+02  0.45594000000E+02  0.51100000000E-03 0.  1.
         23    2    1    2    0    0  0.35527136788E-14  0.35527136788E-14  0.00000000000E+00  0.91188000000E+02  0.91188000000E+02 0.  0.
    9900012    2    3    3    0    0  0.24870396345E+02  0.22602570188E+02  0.15045534114E+02  0.54367069944E+02  0.39999967550E+02 0.  0.
        -12    1    3    3    0    0 -0.24870396345E+02 -0.22602570188E+02 -0.15045534114E+02  0.36820930056E+02  0.00000000000E+00 0.  1.
         11    1    4    4    0    0  0.52784622047E+01  0.17457649433E+02  0.16253488858E+02  0.24429645665E+02  0.51100000000E-03 0. -1.
        -11    1    4    4    0    0 -0.98288274842E+00 -0.54122585450E+01  0.32460814295E+01  0.63871469345E+01  0.51100000000E-03 0.  1.
         12    1    4    4    0    0  0.20574816888E+02  0.10557179300E+02 -0.44540361737E+01  0.23550277344E+02  0.00000000000E+00 0. -1.
</event>
<event>
 8    1  0.2512298E-006  0.9118800E+02  0.7816164E-02  0.1184000E+00
        -11   -1    0    0    0    0  0.00000000000E+00  0.00000000000E+00  0.45593999997E+02  0.45594000000E+02  0.51100000000E-03 0. -1.
         11   -1    0    0    0    0 -0.00000000000E+00 -0.00000000000E+00 -0.45593999997E+02  0.45594000000E+02  0.51100000000E-03 0.  1.
         23    2    1    2    0    0  0.00000000000E+00  0.00000000000E+00  0.35527136788E-14  0.91188000000E+02  0.91188000000E+02 0.  0.
    9900012    2    3    3    0    0 -0.24220742935E+02 -0.19438075186E+02 -0.19781228487E+02  0.54367079918E+02  0.39999990289E+02 0.  0.
        -12    1    3    3    0    0  0.24220742935E+02  0.19438075186E+02  0.19781228487E+02  0.36820920082E+02  0.00000000000E+00 0.  1.
         11    1    4    4    0    0 -0.75961692368E+01 -0.19596212207E+02 -0.55072000071E+01  0.21726540731E+02  0.51100000000E-03 0. -1.
        -11    1    4    4    0    0 -0.14219258056E+02 -0.10870413724E+02 -0.10432772741E+02  0.20717044711E+02  0.51100000000E-03 0.  1.
         12    1    4    4    0    0 -0.24053156419E+01  0.11028550746E+02 -0.38412557381E+01  0.11923494477E+02  0.00000000000E+00 0. -1.
</event>
<event>
 8    1  0.2512298E-006  0.9118800E+02  0.7816164E-02  0.1184000E+00
        -11   -1    0    0    0    0  0.00000000000E+00  0.00000000000E+00  0.45593999997E+02  0.45594000000E+02  0.51100000000E-03 0.  1.
         11   -1    0    0    0    0 -0.00000000000E+00 -0.00000000000E+00 -0.45593999997E+02  0.45594000000E+02  0.51100000000E-03 0. -1.
         23    2    1    2    0    0  0.00000000000E+00 -0.44408920985E-15 -0.71054273576E-14  0.91188000000E+02  0.91188000000E+02 0.  0.
    9900012    2    3    3    0    0  0.75095893275E+01 -0.33089398929E+01  0.35894801803E+02  0.54367084591E+02  0.40000000943E+02 0.  0.
         12    1    3    3    0    0 -0.75095893275E+01  0.33089398929E+01 -0.35894801803E+02  0.36820915409E+02  0.00000000000E+00 0. -1.
         11    1    4    4    0    0  0.61878765091E+01 -0.10060450661E+02  0.42890431133E+02  0.44486981986E+02  0.51100000000E-03 0. -1.
        -11    1    4    4    0    0  0.44706617684E+00  0.12271486063E+01 -0.79236657174E+00  0.15276147791E+01  0.51100000000E-03 0.  1.
         12    1    4    4    0    0  0.87464664156E+00  0.55243621614E+01 -0.62032627585E+01  0.83524878263E+01  0.00000000000E+00 0. -1.
</event>
<event>
 8    1  0.2512298E-006  0.9118800E+02  0.7816164E-02  0.1184000E+00
        -11   -1    0    0    0    0  0.00000000000E+00  0.00000000000E+00  0.45593999997E+02  0.45594000000E+02  0.51100000000E-03 0.  1.
         11   -1    0    0    0    0 -0.00000000000E+00 -0.00000000000E+00 -0.45593999997E+02  0.45594000000E+02  0.51100000000E-03 0. -1.
         23    2    1    2    0    0  0.00000000000E+00  0.00000000000E+00  0.00000000000E+00  0.91188000000E+02  0.91188000000E+02 0.  0.
    9900012    2    3    3    0    0  0.32112929315E+02  0.76100802076E+01 -0.16328696778E+02  0.54367083547E+02  0.39999998562E+02 0.  0.
        -12    1    3    3    0    0 -0.32112929315E+02 -0.76100802076E+01  0.16328696778E+02  0.36820916453E+02  0.00000000000E+00 0.  1.
         11    1    4    4    0    0  0.27717541303E+02 -0.51547433670E+01 -0.19267669766E+01  0.28258554569E+02  0.51100000000E-03 0. -1.
        -11    1    4    4    0    0  0.44825402862E+01  0.30576608280E+01  0.29866337195E+01  0.61937418732E+01  0.51100000000E-03 0.  1.
        -12    1    4    4    0    0 -0.87152274524E-01  0.97071627466E+01 -0.17388563521E+02  0.19914787105E+02  0.00000000000E+00 0.  1.
</event>
<event>
 8    1  0.2512298E-006  0.9118800E+02  0.7816164E-02  0.1184000E+00
        -11   -1    0    0    0    0  0.00000000000E+00  0.00000000000E+00  0.45593999997E+02  0.45594000000E+02  0.51100000000E-03 0. -1.
         11   -1    0    0    0    0 -0.00000000000E+00 -0.00000000000E+00 -0.45593999997E+02  0.45594000000E+02  0.51100000000E-03 0.  1.
         23    2    1    2    0    0  0.00000000000E+00  0.71054273576E-14 -0.44408920985E-15  0.91188000000E+02  0.91188000000E+02 0.  0.
    9900012    2    3    3    0    0  0.85566660274E+01 -0.35698780158E+02 -0.28567637677E+01  0.54367074733E+02  0.39999978469E+02 0.  0.
        -12    1    3    3    0    0 -0.85566660274E+01  0.35698780158E+02  0.28567637677E+01  0.36820925267E+02  0.00000000000E+00 0.  1.
         11    1    4    4    0    0 -0.11728635441E+02 -0.17816370525E+02  0.15871645178E+01  0.21389320688E+02  0.51100000000E-03 0. -1.
        -11    1    4    4    0    0  0.59369958829E+01 -0.58350612157E+01 -0.10397433208E+02  0.13319252121E+02  0.51100000000E-03 0.  1.
         12    1    4    4    0    0  0.14348305586E+02 -0.12047348417E+02  0.59535049221E+01  0.19658501924E+02  0.00000000000E+00 0. -1.
</event>
<event>
 8    1  0.2512298E-006  0.9118800E+02  0.7816164E-02  0.1184000E+00
        -11   -1    0    0    0    0  0.00000000000E+00  0.00000000000E+00  0.45593999997E+02  0.45594000000E+02  0.51100000000E-03 0. -1.
         11   -1    0    0    0    0 -0.00000000000E+00 -0.00000000000E+00 -0.45593999997E+02  0.45594000000E+02  0.51100000000E-03 0.  1.
         23    2    1    2    0    0  0.00000000000E+00  0.00000000000E+00  0.00000000000E+00  0.91188000000E+02  0.91188000000E+02 0.  0.
    9900012    2    3    3    0    0  0.19288277742E+02  0.18245202114E+02 -0.25511984946E+02  0.54366994660E+02  0.39999795925E+02 0.  0.
         12    1    3    3    0    0 -0.19288277742E+02 -0.18245202114E+02  0.25511984946E+02  0.36821005340E+02  0.00000000000E+00 0. -1.
         11    1    4    4    0    0 -0.52271737849E+00 -0.49184405646E+01 -0.20108140092E+02  0.20707524943E+02  0.51100000000E-03 0. -1.
        -11    1    4    4    0    0  0.42943385491E+01  0.65990079210E+00 -0.45791830321E+01  0.63123474344E+01  0.51100000000E-03 0.  1.
         12    1    4    4    0    0  0.15516656571E+02  0.22503741886E+02 -0.82466182208E+00  0.27347122283E+02  0.00000000000E+00 0. -1.
</event>
<event>
 8    1  0.2512298E-006  0.9118800E+02  0.7816164E-02  0.1184000E+00
        -11   -1    0    0    0    0  0.00000000000E+00  0.00000000000E+00  0.45593999997E+02  0.45594000000E+02  0.51100000000E-03 0. -1.
         11   -1    0    0    0    0 -0.00000000000E+00 -0.00000000000E+00 -0.45593999997E+02  0.45594000000E+02  0.51100000000E-03 0.  1.
         23    2    1    2    0    0  0.00000000000E+00  0.00000000000E+00 -0.53290705182E-14  0.91188000000E+02  0.91188000000E+02 0.  0.
    9900012    2    3    3    0    0  0.29940771747E+02 -0.20015740940E+02  0.76616776794E+01  0.54367068412E+02  0.39999964058E+02 0.  0.
         12    1    3    3    0    0 -0.29940771747E+02  0.20015740940E+02 -0.76616776794E+01  0.36820931588E+02  0.00000000000E+00 0. -1.
         11    1    4    4    0    0  0.75559526776E+01  0.17866438896E+01  0.13588158611E+02  0.15650002299E+02  0.51100000000E-03 0. -1.
        -11    1    4    4    0    0  0.52850979601E+01  0.56120512763E+00 -0.89439275516E+01  0.10403895999E+02  0.51100000000E-03 0.  1.
        -12    1    4    4    0    0  0.17099721109E+02 -0.22363589957E+02  0.30174466198E+01  0.28313170114E+02  0.00000000000E+00 0.  1.
</event>
<event>
 8    1  0.2512298E-006  0.9118800E+02  0.7816164E-02  0.1184000E+00
        -11   -1    0    0    0    0  0.00000000000E+00  0.00000000000E+00  0.45593999997E+02  0.45594000000E+02  0.51100000000E-03 0. -1.
         11   -1    0    0    0    0 -0.00000000000E+00 -0.00000000000E+00 -0.45593999997E+02  0.45594000000E+02  0.51100000000E-03 0.  1.
         23    2    1    2    0    0 -0.26645352591E-14 -0.88817841970E-15  0.71054273576E-14  0.91188000000E+02  0.91188000000E+02 0.  0.
    9900012    2    3    3    0    0  0.76689642525E+01  0.46237325987E+01 -0.35715372751E+02  0.54367085201E+02  0.40000002333E+02 0.  0.
         12    1    3    3    0    0 -0.76689642525E+01 -0.46237325987E+01  0.35715372751E+02  0.36820914799E+02  0.00000000000E+00 0. -1.
         11    1    4    4    0    0 -0.31033697177E+01 -0.99143822797E+01 -0.25098304434E+02  0.27163408573E+02  0.51100000000E-03 0. -1.
        -11    1    4    4    0    0  0.84391977407E+01  0.11287730617E+02 -0.15461193554E+02  0.20920837157E+02  0.51100000000E-03 0.  1.
         12    1    4    4    0    0  0.23331362295E+01  0.32503842616E+01  0.48441252362E+01  0.62828394710E+01  0.00000000000E+00 0. -1.
</event>
<event>
 8    1  0.2512298E-006  0.9118800E+02  0.7816164E-02  0.1184000E+00
        -11   -1    0    0    0    0  0.00000000000E+00  0.00000000000E+00  0.45593999997E+02  0.45594000000E+02  0.51100000000E-03 0. -1.
         11   -1    0    0    0    0 -0.00000000000E+00 -0.00000000000E+00 -0.45593999997E+02  0.45594000000E+02  0.51100000000E-03 0.  1.
         23    2    1    2    0    0  0.35527136788E-14  0.88817841970E-15  0.00000000000E+00  0.91188000000E+02  0.91188000000E+02 0.  0.
    9900012    2    3    3    0    0  0.27912380504E+02  0.19219105184E+01 -0.23937137154E+02  0.54367064914E+02  0.39999956085E+02 0.  0.
        -12    1    3    3    0    0 -0.27912380504E+02 -0.19219105184E+01  0.23937137154E+02  0.36820935086E+02  0.00000000000E+00 0.  1.
         11    1    4    4    0    0 -0.25268580040E+01  0.56833648237E+01  0.23581912289E+01  0.66518202941E+01  0.51100000000E-03 0. -1.
        -11    1    4    4    0    0  0.25492290610E+02  0.68449784187E+01 -0.11348084361E+02  0.28731335315E+02  0.51100000000E-03 0.  1.
        -12    1    4    4    0    0  0.49469478983E+01 -0.10606432724E+02 -0.14947244022E+02  0.18983909305E+02  0.00000000000E+00 0.  1.
</event>
<event>
 8    1  0.2512298E-006  0.9118800E+02  0.7816164E-02  0.1184000E+00
        -11   -1    0    0    0    0  0.00000000000E+00  0.00000000000E+00  0.45593999997E+02  0.45594000000E+02  0.51100000000E-03 0.  1.
         11   -1    0    0    0    0 -0.00000000000E+00 -0.00000000000E+00 -0.45593999997E+02  0.45594000000E+02  0.51100000000E-03 0. -1.
         23    2    1    2    0    0 -0.35527136788E-14 -0.35527136788E-14  0.00000000000E+00  0.91188000000E+02  0.91188000000E+02 0.  0.
    9900012    2    3    3    0    0 -0.24748909192E+02  0.25145243307E+02 -0.10535084473E+02  0.54367085128E+02  0.40000002167E+02 0.  0.
         12    1    3    3    0    0  0.24748909192E+02 -0.25145243307E+02  0.10535084473E+02  0.36820914872E+02  0.00000000000E+00 0. -1.
         11    1    4    4    0    0 -0.38172907385E+01 -0.69540034428E+01 -0.59362643975E+01  0.99080324850E+01  0.51100000000E-03 0. -1.
        -11    1    4    4    0    0 -0.75118068500E+01 -0.17164899321E+01 -0.21286336583E+01  0.79940391137E+01  0.51100000000E-03 0.  1.
        -12    1    4    4    0    0 -0.13419811603E+02  0.33815736682E+02 -0.24701864172E+01  0.36465013530E+02  0.00000000000E+00 0.  1.
</event>
<event>
 8    1  0.2512298E-006  0.9118800E+02  0.7816164E-02  0.1184000E+00
        -11   -1    0    0    0    0  0.00000000000E+00  0.00000000000E+00  0.45593999997E+02  0.45594000000E+02  0.51100000000E-03 0.  1.
         11   -1    0    0    0    0 -0.00000000000E+00 -0.00000000000E+00 -0.45593999997E+02  0.45594000000E+02  0.51100000000E-03 0. -1.
         23    2    1    2    0    0  0.35527136788E-14  0.00000000000E+00  0.00000000000E+00  0.91188000000E+02  0.91188000000E+02 0.  0.
    9900012    2    3    3    0    0 -0.21623592882E+02  0.28497530071E+02  0.87228415836E+01  0.54367123387E+02  0.40000089385E+02 0.  0.
         12    1    3    3    0    0  0.21623592882E+02 -0.28497530071E+02 -0.87228415836E+01  0.36820876613E+02  0.00000000000E+00 0. -1.
         11    1    4    4    0    0 -0.11505773656E+02  0.10416279540E+02  0.10559553077E+02  0.18771943648E+02  0.51100000000E-03 0.  1.
        -11    1    4    4    0    0 -0.67677802240E+01 -0.63985681396E+01 -0.51877096934E+01  0.10660996929E+02  0.51100000000E-03 0. -1.
         12    1    4    4    0    0 -0.33500390018E+01  0.24479818671E+02  0.33509982003E+01  0.24934182810E+02  0.00000000000E+00 0. -1.
</event>
<event>
 8    1  0.2512298E-006  0.9118800E+02  0.7816164E-02  0.1184000E+00
        -11   -1    0    0    0    0  0.00000000000E+00  0.00000000000E+00  0.45593999997E+02  0.45594000000E+02  0.51100000000E-03 0.  1.
         11   -1    0    0    0    0 -0.00000000000E+00 -0.00000000000E+00 -0.45593999997E+02  0.45594000000E+02  0.51100000000E-03 0. -1.
         23    2    1    2    0    0  0.22204460493E-15  0.00000000000E+00  0.00000000000E+00  0.91188000000E+02  0.91188000000E+02 0.  0.
    9900012    2    3    3    0    0  0.13003643635E+01  0.21584228443E+02  0.29802851473E+02  0.54367084465E+02  0.40000000655E+02 0.  0.
         12    1    3    3    0    0 -0.13003643635E+01 -0.21584228443E+02 -0.29802851473E+02  0.36820915535E+02  0.00000000000E+00 0. -1.
         11    1    4    4    0    0 -0.17370314166E+01  0.34355926991E+01  0.83580688966E+00  0.39394350806E+01  0.51100000000E-03 0. -1.
        -11    1    4    4    0    0  0.75892775369E+01  0.19879170208E+02  0.36032608295E+02  0.41846474195E+02  0.51100000000E-03 0.  1.
        -12    1    4    4    0    0 -0.45518817567E+01 -0.17305344646E+01 -0.70655637125E+01  0.85811751897E+01  0.00000000000E+00 0.  1.
</event>
<event>
 8    1  0.2512298E-006  0.9118800E+02  0.7816164E-02  0.1184000E+00
        -11   -1    0    0    0    0  0.00000000000E+00  0.00000000000E+00  0.45593999997E+02  0.45594000000E+02  0.51100000000E-03 0.  1.
         11   -1    0    0    0    0 -0.00000000000E+00 -0.00000000000E+00 -0.45593999997E+02  0.45594000000E+02  0.51100000000E-03 0. -1.
         23    2    1    2    0    0  0.33306690739E-15  0.00000000000E+00  0.00000000000E+00  0.91188000000E+02  0.91188000000E+02 0.  0.
    9900012    2    3    3    0    0  0.53572019451E+00  0.35824785372E+02  0.84898714430E+01  0.54367079857E+02  0.39999990150E+02 0.  0.
         12    1    3    3    0    0 -0.53572019451E+00 -0.35824785372E+02 -0.84898714430E+01  0.36820920143E+02  0.00000000000E+00 0. -1.
         11    1    4    4    0    0 -0.51813799257E+00  0.10221192707E+02 -0.11210013350E+02  0.15179118779E+02  0.51100000000E-03 0. -1.
        -11    1    4    4    0    0 -0.13856972241E+01 -0.18250524135E+01 -0.28068443073E+01  0.36234442641E+01  0.51100000000E-03 0.  1.
        -12    1    4    4    0    0  0.24395554112E+01  0.27428645078E+02  0.22506729100E+02  0.35564516814E+02  0.00000000000E+00 0.  1.
</event>
<event>
 8    1  0.2512298E-006  0.9118800E+02  0.7816164E-02  0.1184000E+00
        -11   -1    0    0    0    0  0.00000000000E+00  0.00000000000E+00  0.45593999997E+02  0.45594000000E+02  0.51100000000E-03 0.  1.
         11   -1    0    0    0    0 -0.00000000000E+00 -0.00000000000E+00 -0.45593999997E+02  0.45594000000E+02  0.51100000000E-03 0. -1.
         23    2    1    2    0    0 -0.17763568394E-14  0.00000000000E+00 -0.71054273576E-14  0.91188000000E+02  0.91188000000E+02 0.  0.
    9900012    2    3    3    0    0 -0.98443987522E+01  0.14078614024E+02 -0.32567781553E+02  0.54367082644E+02  0.39999996503E+02 0.  0.
        -12    1    3    3    0    0  0.98443987522E+01 -0.14078614024E+02  0.32567781553E+02  0.36820917356E+02  0.00000000000E+00 0.  1.
         11    1    4    4    0    0 -0.18037021337E+02  0.14226116785E+02 -0.28795816373E+02  0.36836335029E+02  0.51100000000E-03 0. -1.
        -11    1    4    4    0    0 -0.33458414365E+01  0.33002058035E+01  0.55983799724E+00  0.47328038315E+01  0.51100000000E-03 0.  1.
        -12    1    4    4    0    0  0.11538464021E+02 -0.34477085645E+01 -0.43318031776E+01  0.12797943784E+02  0.00000000000E+00 0.  1.
</event>
<event>
 8    1  0.2512298E-006  0.9118800E+02  0.7816164E-02  0.1184000E+00
        -11   -1    0    0    0    0  0.00000000000E+00  0.00000000000E+00  0.45593999997E+02  0.45594000000E+02  0.51100000000E-03 0. -1.
         11   -1    0    0    0    0 -0.00000000000E+00 -0.00000000000E+00 -0.45593999997E+02  0.45594000000E+02  0.51100000000E-03 0.  1.
         23    2    1    2    0    0  0.00000000000E+00  0.35527136788E-14  0.88817841970E-15  0.91188000000E+02  0.91188000000E+02 0.  0.
    9900012    2    3    3    0    0 -0.21698332942E+02 -0.28872362913E+02 -0.71656854937E+01  0.54367108630E+02  0.40000055744E+02 0.  0.
         12    1    3    3    0    0  0.21698332942E+02  0.28872362913E+02  0.71656854937E+01  0.36820891370E+02  0.00000000000E+00 0. -1.
         11    1    4    4    0    0 -0.20149600845E+01 -0.18400915537E+01 -0.10237470342E+02  0.10594895013E+02  0.51100000000E-03 0. -1.
        -11    1    4    4    0    0  0.70939665227E+01 -0.58109354483E+01 -0.15300125981E+01  0.92968957519E+01  0.51100000000E-03 0.  1.
         12    1    4    4    0    0 -0.26777339380E+02 -0.21221335911E+02  0.46017974468E+01  0.34475317865E+02  0.00000000000E+00 0. -1.
</event>
<event>
 8    1  0.2512298E-006  0.9118800E+02  0.7816164E-02  0.1184000E+00
        -11   -1    0    0    0    0  0.00000000000E+00  0.00000000000E+00  0.45593999997E+02  0.45594000000E+02  0.51100000000E-03 0.  1.
         11   -1    0    0    0    0 -0.00000000000E+00 -0.00000000000E+00 -0.45593999997E+02  0.45594000000E+02  0.51100000000E-03 0. -1.
         23    2    1    2    0    0  0.00000000000E+00  0.35527136788E-14  0.00000000000E+00  0.91188000000E+02  0.91188000000E+02 0.  0.
    9900012    2    3    3    0    0 -0.88148608436E+01  0.16260458186E+02  0.31838440679E+02  0.54366938406E+02  0.39999667682E+02 0.  0.
         12    1    3    3    0    0  0.88148608436E+01 -0.16260458186E+02 -0.31838440679E+02  0.36821061594E+02  0.00000000000E+00 0. -1.
         11    1    4    4    0    0  0.39442065325E+01  0.45178629931E+01  0.62635234555E+01  0.86717689968E+01  0.51100000000E-03 0. -1.
        -11    1    4    4    0    0 -0.19354023852E+02 -0.44202579251E+01  0.17487612339E+02  0.26456256443E+02  0.51100000000E-03 0.  1.
         12    1    4    4    0    0  0.65949564758E+01  0.16162853118E+02  0.80873048838E+01  0.19238912966E+02  0.00000000000E+00 0. -1.
</event>
<event>
 8    1  0.2512298E-006  0.9118800E+02  0.7816164E-02  0.1184000E+00
        -11   -1    0    0    0    0  0.00000000000E+00  0.00000000000E+00  0.45593999997E+02  0.45594000000E+02  0.51100000000E-03 0.  1.
         11   -1    0    0    0    0 -0.00000000000E+00 -0.00000000000E+00 -0.45593999997E+02  0.45594000000E+02  0.51100000000E-03 0. -1.
         23    2    1    2    0    0  0.88817841970E-15 -0.17763568394E-14 -0.71054273576E-14  0.91188000000E+02  0.91188000000E+02 0.  0.
    9900012    2    3    3    0    0 -0.27312568610E+01 -0.76606983788E+01 -0.35911403282E+02  0.54367150616E+02  0.40000151459E+02 0.  0.
        -12    1    3    3    0    0  0.27312568610E+01  0.76606983788E+01  0.35911403282E+02  0.36820849384E+02  0.00000000000E+00 0.  1.
         11    1    4    4    0    0  0.42264329434E+01 -0.10835272313E+02 -0.31256797305E+02  0.33350460860E+02  0.51100000000E-03 0. -1.
        -11    1    4    4    0    0  0.42483510467E+01 -0.47136833022E+01 -0.35428037702E+01  0.72676513197E+01  0.51100000000E-03 0.  1.
        -12    1    4    4    0    0 -0.11206040851E+02  0.78882572367E+01 -0.11118022064E+01  0.13749038437E+02  0.00000000000E+00 0.  1.
</event>
<event>
 8    1  0.2512298E-006  0.9118800E+02  0.7816164E-02  0.1184000E+00
        -11   -1    0    0    0    0  0.00000000000E+00  0.00000000000E+00  0.45593999997E+02  0.45594000000E+02  0.51100000000E-03 0.  1.
         11   -1    0    0    0    0 -0.00000000000E+00 -0.00000000000E+00 -0.45593999997E+02  0.45594000000E+02  0.51100000000E-03 0. -1.
         23    2    1    2    0    0  0.00000000000E+00  0.35527136788E-14  0.17763568394E-14  0.91188000000E+02  0.91188000000E+02 0.  0.
    9900012    2    3    3    0    0 -0.21203394552E+02 -0.28646986343E+02 -0.92491102240E+01  0.54367084653E+02  0.40000001084E+02 0.  0.
         12    1    3    3    0    0  0.21203394552E+02  0.28646986343E+02  0.92491102240E+01  0.36820915347E+02  0.00000000000E+00 0. -1.
         11    1    4    4    0    0  0.63920588375E+01 -0.13076296673E+02 -0.12148913478E+02  0.18959009727E+02  0.51100000000E-03 0. -1.
        -11    1    4    4    0    0  0.56454488755E+00 -0.46871572475E+00  0.33717193827E+01  0.34506372190E+01  0.51100000000E-03 0.  1.
        -12    1    4    4    0    0 -0.28159998277E+02 -0.15101973944E+02 -0.47191612918E+00  0.31957437707E+02  0.00000000000E+00 0.  1.
</event>
<event>
 8    1  0.2512298E-006  0.9118800E+02  0.7816164E-02  0.1184000E+00
        -11   -1    0    0    0    0  0.00000000000E+00  0.00000000000E+00  0.45593999997E+02  0.45594000000E+02  0.51100000000E-03 0. -1.
         11   -1    0    0    0    0 -0.00000000000E+00 -0.00000000000E+00 -0.45593999997E+02  0.45594000000E+02  0.51100000000E-03 0.  1.
         23    2    1    2    0    0  0.17763568394E-14  0.00000000000E+00  0.00000000000E+00  0.91188000000E+02  0.91188000000E+02 0.  0.
    9900012    2    3    3    0    0  0.15968905112E+02 -0.24325711707E+02 -0.22561769925E+02  0.54367086884E+02  0.40000006170E+02 0.  0.
         12    1    3    3    0    0 -0.15968905112E+02  0.24325711707E+02  0.22561769925E+02  0.36820913116E+02  0.00000000000E+00 0. -1.
         11    1    4    4    0    0  0.13824945420E+01  0.35443734084E+01 -0.22580915970E+02  0.22899162437E+02  0.51100000000E-03 0. -1.
        -11    1    4    4    0    0  0.12044323613E+02 -0.23187108322E+02 -0.29315941477E+00  0.26130320824E+02  0.51100000000E-03 0.  1.
         12    1    4    4    0    0  0.25420869566E+01 -0.46829767936E+01  0.31230545981E+00  0.53376036238E+01  0.00000000000E+00 0. -1.
</event>
<event>
 8    1  0.2512298E-006  0.9118800E+02  0.7816164E-02  0.1184000E+00
        -11   -1    0    0    0    0  0.00000000000E+00  0.00000000000E+00  0.45593999997E+02  0.45594000000E+02  0.51100000000E-03 0. -1.
         11   -1    0    0    0    0 -0.00000000000E+00 -0.00000000000E+00 -0.45593999997E+02  0.45594000000E+02  0.51100000000E-03 0.  1.
         23    2    1    2    0    0  0.35527136788E-14  0.88817841970E-15  0.71054273576E-14  0.91188000000E+02  0.91188000000E+02 0.  0.
    9900012    2    3    3    0    0  0.16041673807E+02  0.77063915159E+01  0.32234505286E+02  0.54366985623E+02  0.39999775323E+02 0.  0.
        -12    1    3    3    0    0 -0.16041673807E+02 -0.77063915159E+01 -0.32234505286E+02  0.36821014377E+02  0.00000000000E+00 0.  1.
         11    1    4    4    0    0  0.18565265875E+02 -0.21783534749E+01  0.32803681578E+02  0.37755739249E+02  0.51100000000E-03 0. -1.
        -11    1    4    4    0    0  0.22972466553E+01  0.27911540516E+01 -0.56018923423E+01  0.66670144150E+01  0.51100000000E-03 0.  1.
         12    1    4    4    0    0 -0.48208387234E+01  0.70935909392E+01  0.50327160503E+01  0.99442319589E+01  0.00000000000E+00 0. -1.
</event>
<event>
 8    1  0.2512298E-006  0.9118800E+02  0.7816164E-02  0.1184000E+00
        -11   -1    0    0    0    0  0.00000000000E+00  0.00000000000E+00  0.45593999997E+02  0.45594000000E+02  0.51100000000E-03 0. -1.
         11   -1    0    0    0    0 -0.00000000000E+00 -0.00000000000E+00 -0.45593999997E+02  0.45594000000E+02  0.51100000000E-03 0.  1.
         23    2    1    2    0    0  0.35527136788E-14 -0.17763568394E-14  0.00000000000E+00  0.91188000000E+02  0.91188000000E+02 0.  0.
    9900012    2    3    3    0    0 -0.28929211395E+02  0.14673297920E+02  0.17423402305E+02  0.54367083503E+02  0.39999998461E+02 0.  0.
         12    1    3    3    0    0  0.28929211395E+02 -0.14673297920E+02 -0.17423402305E+02  0.36820916497E+02  0.00000000000E+00 0. -1.
         11    1    4    4    0    0 -0.68696542375E+01 -0.48527995817E+01 -0.10364166207E+01  0.84744305292E+01  0.51100000000E-03 0. -1.
        -11    1    4    4    0    0 -0.49510268630E+01  0.23859183803E+02  0.10761421648E+02  0.26637971298E+02  0.51100000000E-03 0.  1.
        -12    1    4    4    0    0 -0.17108530295E+02 -0.43330863018E+01  0.76983972781E+01  0.19254681675E+02  0.00000000000E+00 0.  1.
</event>
<event>
 8    1  0.2512298E-006  0.9118800E+02  0.7816164E-02  0.1184000E+00
        -11   -1    0    0    0    0  0.00000000000E+00  0.00000000000E+00  0.45593999997E+02  0.45594000000E+02  0.51100000000E-03 0. -1.
         11   -1    0    0    0    0 -0.00000000000E+00 -0.00000000000E+00 -0.45593999997E+02  0.45594000000E+02  0.51100000000E-03 0.  1.
         23    2    1    2    0    0  0.00000000000E+00  0.00000000000E+00 -0.17763568394E-14  0.91188000000E+02  0.91188000000E+02 0.  0.
    9900012    2    3    3    0    0  0.12956546122E+02 -0.31433243746E+02  0.14137139217E+02  0.54367087395E+02  0.40000007334E+02 0.  0.
        -12    1    3    3    0    0 -0.12956546122E+02  0.31433243746E+02 -0.14137139217E+02  0.36820912605E+02  0.00000000000E+00 0.  1.
         11    1    4    4    0    0  0.16116357139E+02 -0.11926485352E+02 -0.26778577795E+00  0.20051177765E+02  0.51100000000E-03 0. -1.
        -11    1    4    4    0    0 -0.56122155270E+01 -0.15604677529E+02  0.20694104095E+02  0.26518839878E+02  0.51100000000E-03 0.  1.
        -12    1    4    4    0    0  0.24524045100E+01 -0.39020808658E+01 -0.62891791001E+01  0.77970697519E+01  0.00000000000E+00 0.  1.
</event>
<event>
 8    1  0.2512298E-006  0.9118800E+02  0.7816164E-02  0.1184000E+00
        -11   -1    0    0    0    0  0.00000000000E+00  0.00000000000E+00  0.45593999997E+02  0.45594000000E+02  0.51100000000E-03 0.  1.
         11   -1    0    0    0    0 -0.00000000000E+00 -0.00000000000E+00 -0.45593999997E+02  0.45594000000E+02  0.51100000000E-03 0. -1.
         23    2    1    2    0    0  0.00000000000E+00  0.35527136788E-14  0.88817841970E-15  0.91188000000E+02  0.91188000000E+02 0.  0.
    9900012    2    3    3    0    0 -0.22594285918E+02 -0.28921764400E+02 -0.29681051238E+01  0.54367083930E+02  0.39999999436E+02 0.  0.
        -12    1    3    3    0    0  0.22594285918E+02  0.28921764400E+02  0.29681051238E+01  0.36820916070E+02  0.00000000000E+00 0.  1.
         11    1    4    4    0    0 -0.25531554458E+02 -0.66923293413E+01 -0.23581515926E+01  0.26499215541E+02  0.51100000000E-03 0. -1.
        -11    1    4    4    0    0  0.82855555735E+00 -0.17467406059E+02  0.68407094605E+01  0.18777435526E+02  0.51100000000E-03 0.  1.
         12    1    4    4    0    0  0.21087129825E+01 -0.47620289998E+01 -0.74506629917E+01  0.90904328639E+01  0.00000000000E+00 0. -1.
</event>
<event>
 8    1  0.2512298E-006  0.9118800E+02  0.7816164E-02  0.1184000E+00
        -11   -1    0    0    0    0  0.00000000000E+00  0.00000000000E+00  0.45593999997E+02  0.45594000000E+02  0.51100000000E-03 0. -1.
         11   -1    0    0    0    0 -0.00000000000E+00 -0.00000000000E+00 -0.45593999997E+02  0.45594000000E+02  0.51100000000E-03 0.  1.
         23    2    1    2    0    0  0.71054273576E-14  0.00000000000E+00  0.88817841970E-15  0.91188000000E+02  0.91188000000E+02 0.  0.
    9900012    2    3    3    0    0  0.36226540376E+02 -0.50556370105E+01 -0.42258562120E+01  0.54367088090E+02  0.40000008918E+02 0.  0.
         12    1    3    3    0    0 -0.36226540376E+02  0.50556370105E+01  0.42258562120E+01  0.36820911910E+02  0.00000000000E+00 0. -1.
         11    1    4    4    0    0  0.52700257038E+01  0.80475023051E+01 -0.11997843964E+02  0.15378027322E+02  0.51100000000E-03 0. -1.
        -11    1    4    4    0    0  0.91071979232E+01 -0.48203118159E+01  0.11372892559E+02  0.15346633032E+02  0.51100000000E-03 0.  1.
        -12    1    4    4    0    0  0.21849316749E+02 -0.82828274997E+01 -0.36009048066E+01  0.23642427735E+02  0.00000000000E+00 0.  1.
</event>
<event>
 8    1  0.2512298E-006  0.9118800E+02  0.7816164E-02  0.1184000E+00
        -11   -1    0    0    0    0  0.00000000000E+00  0.00000000000E+00  0.45593999997E+02  0.45594000000E+02  0.51100000000E-03 0.  1.
         11   -1    0    0    0    0 -0.00000000000E+00 -0.00000000000E+00 -0.45593999997E+02  0.45594000000E+02  0.51100000000E-03 0. -1.
         23    2    1    2    0    0  0.35527136788E-14 -0.35527136788E-14  0.17763568394E-14  0.91188000000E+02  0.91188000000E+02 0.  0.
    9900012    2    3    3    0    0 -0.16995077186E+02  0.29159213856E+02 -0.14720295821E+02  0.54367088682E+02  0.40000010268E+02 0.  0.
        -12    1    3    3    0    0  0.16995077186E+02 -0.29159213856E+02  0.14720295821E+02  0.36820911318E+02  0.00000000000E+00 0.  1.
         11    1    4    4    0    0 -0.23964486513E+02  0.19446517559E+02 -0.40169638426E+01  0.31122333745E+02  0.51100000000E-03 0. -1.
        -11    1    4    4    0    0  0.86157652139E+01 -0.14036284062E+01 -0.76315149987E+01  0.11594895617E+02  0.51100000000E-03 0.  1.
        -12    1    4    4    0    0 -0.16463558869E+01  0.11116324703E+02 -0.30718169799E+01  0.11649859320E+02  0.00000000000E+00 0.  1.
</event>
<event>
 8    1  0.2512298E-006  0.9118800E+02  0.7816164E-02  0.1184000E+00
        -11   -1    0    0    0    0  0.00000000000E+00  0.00000000000E+00  0.45593999997E+02  0.45594000000E+02  0.51100000000E-03 0. -1.
         11   -1    0    0    0    0 -0.00000000000E+00 -0.00000000000E+00 -0.45593999997E+02  0.45594000000E+02  0.51100000000E-03 0.  1.
         23    2    1    2    0    0  0.00000000000E+00  0.00000000000E+00  0.00000000000E+00  0.91188000000E+02  0.91188000000E+02 0.  0.
    9900012    2    3    3    0    0  0.89689844559E+01  0.22750392956E+02 -0.27527381126E+02  0.54367085108E+02  0.40000002121E+02 0.  0.
         12    1    3    3    0    0 -0.89689844559E+01 -0.22750392956E+02  0.27527381126E+02  0.36820914892E+02  0.00000000000E+00 0. -1.
         11    1    4    4    0    0 -0.14608228713E+02  0.85611930277E+01 -0.87027842589E+01  0.19037668615E+02  0.51100000000E-03 0. -1.
        -11    1    4    4    0    0  0.19258370017E+02  0.16033233108E+02 -0.14535630102E+02  0.28969534382E+02  0.51100000000E-03 0.  1.
        -12    1    4    4    0    0  0.43188431521E+01 -0.18440331805E+01 -0.42889667658E+01  0.63598821107E+01  0.00000000000E+00 0.  1.
</event>
<event>
 8    1  0.2512298E-006  0.9118800E+02  0.7816164E-02  0.1184000E+00
        -11   -1    0    0    0    0  0.00000000000E+00  0.00000000000E+00  0.45593999997E+02  0.45594000000E+02  0.51100000000E-03 0. -1.
         11   -1    0    0    0    0 -0.00000000000E+00 -0.00000000000E+00 -0.45593999997E+02  0.45594000000E+02  0.51100000000E-03 0.  1.
         23    2    1    2    0    0 -0.17763568394E-14 -0.35527136788E-14  0.00000000000E+00  0.91188000000E+02  0.91188000000E+02 0.  0.
    9900012    2    3    3    0    0 -0.12839490101E+02 -0.27912067875E+02 -0.20293991117E+02  0.54367053318E+02  0.39999929649E+02 0.  0.
         12    1    3    3    0    0  0.12839490101E+02  0.27912067875E+02  0.20293991117E+02  0.36820946682E+02  0.00000000000E+00 0. -1.
         11    1    4    4    0    0  0.27317031688E+01 -0.13021573895E+02 -0.34134584303E+01  0.13735912333E+02  0.51100000000E-03 0. -1.
        -11    1    4    4    0    0 -0.19610888062E+01 -0.21531010915E+02 -0.11962148040E+02  0.24708769421E+02  0.51100000000E-03 0.  1.
        -12    1    4    4    0    0 -0.13610104464E+02  0.66405169348E+01 -0.49183846466E+01  0.15922371564E+02  0.00000000000E+00 0.  1.
</event>
<event>
 8    1  0.2512298E-006  0.9118800E+02  0.7816164E-02  0.1184000E+00
        -11   -1    0    0    0    0  0.00000000000E+00  0.00000000000E+00  0.45593999997E+02  0.45594000000E+02  0.51100000000E-03 0.  1.
         11   -1    0    0    0    0 -0.00000000000E+00 -0.00000000000E+00 -0.45593999997E+02  0.45594000000E+02  0.51100000000E-03 0. -1.
         23    2    1    2    0    0  0.26645352591E-14  0.00000000000E+00  0.88817841970E-15  0.91188000000E+02  0.91188000000E+02 0.  0.
    9900012    2    3    3    0    0 -0.79227632800E+01  0.35373069721E+02 -0.64618039752E+01  0.54367093574E+02  0.40000021420E+02 0.  0.
         12    1    3    3    0    0  0.79227632800E+01 -0.35373069721E+02  0.64618039752E+01  0.36820906426E+02  0.00000000000E+00 0. -1.
         11    1    4    4    0    0 -0.28441688499E+01 -0.31797015607E+01  0.30275809957E+01  0.52312565802E+01  0.51100000000E-03 0. -1.
        -11    1    4    4    0    0  0.97831525609E+01  0.26037768769E+02 -0.10373526219E+02  0.29686453526E+02  0.51100000000E-03 0.  1.
        -12    1    4    4    0    0 -0.14861746991E+02  0.12515002513E+02  0.88414124802E+00  0.19449383467E+02  0.00000000000E+00 0.  1.
</event>
<event>
 8    1  0.2512298E-006  0.9118800E+02  0.7816164E-02  0.1184000E+00
        -11   -1    0    0    0    0  0.00000000000E+00  0.00000000000E+00  0.45593999997E+02  0.45594000000E+02  0.51100000000E-03 0. -1.
         11   -1    0    0    0    0 -0.00000000000E+00 -0.00000000000E+00 -0.45593999997E+02  0.45594000000E+02  0.51100000000E-03 0.  1.
         23    2    1    2    0    0 -0.17763568394E-14  0.17763568394E-14 -0.71054273576E-14  0.91188000000E+02  0.91188000000E+02 0.  0.
    9900012    2    3    3    0    0 -0.57920016401E+01  0.13958721924E+02 -0.33576619460E+02  0.54367047064E+02  0.39999915392E+02 0.  0.
         12    1    3    3    0    0  0.57920016401E+01 -0.13958721924E+02  0.33576619460E+02  0.36820952936E+02  0.00000000000E+00 0. -1.
         11    1    4    4    0    0  0.72756396501E+01  0.56083197881E+01  0.36054420008E+01  0.98685052286E+01  0.51100000000E-03 0. -1.
        -11    1    4    4    0    0  0.34786918638E+01  0.70330552821E+01 -0.12133915371E+02  0.14449811977E+02  0.51100000000E-03 0.  1.
        -12    1    4    4    0    0 -0.16546333154E+02  0.13173468535E+01 -0.25048146090E+02  0.30048729859E+02  0.00000000000E+00 0.  1.
</event>
<event>
 8    1  0.2512298E-006  0.9118800E+02  0.7816164E-02  0.1184000E+00
        -11   -1    0    0    0    0  0.00000000000E+00  0.00000000000E+00  0.45593999997E+02  0.45594000000E+02  0.51100000000E-03 0.  1.
         11   -1    0    0    0    0 -0.00000000000E+00 -0.00000000000E+00 -0.45593999997E+02  0.45594000000E+02  0.51100000000E-03 0. -1.
         23    2    1    2    0    0  0.35527136788E-14 -0.35527136788E-14 -0.71054273576E-14  0.91188000000E+02  0.91188000000E+02 0.  0.
    9900012    2    3    3    0    0 -0.15849683659E+02  0.27389692543E+02  0.18824769332E+02  0.54367086511E+02  0.40000005320E+02 0.  0.
         12    1    3    3    0    0  0.15849683659E+02 -0.27389692543E+02 -0.18824769332E+02  0.36820913489E+02  0.00000000000E+00 0. -1.
         11    1    4    4    0    0 -0.29314647003E-02  0.24024382693E+01 -0.74244865235E+01  0.78035068162E+01  0.51100000000E-03 0. -1.
        -11    1    4    4    0    0 -0.20385713068E+01  0.94856466622E+01 -0.34765695530E+01  0.10306299127E+02  0.51100000000E-03 0.  1.
         12    1    4    4    0    0 -0.13808180888E+02  0.15501607612E+02  0.29725825409E+02  0.36257280568E+02  0.00000000000E+00 0. -1.
</event>
<event>
 8    1  0.2512298E-006  0.9118800E+02  0.7816164E-02  0.1184000E+00
        -11   -1    0    0    0    0  0.00000000000E+00  0.00000000000E+00  0.45593999997E+02  0.45594000000E+02  0.51100000000E-03 0. -1.
         11   -1    0    0    0    0 -0.00000000000E+00 -0.00000000000E+00 -0.45593999997E+02  0.45594000000E+02  0.51100000000E-03 0.  1.
         23    2    1    2    0    0  0.00000000000E+00 -0.88817841970E-15 -0.17763568394E-14  0.91188000000E+02  0.91188000000E+02 0.  0.
    9900012    2    3    3    0    0 -0.33497683342E+02  0.19341991528E+01  0.15163928684E+02  0.54367073222E+02  0.39999975025E+02 0.  0.
        -12    1    3    3    0    0  0.33497683342E+02 -0.19341991528E+01 -0.15163928684E+02  0.36820926778E+02  0.00000000000E+00 0.  1.
         11    1    4    4    0    0 -0.11050069197E+02  0.10369868290E+01  0.15482185823E+02  0.19049342484E+02  0.51100000000E-03 0. -1.
        -11    1    4    4    0    0 -0.11080406013E+02 -0.12910586143E+02  0.25526079597E+01  0.17203907685E+02  0.51100000000E-03 0.  1.
         12    1    4    4    0    0 -0.11367208132E+02  0.13807798467E+02 -0.28708650990E+01  0.18113823054E+02  0.00000000000E+00 0. -1.
</event>
<event>
 8    1  0.2512298E-006  0.9118800E+02  0.7816164E-02  0.1184000E+00
        -11   -1    0    0    0    0  0.00000000000E+00  0.00000000000E+00  0.45593999997E+02  0.45594000000E+02  0.51100000000E-03 0. -1.
         11   -1    0    0    0    0 -0.00000000000E+00 -0.00000000000E+00 -0.45593999997E+02  0.45594000000E+02  0.51100000000E-03 0.  1.
         23    2    1    2    0    0  0.71054273576E-14  0.00000000000E+00  0.17763568394E-14  0.91188000000E+02  0.91188000000E+02 0.  0.
    9900012    2    3    3    0    0 -0.28523340020E+02  0.18849874387E+02  0.13670509959E+02  0.54367061217E+02  0.39999947657E+02 0.  0.
         12    1    3    3    0    0  0.28523340020E+02 -0.18849874387E+02 -0.13670509959E+02  0.36820938783E+02  0.00000000000E+00 0. -1.
         11    1    4    4    0    0 -0.10004166374E+02  0.12779839983E+02  0.11341886195E+02  0.19800152462E+02  0.51100000000E-03 0. -1.
        -11    1    4    4    0    0 -0.13981404399E+02  0.13791784231E+02  0.10650473461E+02  0.22341118290E+02  0.51100000000E-03 0.  1.
        -12    1    4    4    0    0 -0.45377692467E+01 -0.77217498261E+01 -0.83218496973E+01  0.12225790465E+02  0.00000000000E+00 0.  1.
</event>
<event>
 8    1  0.2512298E-006  0.9118800E+02  0.7816164E-02  0.1184000E+00
        -11   -1    0    0    0    0  0.00000000000E+00  0.00000000000E+00  0.45593999997E+02  0.45594000000E+02  0.51100000000E-03 0. -1.
         11   -1    0    0    0    0 -0.00000000000E+00 -0.00000000000E+00 -0.45593999997E+02  0.45594000000E+02  0.51100000000E-03 0.  1.
         23    2    1    2    0    0  0.00000000000E+00  0.00000000000E+00  0.00000000000E+00  0.91188000000E+02  0.91188000000E+02 0.  0.
    9900012    2    3    3    0    0 -0.10754416708E+02  0.14920861769E+02 -0.31898123418E+02  0.54367083767E+02  0.39999999064E+02 0.  0.
         12    1    3    3    0    0  0.10754416708E+02 -0.14920861769E+02  0.31898123418E+02  0.36820916233E+02  0.00000000000E+00 0. -1.
         11    1    4    4    0    0  0.40116792394E+00  0.65136389691E+01 -0.62993561978E+00  0.65563135579E+01  0.51100000000E-03 0. -1.
        -11    1    4    4    0    0 -0.20930241366E+02  0.13583285453E+02 -0.23663831287E+02  0.34388334632E+02  0.51100000000E-03 0.  1.
        -12    1    4    4    0    0  0.97746567345E+01 -0.51760626534E+01 -0.76043565111E+01  0.13422435577E+02  0.00000000000E+00 0.  1.
</event>
<event>
 8    1  0.2512298E-006  0.9118800E+02  0.7816164E-02  0.1184000E+00
        -11   -1    0    0    0    0  0.00000000000E+00  0.00000000000E+00  0.45593999997E+02  0.45594000000E+02  0.51100000000E-03 0.  1.
         11   -1    0    0    0    0 -0.00000000000E+00 -0.00000000000E+00 -0.45593999997E+02  0.45594000000E+02  0.51100000000E-03 0. -1.
         23    2    1    2    0    0  0.00000000000E+00  0.00000000000E+00 -0.17763568394E-14  0.91188000000E+02  0.91188000000E+02 0.  0.
    9900012    2    3    3    0    0  0.31591353196E+02  0.17170277279E+02 -0.79336292994E+01  0.54367156820E+02  0.40000165603E+02 0.  0.
        -12    1    3    3    0    0 -0.31591353196E+02 -0.17170277279E+02  0.79336292994E+01  0.36820843180E+02  0.00000000000E+00 0.  1.
         11    1    4    4    0    0  0.13264210788E+02  0.39883718084E+01  0.65645030925E+01  0.15327723204E+02  0.51100000000E-03 0. -1.
        -11    1    4    4    0    0 -0.33976446572E+01 -0.17094422848E+00 -0.13063085330E+02  0.13498792900E+02  0.51100000000E-03 0.  1.
        -12    1    4    4    0    0  0.21724787065E+02  0.13352849699E+02 -0.14350470615E+01  0.25540640716E+02  0.00000000000E+00 0.  1.
</event>
<event>
 8    1  0.2512298E-006  0.9118800E+02  0.7816164E-02  0.1184000E+00
        -11   -1    0    0    0    0  0.00000000000E+00  0.00000000000E+00  0.45593999997E+02  0.45594000000E+02  0.51100000000E-03 0. -1.
         11   -1    0    0    0    0 -0.00000000000E+00 -0.00000000000E+00 -0.45593999997E+02  0.45594000000E+02  0.51100000000E-03 0.  1.
         23    2    1    2    0    0 -0.35527136788E-14  0.35527136788E-14 -0.17763568394E-14  0.91188000000E+02  0.91188000000E+02 0.  0.
    9900012    2    3    3    0    0 -0.31161412369E+02  0.17676688429E+02  0.85017802343E+01  0.54367092871E+02  0.40000019817E+02 0.  0.
         12    1    3    3    0    0  0.31161412369E+02 -0.17676688429E+02 -0.85017802343E+01  0.36820907129E+02  0.00000000000E+00 0. -1.
         11    1    4    4    0    0 -0.84974063883E+01 -0.44744187150E+01  0.16412633279E+02  0.19015805783E+02  0.51100000000E-03 0. -1.
        -11    1    4    4    0    0 -0.10728932438E+02  0.34862872892E+01 -0.67932692821E+01  0.13168625521E+02  0.51100000000E-03 0.  1.
         12    1    4    4    0    0 -0.11935073543E+02  0.18664819855E+02 -0.11175837627E+01  0.22182661567E+02  0.00000000000E+00 0. -1.
</event>
<event>
 8    1  0.2512298E-006  0.9118800E+02  0.7816164E-02  0.1184000E+00
        -11   -1    0    0    0    0  0.00000000000E+00  0.00000000000E+00  0.45593999997E+02  0.45594000000E+02  0.51100000000E-03 0.  1.
         11   -1    0    0    0    0 -0.00000000000E+00 -0.00000000000E+00 -0.45593999997E+02  0.45594000000E+02  0.51100000000E-03 0. -1.
         23    2    1    2    0    0 -0.17763568394E-14  0.00000000000E+00  0.17763568394E-14  0.91188000000E+02  0.91188000000E+02 0.  0.
    9900012    2    3    3    0    0  0.90066342855E+01 -0.32145350854E+02  0.15535030927E+02  0.54367078928E+02  0.39999988033E+02 0.  0.
         12    1    3    3    0    0 -0.90066342855E+01  0.32145350854E+02 -0.15535030927E+02  0.36820921072E+02  0.00000000000E+00 0. -1.
         11    1    4    4    0    0 -0.41565962015E+01 -0.14929543314E+02  0.44734966001E+00  0.15503827834E+02  0.51100000000E-03 0. -1.
        -11    1    4    4    0    0 -0.74337291833E+01 -0.77095105583E+01 -0.14261294190E+01  0.10804199554E+02  0.51100000000E-03 0.  1.
        -12    1    4    4    0    0  0.20596959670E+02 -0.95062969821E+01  0.16513810686E+02  0.28059051540E+02  0.00000000000E+00 0.  1.
</event>
<event>
 8    1  0.2512298E-006  0.9118800E+02  0.7816164E-02  0.1184000E+00
        -11   -1    0    0    0    0  0.00000000000E+00  0.00000000000E+00  0.45593999997E+02  0.45594000000E+02  0.51100000000E-03 0.  1.
         11   -1    0    0    0    0 -0.00000000000E+00 -0.00000000000E+00 -0.45593999997E+02  0.45594000000E+02  0.51100000000E-03 0. -1.
         23    2    1    2    0    0 -0.88817841970E-15  0.00000000000E+00  0.17763568394E-14  0.91188000000E+02  0.91188000000E+02 0.  0.
    9900012    2    3    3    0    0 -0.71530586081E+01  0.34804289011E+02  0.96580277326E+01  0.54367051062E+02  0.39999924505E+02 0.  0.
         12    1    3    3    0    0  0.71530586081E+01 -0.34804289011E+02 -0.96580277326E+01  0.36820948938E+02  0.00000000000E+00 0. -1.
         11    1    4    4    0    0  0.67158357973E+01  0.21711521189E+02  0.69498273380E+01  0.23765367724E+02  0.51100000000E-03 0. -1.
        -11    1    4    4    0    0  0.48261300985E+01  0.42304032132E+01  0.69736278370E+01  0.94773059750E+01  0.51100000000E-03 0.  1.
         12    1    4    4    0    0 -0.18695024504E+02  0.88623646095E+01 -0.42654274424E+01  0.21124377362E+02  0.00000000000E+00 0. -1.
</event>
<event>
 8    1  0.2512298E-006  0.9118800E+02  0.7816164E-02  0.1184000E+00
        -11   -1    0    0    0    0  0.00000000000E+00  0.00000000000E+00  0.45593999997E+02  0.45594000000E+02  0.51100000000E-03 0.  1.
         11   -1    0    0    0    0 -0.00000000000E+00 -0.00000000000E+00 -0.45593999997E+02  0.45594000000E+02  0.51100000000E-03 0. -1.
         23    2    1    2    0    0  0.00000000000E+00  0.00000000000E+00 -0.13322676296E-14  0.91188000000E+02  0.91188000000E+02 0.  0.
    9900012    2    3    3    0    0 -0.27458805623E+02 -0.24528974330E+02  0.35067868465E+00  0.54367087960E+02  0.40000008623E+02 0.  0.
        -12    1    3    3    0    0  0.27458805623E+02  0.24528974330E+02 -0.35067868465E+00  0.36820912040E+02  0.00000000000E+00 0.  1.
         11    1    4    4    0    0 -0.11523529306E+02 -0.17296920848E+02  0.81849088270E+01  0.22337590095E+02  0.51100000000E-03 0. -1.
        -11    1    4    4    0    0 -0.58370258752E+01 -0.90820845424E+00  0.93853111739E+01  0.11089624870E+02  0.51100000000E-03 0.  1.
         12    1    4    4    0    0 -0.10098250441E+02 -0.63238450277E+01 -0.17219541316E+02  0.20939872995E+02  0.00000000000E+00 0. -1.
</event>
<event>
 8    1  0.2512298E-006  0.9118800E+02  0.7816164E-02  0.1184000E+00
        -11   -1    0    0    0    0  0.00000000000E+00  0.00000000000E+00  0.45593999997E+02  0.45594000000E+02  0.51100000000E-03 0. -1.
         11   -1    0    0    0    0 -0.00000000000E+00 -0.00000000000E+00 -0.45593999997E+02  0.45594000000E+02  0.51100000000E-03 0.  1.
         23    2    1    2    0    0 -0.17763568394E-14  0.00000000000E+00  0.00000000000E+00  0.91188000000E+02  0.91188000000E+02 0.  0.
    9900012    2    3    3    0    0 -0.11216197753E+02  0.33998788484E+02 -0.86057459675E+01  0.54367087816E+02  0.40000008295E+02 0.  0.
         12    1    3    3    0    0  0.11216197753E+02 -0.33998788484E+02  0.86057459675E+01  0.36820912184E+02  0.00000000000E+00 0. -1.
         11    1    4    4    0    0 -0.13255654050E+01  0.97408053020E+01  0.12170519280E+02  0.15644869810E+02  0.51100000000E-03 0. -1.
        -11    1    4    4    0    0 -0.79063712849E+01  0.13844674355E+02 -0.62816777003E+00  0.15955573004E+02  0.51100000000E-03 0.  1.
         12    1    4    4    0    0 -0.19842610635E+01  0.10413308826E+02 -0.20148097477E+02  0.22766645002E+02  0.00000000000E+00 0. -1.
</event>
<event>
 8    1  0.2512298E-006  0.9118800E+02  0.7816164E-02  0.1184000E+00
        -11   -1    0    0    0    0  0.00000000000E+00  0.00000000000E+00  0.45593999997E+02  0.45594000000E+02  0.51100000000E-03 0. -1.
         11   -1    0    0    0    0 -0.00000000000E+00 -0.00000000000E+00 -0.45593999997E+02  0.45594000000E+02  0.51100000000E-03 0.  1.
         23    2    1    2    0    0  0.35527136788E-14  0.00000000000E+00  0.00000000000E+00  0.91188000000E+02  0.91188000000E+02 0.  0.
    9900012    2    3    3    0    0  0.20826882292E+02 -0.27624459080E+02 -0.12605954726E+02  0.54367083933E+02  0.39999999443E+02 0.  0.
         12    1    3    3    0    0 -0.20826882292E+02  0.27624459080E+02  0.12605954726E+02  0.36820916067E+02  0.00000000000E+00 0. -1.
         11    1    4    4    0    0  0.66663165600E+01 -0.96955815662E+01  0.80665489488E+01  0.14265808445E+02  0.51100000000E-03 0. -1.
        -11    1    4    4    0    0  0.12138059802E+02 -0.16587127358E+02 -0.13190682261E+01  0.20596243128E+02  0.51100000000E-03 0.  1.
        -12    1    4    4    0    0  0.20225059303E+01 -0.13417501556E+01 -0.19353435449E+02  0.19505032360E+02  0.00000000000E+00 0.  1.
</event>
<event>
 8    1  0.2512298E-006  0.9118800E+02  0.7816164E-02  0.1184000E+00
        -11   -1    0    0    0    0  0.00000000000E+00  0.00000000000E+00  0.45593999997E+02  0.45594000000E+02  0.51100000000E-03 0. -1.
         11   -1    0    0    0    0 -0.00000000000E+00 -0.00000000000E+00 -0.45593999997E+02  0.45594000000E+02  0.51100000000E-03 0.  1.
         23    2    1    2    0    0  0.00000000000E+00  0.44408920985E-15  0.00000000000E+00  0.91188000000E+02  0.91188000000E+02 0.  0.
    9900012    2    3    3    0    0 -0.27690771818E+02 -0.24212569409E+01 -0.24148263685E+02  0.54367082465E+02  0.39999996096E+02 0.  0.
         12    1    3    3    0    0  0.27690771818E+02  0.24212569409E+01  0.24148263685E+02  0.36820917535E+02  0.00000000000E+00 0. -1.
         11    1    4    4    0    0 -0.12075147161E+02  0.55633040052E+01 -0.26141996766E+01  0.13549670499E+02  0.51100000000E-03 0. -1.
        -11    1    4    4    0    0 -0.17698464163E+02 -0.83947655625E+01 -0.27909621581E+02  0.34097722793E+02  0.51100000000E-03 0.  1.
        -12    1    4    4    0    0  0.20828395057E+01  0.41020461637E+00  0.63755575724E+01  0.67196891739E+01  0.00000000000E+00 0.  1.
</event>
<event>
 8    1  0.2512298E-006  0.9118800E+02  0.7816164E-02  0.1184000E+00
        -11   -1    0    0    0    0  0.00000000000E+00  0.00000000000E+00  0.45593999997E+02  0.45594000000E+02  0.51100000000E-03 0. -1.
         11   -1    0    0    0    0 -0.00000000000E+00 -0.00000000000E+00 -0.45593999997E+02  0.45594000000E+02  0.51100000000E-03 0.  1.
         23    2    1    2    0    0  0.00000000000E+00  0.00000000000E+00  0.00000000000E+00  0.91188000000E+02  0.91188000000E+02 0.  0.
    9900012    2    3    3    0    0 -0.17965538799E+02  0.18408723262E+02  0.26346486541E+02  0.54367095211E+02  0.40000025152E+02 0.  0.
        -12    1    3    3    0    0  0.17965538799E+02 -0.18408723262E+02 -0.26346486541E+02  0.36820904789E+02  0.00000000000E+00 0.  1.
         11    1    4    4    0    0  0.72869057135E+01 -0.17625917656E+01  0.51994099482E+01  0.91235732408E+01  0.51100000000E-03 0. -1.
        -11    1    4    4    0    0 -0.24800844438E+02  0.21167529017E+02  0.10088498671E+02  0.34130982629E+02  0.51100000000E-03 0.  1.
        -12    1    4    4    0    0 -0.45160007384E+00 -0.99621398990E+00  0.11058577922E+02  0.11112539340E+02  0.00000000000E+00 0.  1.
</event>
<event>
 8    1  0.2512298E-006  0.9118800E+02  0.7816164E-02  0.1184000E+00
        -11   -1    0    0    0    0  0.00000000000E+00  0.00000000000E+00  0.45593999997E+02  0.45594000000E+02  0.51100000000E-03 0. -1.
         11   -1    0    0    0    0 -0.00000000000E+00 -0.00000000000E+00 -0.45593999997E+02  0.45594000000E+02  0.51100000000E-03 0.  1.
         23    2    1    2    0    0  0.00000000000E+00 -0.88817841970E-15  0.00000000000E+00  0.91188000000E+02  0.91188000000E+02 0.  0.
    9900012    2    3    3    0    0  0.30804113469E+02 -0.65078852988E+01 -0.19092856743E+02  0.54367039172E+02  0.39999897401E+02 0.  0.
         12    1    3    3    0    0 -0.30804113469E+02  0.65078852988E+01  0.19092856743E+02  0.36820960828E+02  0.00000000000E+00 0. -1.
         11    1    4    4    0    0 -0.27925366604E+01  0.34975891718E+01 -0.36411300885E+01  0.57696810654E+01  0.51100000000E-03 0. -1.
        -11    1    4    4    0    0  0.19400593941E+02 -0.23579137683E+01 -0.23508980387E+02  0.30571473005E+02  0.51100000000E-03 0.  1.
        -12    1    4    4    0    0  0.14196056188E+02 -0.76475607023E+01  0.80572537324E+01  0.18025885102E+02  0.00000000000E+00 0.  1.
</event>
<event>
 8    1  0.2512298E-006  0.9118800E+02  0.7816164E-02  0.1184000E+00
        -11   -1    0    0    0    0  0.00000000000E+00  0.00000000000E+00  0.45593999997E+02  0.45594000000E+02  0.51100000000E-03 0.  1.
         11   -1    0    0    0    0 -0.00000000000E+00 -0.00000000000E+00 -0.45593999997E+02  0.45594000000E+02  0.51100000000E-03 0. -1.
         23    2    1    2    0    0 -0.17694179455E-15  0.00000000000E+00 -0.35527136788E-14  0.91188000000E+02  0.91188000000E+02 0.  0.
    9900012    2    3    3    0    0  0.92994715584E-02 -0.28603001227E+02 -0.23187291078E+02  0.54367051707E+02  0.39999925976E+02 0.  0.
        -12    1    3    3    0    0 -0.92994715584E-02  0.28603001227E+02  0.23187291078E+02  0.36820948293E+02  0.00000000000E+00 0.  1.
         11    1    4    4    0    0  0.13368526721E+01 -0.53530884469E+01 -0.17572384398E+02  0.18418236199E+02  0.51100000000E-03 0. -1.
        -11    1    4    4    0    0 -0.32253342483E+01  0.21545708311E+01  0.66317358631E+01  0.76827649514E+01  0.51100000000E-03 0.  1.
        -12    1    4    4    0    0  0.18977810477E+01 -0.25404483612E+02 -0.12246642543E+02  0.28266050556E+02  0.00000000000E+00 0.  1.
</event>
<event>
 8    1  0.2512298E-006  0.9118800E+02  0.7816164E-02  0.1184000E+00
        -11   -1    0    0    0    0  0.00000000000E+00  0.00000000000E+00  0.45593999997E+02  0.45594000000E+02  0.51100000000E-03 0. -1.
         11   -1    0    0    0    0 -0.00000000000E+00 -0.00000000000E+00 -0.45593999997E+02  0.45594000000E+02  0.51100000000E-03 0.  1.
         23    2    1    2    0    0  0.35527136788E-14  0.00000000000E+00  0.00000000000E+00  0.91188000000E+02  0.91188000000E+02 0.  0.
    9900012    2    3    3    0    0 -0.28811963711E+02  0.73790712597E+01  0.21707137453E+02  0.54367085265E+02  0.40000002479E+02 0.  0.
        -12    1    3    3    0    0  0.28811963711E+02 -0.73790712597E+01 -0.21707137453E+02  0.36820914735E+02  0.00000000000E+00 0.  1.
         11    1    4    4    0    0 -0.14564585142E+02 -0.68138911202E+01  0.36498846916E+01  0.16488720723E+02  0.51100000000E-03 0. -1.
        -11    1    4    4    0    0  0.15391511903E+01  0.12287839223E+01 -0.60019591073E+01  0.63168354182E+01  0.51100000000E-03 0.  1.
        -12    1    4    4    0    0 -0.15786529759E+02  0.12964178458E+02  0.24059211869E+02  0.31561529124E+02  0.00000000000E+00 0.  1.
</event>
<event>
 8    1  0.2512298E-006  0.9118800E+02  0.7816164E-02  0.1184000E+00
        -11   -1    0    0    0    0  0.00000000000E+00  0.00000000000E+00  0.45593999997E+02  0.45594000000E+02  0.51100000000E-03 0. -1.
         11   -1    0    0    0    0 -0.00000000000E+00 -0.00000000000E+00 -0.45593999997E+02  0.45594000000E+02  0.51100000000E-03 0.  1.
         23    2    1    2    0    0  0.00000000000E+00  0.00000000000E+00  0.35527136788E-14  0.91188000000E+02  0.91188000000E+02 0.  0.
    9900012    2    3    3    0    0  0.79431049202E+01 -0.25507297506E+02  0.25339058517E+02  0.54367040909E+02  0.39999901361E+02 0.  0.
        -12    1    3    3    0    0 -0.79431049202E+01  0.25507297506E+02 -0.25339058517E+02  0.36820959091E+02  0.00000000000E+00 0.  1.
         11    1    4    4    0    0  0.12009659819E+02 -0.32456461770E+02  0.25765969642E+02  0.43145556335E+02  0.51100000000E-03 0. -1.
        -11    1    4    4    0    0 -0.10452011601E+01  0.29654948716E+01 -0.39914105029E+01  0.50811379987E+01  0.51100000000E-03 0.  1.
         12    1    4    4    0    0 -0.30213537385E+01  0.39836693931E+01  0.35644993787E+01  0.61403465755E+01  0.00000000000E+00 0. -1.
</event>
<event>
 8    1  0.2512298E-006  0.9118800E+02  0.7816164E-02  0.1184000E+00
        -11   -1    0    0    0    0  0.00000000000E+00  0.00000000000E+00  0.45593999997E+02  0.45594000000E+02  0.51100000000E-03 0.  1.
         11   -1    0    0    0    0 -0.00000000000E+00 -0.00000000000E+00 -0.45593999997E+02  0.45594000000E+02  0.51100000000E-03 0. -1.
         23    2    1    2    0    0  0.35527136788E-14  0.35527136788E-14  0.17763568394E-14  0.91188000000E+02  0.91188000000E+02 0.  0.
    9900012    2    3    3    0    0 -0.12010892257E+02 -0.31883061832E+02 -0.13963843669E+02  0.54367080748E+02  0.39999992180E+02 0.  0.
        -12    1    3    3    0    0  0.12010892257E+02  0.31883061832E+02  0.13963843669E+02  0.36820919252E+02  0.00000000000E+00 0.  1.
         11    1    4    4    0    0  0.11050296163E+01 -0.20010243244E+02 -0.14434282740E+02  0.24697761915E+02  0.51100000000E-03 0. -1.
        -11    1    4    4    0    0  0.58426636706E+01  0.19971533682E+01  0.16829253464E+00  0.61768651420E+01  0.51100000000E-03 0.  1.
        -12    1    4    4    0    0 -0.18958585543E+02 -0.13869971956E+02  0.30214653618E+00  0.23492453691E+02  0.00000000000E+00 0.  1.
</event>
<event>
 8    1  0.2512298E-006  0.9118800E+02  0.7816164E-02  0.1184000E+00
        -11   -1    0    0    0    0  0.00000000000E+00  0.00000000000E+00  0.45593999997E+02  0.45594000000E+02  0.51100000000E-03 0.  1.
         11   -1    0    0    0    0 -0.00000000000E+00 -0.00000000000E+00 -0.45593999997E+02  0.45594000000E+02  0.51100000000E-03 0. -1.
         23    2    1    2    0    0  0.00000000000E+00  0.00000000000E+00  0.00000000000E+00  0.91188000000E+02  0.91188000000E+02 0.  0.
    9900012    2    3    3    0    0  0.36786804223E+01  0.29765818676E+02  0.21359871971E+02  0.54367071417E+02  0.39999970908E+02 0.  0.
         12    1    3    3    0    0 -0.36786804223E+01 -0.29765818676E+02 -0.21359871971E+02  0.36820928583E+02  0.00000000000E+00 0. -1.
         11    1    4    4    0    0 -0.41972673334E+01  0.10020632433E+02 -0.30042203627E+01  0.11271888381E+02  0.51100000000E-03 0. -1.
        -11    1    4    4    0    0 -0.57426175226E+01  0.17180393969E+02  0.41451268644E+01  0.18582940293E+02  0.51100000000E-03 0.  1.
         12    1    4    4    0    0  0.13618565278E+02  0.25647922751E+01  0.20218965469E+02  0.24512242743E+02  0.00000000000E+00 0. -1.
</event>
<event>
 8    1  0.2512298E-006  0.9118800E+02  0.7816164E-02  0.1184000E+00
        -11   -1    0    0    0    0  0.00000000000E+00  0.00000000000E+00  0.45593999997E+02  0.45594000000E+02  0.51100000000E-03 0. -1.
         11   -1    0    0    0    0 -0.00000000000E+00 -0.00000000000E+00 -0.45593999997E+02  0.45594000000E+02  0.51100000000E-03 0.  1.
         23    2    1    2    0    0 -0.35527136788E-14  0.00000000000E+00 -0.17763568394E-14  0.91188000000E+02  0.91188000000E+02 0.  0.
    9900012    2    3    3    0    0 -0.31217736772E+02  0.16773787333E+02 -0.99936421050E+01  0.54367083211E+02  0.39999997797E+02 0.  0.
         12    1    3    3    0    0  0.31217736772E+02 -0.16773787333E+02  0.99936421050E+01  0.36820916789E+02  0.00000000000E+00 0. -1.
         11    1    4    4    0    0 -0.12491972848E+02  0.49674217727E+01  0.76397550574E+01  0.15462552257E+02  0.51100000000E-03 0. -1.
        -11    1    4    4    0    0 -0.12104305246E+01  0.14716564954E+02 -0.13755469054E+01  0.14830190681E+02  0.51100000000E-03 0.  1.
         12    1    4    4    0    0 -0.17515333399E+02 -0.29101993936E+01 -0.16257850257E+02  0.24074340273E+02  0.00000000000E+00 0. -1.
</event>
<event>
 8    1  0.2512298E-006  0.9118800E+02  0.7816164E-02  0.1184000E+00
        -11   -1    0    0    0    0  0.00000000000E+00  0.00000000000E+00  0.45593999997E+02  0.45594000000E+02  0.51100000000E-03 0.  1.
         11   -1    0    0    0    0 -0.00000000000E+00 -0.00000000000E+00 -0.45593999997E+02  0.45594000000E+02  0.51100000000E-03 0. -1.
         23    2    1    2    0    0  0.17763568394E-14  0.00000000000E+00  0.00000000000E+00  0.91188000000E+02  0.91188000000E+02 0.  0.
    9900012    2    3    3    0    0  0.11410179925E+02  0.33302771691E+02  0.10794104217E+02  0.54367088902E+02  0.40000010769E+02 0.  0.
         12    1    3    3    0    0 -0.11410179925E+02 -0.33302771691E+02 -0.10794104217E+02  0.36820911098E+02  0.00000000000E+00 0. -1.
         11    1    4    4    0    0 -0.15057826338E+01  0.28011418043E+01 -0.12366229355E+02  0.12768610162E+02  0.51100000000E-03 0. -1.
        -11    1    4    4    0    0  0.33683524115E+01  0.11314794920E+02  0.30126829378E+01  0.12183868056E+02  0.51100000000E-03 0.  1.
         12    1    4    4    0    0  0.95476101475E+01  0.19186834967E+02  0.20147650635E+02  0.29414610684E+02  0.00000000000E+00 0. -1.
</event>
<event>
 8    1  0.2512298E-006  0.9118800E+02  0.7816164E-02  0.1184000E+00
        -11   -1    0    0    0    0  0.00000000000E+00  0.00000000000E+00  0.45593999997E+02  0.45594000000E+02  0.51100000000E-03 0. -1.
         11   -1    0    0    0    0 -0.00000000000E+00 -0.00000000000E+00 -0.45593999997E+02  0.45594000000E+02  0.51100000000E-03 0.  1.
         23    2    1    2    0    0  0.00000000000E+00  0.17763568394E-14  0.00000000000E+00  0.91188000000E+02  0.91188000000E+02 0.  0.
    9900012    2    3    3    0    0 -0.53558304948E+01 -0.10705420621E+02 -0.34820816920E+02  0.54367078747E+02  0.39999987620E+02 0.  0.
         12    1    3    3    0    0  0.53558304948E+01  0.10705420621E+02  0.34820816920E+02  0.36820921253E+02  0.00000000000E+00 0. -1.
         11    1    4    4    0    0 -0.68778646025E+01  0.64627751245E+01 -0.14081665694E+02  0.16951866941E+02  0.51100000000E-03 0. -1.
        -11    1    4    4    0    0  0.99173291426E+01 -0.91136785655E+01 -0.21913463012E+02  0.25721827613E+02  0.51100000000E-03 0.  1.
         12    1    4    4    0    0 -0.83952950348E+01 -0.80545171797E+01  0.11743117867E+01  0.11693384193E+02  0.00000000000E+00 0. -1.
</event>
<event>
 8    1  0.2512298E-006  0.9118800E+02  0.7816164E-02  0.1184000E+00
        -11   -1    0    0    0    0  0.00000000000E+00  0.00000000000E+00  0.45593999997E+02  0.45594000000E+02  0.51100000000E-03 0. -1.
         11   -1    0    0    0    0 -0.00000000000E+00 -0.00000000000E+00 -0.45593999997E+02  0.45594000000E+02  0.51100000000E-03 0.  1.
         23    2    1    2    0    0 -0.17763568394E-14  0.00000000000E+00  0.00000000000E+00  0.91188000000E+02  0.91188000000E+02 0.  0.
    9900012    2    3    3    0    0  0.10484550936E+02  0.10019579733E+02  0.33844683950E+02  0.54367076356E+02  0.39999982168E+02 0.  0.
        -12    1    3    3    0    0 -0.10484550936E+02 -0.10019579733E+02 -0.33844683950E+02  0.36820923644E+02  0.00000000000E+00 0.  1.
         11    1    4    4    0    0 -0.38073600637E+00  0.44351229268E+01  0.53902679379E+01  0.69907269998E+01  0.51100000000E-03 0.  1.
        -11    1    4    4    0    0  0.19526594365E+02  0.13184413347E+02  0.26883448742E+02  0.35746838452E+02  0.51100000000E-03 0. -1.
         12    1    4    4    0    0 -0.86613074229E+01 -0.75999565409E+01  0.15709672705E+01  0.11629510904E+02  0.00000000000E+00 0. -1.
</event>
<event>
 8    1  0.2512298E-006  0.9118800E+02  0.7816164E-02  0.1184000E+00
        -11   -1    0    0    0    0  0.00000000000E+00  0.00000000000E+00  0.45593999997E+02  0.45594000000E+02  0.51100000000E-03 0. -1.
         11   -1    0    0    0    0 -0.00000000000E+00 -0.00000000000E+00 -0.45593999997E+02  0.45594000000E+02  0.51100000000E-03 0.  1.
         23    2    1    2    0    0  0.88817841970E-15 -0.44408920985E-15  0.71054273576E-14  0.91188000000E+02  0.91188000000E+02 0.  0.
    9900012    2    3    3    0    0 -0.58806281973E+01  0.27809348257E+01  0.36241739043E+02  0.54367095131E+02  0.40000024970E+02 0.  0.
        -12    1    3    3    0    0  0.58806281973E+01 -0.27809348257E+01 -0.36241739043E+02  0.36820904869E+02  0.00000000000E+00 0.  1.
         11    1    4    4    0    0 -0.13114317081E+02 -0.49685441854E+01  0.44204676124E+01  0.14704158528E+02  0.51100000000E-03 0.  1.
        -11    1    4    4    0    0 -0.51591925676E+01 -0.38445503758E+01  0.11591428861E+02  0.13257415240E+02  0.51100000000E-03 0. -1.
        -12    1    4    4    0    0  0.12392881452E+02  0.11594029387E+02  0.20229842569E+02  0.26405521363E+02  0.00000000000E+00 0.  1.
</event>
<event>
 8    1  0.2512298E-006  0.9118800E+02  0.7816164E-02  0.1184000E+00
        -11   -1    0    0    0    0  0.00000000000E+00  0.00000000000E+00  0.45593999997E+02  0.45594000000E+02  0.51100000000E-03 0.  1.
         11   -1    0    0    0    0 -0.00000000000E+00 -0.00000000000E+00 -0.45593999997E+02  0.45594000000E+02  0.51100000000E-03 0. -1.
         23    2    1    2    0    0  0.88817841970E-15  0.00000000000E+00  0.00000000000E+00  0.91188000000E+02  0.91188000000E+02 0.  0.
    9900012    2    3    3    0    0  0.20717920376E+01  0.17079280355E+02 -0.32554421677E+02  0.54367020784E+02  0.39999855482E+02 0.  0.
        -12    1    3    3    0    0 -0.20717920376E+01 -0.17079280355E+02  0.32554421677E+02  0.36820979216E+02  0.00000000000E+00 0.  1.
         11    1    4    4    0    0  0.18035657706E+01  0.76565699289E+01 -0.10283984439E+02  0.12947441785E+02  0.51100000000E-03 0. -1.
        -11    1    4    4    0    0 -0.11967372852E+02  0.16246595630E+02 -0.89017182115E+01  0.22054715367E+02  0.51100000000E-03 0.  1.
         12    1    4    4    0    0  0.12235599119E+02 -0.68238852047E+01 -0.13368719027E+02  0.19364863632E+02  0.00000000000E+00 0. -1.
</event>
<event>
 8    1  0.2512298E-006  0.9118800E+02  0.7816164E-02  0.1184000E+00
        -11   -1    0    0    0    0  0.00000000000E+00  0.00000000000E+00  0.45593999997E+02  0.45594000000E+02  0.51100000000E-03 0.  1.
         11   -1    0    0    0    0 -0.00000000000E+00 -0.00000000000E+00 -0.45593999997E+02  0.45594000000E+02  0.51100000000E-03 0. -1.
         23    2    1    2    0    0  0.00000000000E+00  0.00000000000E+00 -0.17763568394E-14  0.91188000000E+02  0.91188000000E+02 0.  0.
    9900012    2    3    3    0    0  0.32320218126E+02  0.14247405349E+02  0.10401721546E+02  0.54367070218E+02  0.39999968176E+02 0.  0.
        -12    1    3    3    0    0 -0.32320218126E+02 -0.14247405349E+02 -0.10401721546E+02  0.36820929782E+02  0.00000000000E+00 0.  1.
         11    1    4    4    0    0  0.15339456725E+02 -0.31952485123E+01  0.14443884611E+02  0.21310428165E+02  0.51100000000E-03 0.  1.
        -11    1    4    4    0    0  0.20373503475E+02  0.95842487154E+01  0.19629915001E+01  0.22600681476E+02  0.51100000000E-03 0. -1.
        -12    1    4    4    0    0 -0.33927420741E+01  0.78584051464E+01 -0.60051545656E+01  0.10455960577E+02  0.00000000000E+00 0.  1.
</event>
<event>
 8    1  0.2512298E-006  0.9118800E+02  0.7816164E-02  0.1184000E+00
        -11   -1    0    0    0    0  0.00000000000E+00  0.00000000000E+00  0.45593999997E+02  0.45594000000E+02  0.51100000000E-03 0. -1.
         11   -1    0    0    0    0 -0.00000000000E+00 -0.00000000000E+00 -0.45593999997E+02  0.45594000000E+02  0.51100000000E-03 0.  1.
         23    2    1    2    0    0  0.35527136788E-14 -0.88817841970E-15  0.35527136788E-14  0.91188000000E+02  0.91188000000E+02 0.  0.
    9900012    2    3    3    0    0  0.18870795463E+02  0.52526908136E+01 -0.31178215320E+02  0.54367098426E+02  0.40000032482E+02 0.  0.
         12    1    3    3    0    0 -0.18870795463E+02 -0.52526908136E+01  0.31178215320E+02  0.36820901574E+02  0.00000000000E+00 0. -1.
         11    1    4    4    0    0 -0.26509075724E+01 -0.15670970908E+01  0.43418646029E+01  0.53230529530E+01  0.51100000000E-03 0. -1.
        -11    1    4    4    0    0  0.52999478472E+01  0.12779010386E+02 -0.65401932971E+01  0.15302505751E+02  0.51100000000E-03 0.  1.
         12    1    4    4    0    0  0.16221755188E+02 -0.59592224818E+01 -0.28979886626E+02  0.33741539722E+02  0.00000000000E+00 0. -1.
</event>
<event>
 8    1  0.2512298E-006  0.9118800E+02  0.7816164E-02  0.1184000E+00
        -11   -1    0    0    0    0  0.00000000000E+00  0.00000000000E+00  0.45593999997E+02  0.45594000000E+02  0.51100000000E-03 0.  1.
         11   -1    0    0    0    0 -0.00000000000E+00 -0.00000000000E+00 -0.45593999997E+02  0.45594000000E+02  0.51100000000E-03 0. -1.
         23    2    1    2    0    0 -0.88817841970E-15  0.35527136788E-14  0.00000000000E+00  0.91188000000E+02  0.91188000000E+02 0.  0.
    9900012    2    3    3    0    0 -0.60251976113E+01  0.29936641525E+02 -0.20573627199E+02  0.54367086810E+02  0.40000006000E+02 0.  0.
        -12    1    3    3    0    0  0.60251976113E+01 -0.29936641525E+02  0.20573627199E+02  0.36820913190E+02  0.00000000000E+00 0.  1.
         11    1    4    4    0    0 -0.13339910193E+02  0.26763165981E+02 -0.25041116552E+02  0.39003561065E+02  0.51100000000E-03 0. -1.
        -11    1    4    4    0    0  0.11293395764E+01 -0.11390698879E+01  0.71747762597E+01  0.73518910986E+01  0.51100000000E-03 0.  1.
         12    1    4    4    0    0  0.61853730052E+01  0.43125454317E+01 -0.27072869062E+01  0.80116346463E+01  0.00000000000E+00 0. -1.
</event>
<event>
 8    1  0.2512298E-006  0.9118800E+02  0.7816164E-02  0.1184000E+00
        -11   -1    0    0    0    0  0.00000000000E+00  0.00000000000E+00  0.45593999997E+02  0.45594000000E+02  0.51100000000E-03 0.  1.
         11   -1    0    0    0    0 -0.00000000000E+00 -0.00000000000E+00 -0.45593999997E+02  0.45594000000E+02  0.51100000000E-03 0. -1.
         23    2    1    2    0    0  0.16653345369E-15  0.00000000000E+00  0.00000000000E+00  0.91188000000E+02  0.91188000000E+02 0.  0.
    9900012    2    3    3    0    0 -0.19284397072E+00 -0.83760261020E+01 -0.35855046290E+02  0.54367090906E+02  0.40000015339E+02 0.  0.
        -12    1    3    3    0    0  0.19284397072E+00  0.83760261020E+01  0.35855046290E+02  0.36820909094E+02  0.00000000000E+00 0.  1.
         11    1    4    4    0    0 -0.20982886721E+01 -0.17184584592E+02 -0.53224383509E+01  0.18111905290E+02  0.51100000000E-03 0. -1.
        -11    1    4    4    0    0 -0.18499018178E+01  0.16995808608E+01  0.17011270369E+01  0.30338993547E+01  0.51100000000E-03 0.  1.
         12    1    4    4    0    0  0.37553465192E+01  0.71089776297E+01 -0.32233734976E+02  0.33221286262E+02  0.00000000000E+00 0. -1.
</event>
<event>
 8    1  0.2512298E-006  0.9118800E+02  0.7816164E-02  0.1184000E+00
        -11   -1    0    0    0    0  0.00000000000E+00  0.00000000000E+00  0.45593999997E+02  0.45594000000E+02  0.51100000000E-03 0.  1.
         11   -1    0    0    0    0 -0.00000000000E+00 -0.00000000000E+00 -0.45593999997E+02  0.45594000000E+02  0.51100000000E-03 0. -1.
         23    2    1    2    0    0  0.00000000000E+00  0.38857805862E-15  0.00000000000E+00  0.91188000000E+02  0.91188000000E+02 0.  0.
    9900012    2    3    3    0    0  0.36709677451E+02 -0.17159262590E+00 -0.28547285386E+01  0.54367091026E+02  0.40000015613E+02 0.  0.
        -12    1    3    3    0    0 -0.36709677451E+02  0.17159262590E+00  0.28547285386E+01  0.36820908974E+02  0.00000000000E+00 0.  1.
         11    1    4    4    0    0  0.17001761257E+02 -0.17637679089E+02 -0.37905631420E+01  0.24789432802E+02  0.51100000000E-03 0.  1.
        -11    1    4    4    0    0  0.10167192594E+02  0.17121833358E+02 -0.52303852080E+00  0.19919903422E+02  0.51100000000E-03 0. -1.
         12    1    4    4    0    0  0.95407236010E+01  0.34425310508E+00  0.14588731241E+01  0.96577548024E+01  0.00000000000E+00 0. -1.
</event>
<event>
 8    1  0.2512298E-006  0.9118800E+02  0.7816164E-02  0.1184000E+00
        -11   -1    0    0    0    0  0.00000000000E+00  0.00000000000E+00  0.45593999997E+02  0.45594000000E+02  0.51100000000E-03 0.  1.
         11   -1    0    0    0    0 -0.00000000000E+00 -0.00000000000E+00 -0.45593999997E+02  0.45594000000E+02  0.51100000000E-03 0. -1.
         23    2    1    2    0    0  0.00000000000E+00  0.00000000000E+00  0.88817841970E-15  0.91188000000E+02  0.91188000000E+02 0.  0.
    9900012    2    3    3    0    0  0.32217657194E+02 -0.17038511023E+02  0.52433004925E+01  0.54367075337E+02  0.39999979846E+02 0.  0.
        -12    1    3    3    0    0 -0.32217657194E+02  0.17038511023E+02 -0.52433004925E+01  0.36820924663E+02  0.00000000000E+00 0.  1.
         11    1    4    4    0    0  0.26569695156E+02 -0.14378487418E+02  0.36532003821E+01  0.30430830984E+02  0.51100000000E-03 0. -1.
        -11    1    4    4    0    0  0.11984593230E+02  0.50004457826E+01 -0.24322032555E+01  0.13211757864E+02  0.51100000000E-03 0.  1.
        -12    1    4    4    0    0 -0.63366311912E+01 -0.76604693876E+01  0.40223033660E+01  0.10724486489E+02  0.00000000000E+00 0.  1.
</event>
<event>
 8    1  0.2512298E-006  0.9118800E+02  0.7816164E-02  0.1184000E+00
        -11   -1    0    0    0    0  0.00000000000E+00  0.00000000000E+00  0.45593999997E+02  0.45594000000E+02  0.51100000000E-03 0.  1.
         11   -1    0    0    0    0 -0.00000000000E+00 -0.00000000000E+00 -0.45593999997E+02  0.45594000000E+02  0.51100000000E-03 0. -1.
         23    2    1    2    0    0  0.35527136788E-14  0.15543122345E-14  0.00000000000E+00  0.91188000000E+02  0.91188000000E+02 0.  0.
    9900012    2    3    3    0    0 -0.23884228679E+02  0.74068053697E+00 -0.28013831935E+02  0.54367085197E+02  0.40000002323E+02 0.  0.
        -12    1    3    3    0    0  0.23884228679E+02 -0.74068053697E+00  0.28013831935E+02  0.36820914803E+02  0.00000000000E+00 0.  1.
         11    1    4    4    0    0 -0.17466212524E+02 -0.31406775565E+01 -0.13133463710E+02  0.22077597350E+02  0.51100000000E-03 0. -1.
        -11    1    4    4    0    0 -0.10489839451E+02 -0.88143631009E+01 -0.12884949784E+02  0.18808286997E+02  0.51100000000E-03 0.  1.
         12    1    4    4    0    0  0.40718232955E+01  0.12695721194E+02 -0.19954184409E+01  0.13481200850E+02  0.00000000000E+00 0. -1.
</event>
<event>
 8    1  0.2512298E-006  0.9118800E+02  0.7816164E-02  0.1184000E+00
        -11   -1    0    0    0    0  0.00000000000E+00  0.00000000000E+00  0.45593999997E+02  0.45594000000E+02  0.51100000000E-03 0. -1.
         11   -1    0    0    0    0 -0.00000000000E+00 -0.00000000000E+00 -0.45593999997E+02  0.45594000000E+02  0.51100000000E-03 0.  1.
         23    2    1    2    0    0  0.00000000000E+00  0.35527136788E-14 -0.35527136788E-14  0.91188000000E+02  0.91188000000E+02 0.  0.
    9900012    2    3    3    0    0  0.10476201003E+02  0.24369777428E+02  0.25537177016E+02  0.54367024330E+02  0.39999863564E+02 0.  0.
        -12    1    3    3    0    0 -0.10476201003E+02 -0.24369777428E+02 -0.25537177016E+02  0.36820975670E+02  0.00000000000E+00 0.  1.
         11    1    4    4    0    0  0.13640542943E+02  0.22645376598E+02  0.25474601874E+02  0.36712842903E+02  0.51100000000E-03 0. -1.
        -11    1    4    4    0    0 -0.95836691052E+01 -0.32545094861E+00  0.33485392760E+01  0.10157034379E+02  0.51100000000E-03 0.  1.
        -12    1    4    4    0    0  0.64193271647E+01  0.20498517787E+01 -0.32859641341E+01  0.74971470476E+01  0.00000000000E+00 0.  1.
</event>
<event>
 8    1  0.2512298E-006  0.9118800E+02  0.7816164E-02  0.1184000E+00
        -11   -1    0    0    0    0  0.00000000000E+00  0.00000000000E+00  0.45593999997E+02  0.45594000000E+02  0.51100000000E-03 0.  1.
         11   -1    0    0    0    0 -0.00000000000E+00 -0.00000000000E+00 -0.45593999997E+02  0.45594000000E+02  0.51100000000E-03 0. -1.
         23    2    1    2    0    0  0.00000000000E+00  0.17763568394E-14  0.00000000000E+00  0.91188000000E+02  0.91188000000E+02 0.  0.
    9900012    2    3    3    0    0  0.33499730440E+02 -0.95599287025E+01  0.11922917063E+02  0.54367080299E+02  0.39999991158E+02 0.  0.
         12    1    3    3    0    0 -0.33499730440E+02  0.95599287025E+01 -0.11922917063E+02  0.36820919701E+02  0.00000000000E+00 0. -1.
         11    1    4    4    0    0 -0.50888646336E+01 -0.20302487198E+01 -0.17043169090E+01  0.57378697711E+01  0.51100000000E-03 0. -1.
        -11    1    4    4    0    0  0.32735054984E+02  0.46531268963E+01  0.82118201140E+01  0.34068598512E+02  0.51100000000E-03 0.  1.
        -12    1    4    4    0    0  0.58535400892E+01 -0.12182806879E+02  0.54154138575E+01  0.14560612016E+02  0.00000000000E+00 0.  1.
</event>
<event>
 8    1  0.2512298E-006  0.9118800E+02  0.7816164E-02  0.1184000E+00
        -11   -1    0    0    0    0  0.00000000000E+00  0.00000000000E+00  0.45593999997E+02  0.45594000000E+02  0.51100000000E-03 0.  1.
         11   -1    0    0    0    0 -0.00000000000E+00 -0.00000000000E+00 -0.45593999997E+02  0.45594000000E+02  0.51100000000E-03 0. -1.
         23    2    1    2    0    0 -0.35527136788E-14  0.35527136788E-14 -0.35527136788E-14  0.91188000000E+02  0.91188000000E+02 0.  0.
    9900012    2    3    3    0    0  0.30508573177E+02 -0.11325092291E+02  0.17226414768E+02  0.54367080423E+02  0.39999991441E+02 0.  0.
         12    1    3    3    0    0 -0.30508573177E+02  0.11325092291E+02 -0.17226414768E+02  0.36820919577E+02  0.00000000000E+00 0. -1.
         11    1    4    4    0    0  0.11039467386E+02 -0.20623572106E+02  0.23748943210E+01  0.23512585776E+02  0.51100000000E-03 0. -1.
        -11    1    4    4    0    0  0.41065496271E+01 -0.37799334996E+01 -0.35112434651E+00  0.55923998130E+01  0.51100000000E-03 0.  1.
        -12    1    4    4    0    0  0.15362556165E+02  0.13078413314E+02  0.15202644793E+02  0.25262094835E+02  0.00000000000E+00 0.  1.
</event>
<event>
 8    1  0.2512298E-006  0.9118800E+02  0.7816164E-02  0.1184000E+00
        -11   -1    0    0    0    0  0.00000000000E+00  0.00000000000E+00  0.45593999997E+02  0.45594000000E+02  0.51100000000E-03 0.  1.
         11   -1    0    0    0    0 -0.00000000000E+00 -0.00000000000E+00 -0.45593999997E+02  0.45594000000E+02  0.51100000000E-03 0. -1.
         23    2    1    2    0    0  0.00000000000E+00  0.00000000000E+00  0.00000000000E+00  0.91188000000E+02  0.91188000000E+02 0.  0.
    9900012    2    3    3    0    0  0.23695422349E+01 -0.16537779951E+02 -0.32812604371E+02  0.54367083367E+02  0.39999998152E+02 0.  0.
        -12    1    3    3    0    0 -0.23695422349E+01  0.16537779951E+02  0.32812604371E+02  0.36820916633E+02  0.00000000000E+00 0.  1.
         11    1    4    4    0    0  0.72338549429E+00 -0.77502939515E+01 -0.32775317413E+02  0.33686967430E+02  0.51100000000E-03 0. -1.
        -11    1    4    4    0    0 -0.17680313995E-01  0.29053569197E+01 -0.65695903525E+01  0.71833786678E+01  0.51100000000E-03 0.  1.
        -12    1    4    4    0    0  0.16638370546E+01 -0.11692842919E+02  0.65323033941E+01  0.13496737269E+02  0.00000000000E+00 0.  1.
</event>
<event>
 8    1  0.2512298E-006  0.9118800E+02  0.7816164E-02  0.1184000E+00
        -11   -1    0    0    0    0  0.00000000000E+00  0.00000000000E+00  0.45593999997E+02  0.45594000000E+02  0.51100000000E-03 0.  1.
         11   -1    0    0    0    0 -0.00000000000E+00 -0.00000000000E+00 -0.45593999997E+02  0.45594000000E+02  0.51100000000E-03 0. -1.
         23    2    1    2    0    0  0.35527136788E-14  0.00000000000E+00  0.00000000000E+00  0.91188000000E+02  0.91188000000E+02 0.  0.
    9900012    2    3    3    0    0 -0.26209607334E+02  0.18712196675E+02  0.17851914766E+02  0.54367072774E+02  0.39999974003E+02 0.  0.
         12    1    3    3    0    0  0.26209607334E+02 -0.18712196675E+02 -0.17851914766E+02  0.36820927226E+02  0.00000000000E+00 0. -1.
         11    1    4    4    0    0 -0.94095327248E+01  0.26051750170E+02  0.40780416291E+01  0.27997560908E+02  0.51100000000E-03 0. -1.
        -11    1    4    4    0    0 -0.16066742326E+01 -0.48298634532E+01 -0.81738722722E+00  0.51552987505E+01  0.51100000000E-03 0.  1.
        -12    1    4    4    0    0 -0.15193400376E+02 -0.25096900421E+01  0.14591260364E+02  0.21214213115E+02  0.00000000000E+00 0.  1.
</event>
<event>
 8    1  0.2512298E-006  0.9118800E+02  0.7816164E-02  0.1184000E+00
        -11   -1    0    0    0    0  0.00000000000E+00  0.00000000000E+00  0.45593999997E+02  0.45594000000E+02  0.51100000000E-03 0.  1.
         11   -1    0    0    0    0 -0.00000000000E+00 -0.00000000000E+00 -0.45593999997E+02  0.45594000000E+02  0.51100000000E-03 0. -1.
         23    2    1    2    0    0 -0.17763568394E-14  0.00000000000E+00  0.00000000000E+00  0.91188000000E+02  0.91188000000E+02 0.  0.
    9900012    2    3    3    0    0  0.14659245728E+02 -0.13969009202E+02  0.30753103925E+02  0.54367080614E+02  0.39999991876E+02 0.  0.
         12    1    3    3    0    0 -0.14659245728E+02  0.13969009202E+02 -0.30753103925E+02  0.36820919386E+02  0.00000000000E+00 0. -1.
         11    1    4    4    0    0  0.50819901217E+01 -0.98910117347E+01 -0.34128170301E+01  0.11632113182E+02  0.51100000000E-03 0. -1.
        -11    1    4    4    0    0  0.81264850485E+01 -0.13455649747E+02  0.25068895078E+02  0.29589588879E+02  0.51100000000E-03 0.  1.
         12    1    4    4    0    0  0.14507705574E+01  0.93776522795E+01  0.90970258777E+01  0.13145378553E+02  0.00000000000E+00 0. -1.
</event>
<event>
 8    1  0.2512298E-006  0.9118800E+02  0.7816164E-02  0.1184000E+00
        -11   -1    0    0    0    0  0.00000000000E+00  0.00000000000E+00  0.45593999997E+02  0.45594000000E+02  0.51100000000E-03 0. -1.
         11   -1    0    0    0    0 -0.00000000000E+00 -0.00000000000E+00 -0.45593999997E+02  0.45594000000E+02  0.51100000000E-03 0.  1.
         23    2    1    2    0    0  0.17763568394E-14 -0.17763568394E-14  0.00000000000E+00  0.91188000000E+02  0.91188000000E+02 0.  0.
    9900012    2    3    3    0    0 -0.13374688703E+02  0.12105467811E+02  0.32099156226E+02  0.54367075524E+02  0.39999980272E+02 0.  0.
        -12    1    3    3    0    0  0.13374688703E+02 -0.12105467811E+02 -0.32099156226E+02  0.36820924476E+02  0.00000000000E+00 0.  1.
         11    1    4    4    0    0  0.57550517314E+01  0.61796964220E+01  0.14591723160E+02  0.16859052563E+02  0.51100000000E-03 0. -1.
        -11    1    4    4    0    0 -0.35267190847E+01  0.57196024183E+01  0.20540449260E+02  0.21611609273E+02  0.51100000000E-03 0.  1.
        -12    1    4    4    0    0 -0.15603021350E+02  0.20616897089E+00 -0.30330161932E+01  0.15896413687E+02  0.00000000000E+00 0.  1.
</event>
<event>
 8    1  0.2512298E-006  0.9118800E+02  0.7816164E-02  0.1184000E+00
        -11   -1    0    0    0    0  0.00000000000E+00  0.00000000000E+00  0.45593999997E+02  0.45594000000E+02  0.51100000000E-03 0. -1.
         11   -1    0    0    0    0 -0.00000000000E+00 -0.00000000000E+00 -0.45593999997E+02  0.45594000000E+02  0.51100000000E-03 0.  1.
         23    2    1    2    0    0  0.35527136788E-14  0.00000000000E+00  0.44408920985E-15  0.91188000000E+02  0.91188000000E+02 0.  0.
    9900012    2    3    3    0    0  0.22631516813E+02 -0.28997770960E+02  0.16499294961E+01  0.54367101841E+02  0.40000040266E+02 0.  0.
         12    1    3    3    0    0 -0.22631516813E+02  0.28997770960E+02 -0.16499294961E+01  0.36820898159E+02  0.00000000000E+00 0. -1.
         11    1    4    4    0    0  0.23643742673E+02 -0.89563639369E+01  0.45394636110E+01  0.25687540806E+02  0.51100000000E-03 0. -1.
        -11    1    4    4    0    0  0.66288949219E+01 -0.49036107641E+01 -0.74579618896E+01  0.11117951350E+02  0.51100000000E-03 0.  1.
        -12    1    4    4    0    0 -0.76411207814E+01 -0.15137796259E+02  0.45684277747E+01  0.17561609684E+02  0.00000000000E+00 0.  1.
</event>
<event>
 8    1  0.2512298E-006  0.9118800E+02  0.7816164E-02  0.1184000E+00
        -11   -1    0    0    0    0  0.00000000000E+00  0.00000000000E+00  0.45593999997E+02  0.45594000000E+02  0.51100000000E-03 0.  1.
         11   -1    0    0    0    0 -0.00000000000E+00 -0.00000000000E+00 -0.45593999997E+02  0.45594000000E+02  0.51100000000E-03 0. -1.
         23    2    1    2    0    0  0.00000000000E+00  0.00000000000E+00  0.00000000000E+00  0.91188000000E+02  0.91188000000E+02 0.  0.
    9900012    2    3    3    0    0 -0.14374074461E+02  0.22392938049E+02 -0.25450395688E+02  0.54367077527E+02  0.39999984839E+02 0.  0.
         12    1    3    3    0    0  0.14374074461E+02 -0.22392938049E+02  0.25450395688E+02  0.36820922473E+02  0.00000000000E+00 0. -1.
         11    1    4    4    0    0 -0.16342404148E+02  0.31621161672E+02 -0.13262102975E+02  0.37984936678E+02  0.51100000000E-03 0. -1.
        -11    1    4    4    0    0  0.27053544967E+01 -0.18431993737E+01 -0.54514649358E+01  0.63588361428E+01  0.51100000000E-03 0.  1.
         12    1    4    4    0    0 -0.73702480977E+00 -0.73850242497E+01 -0.67368277768E+01  0.10023304706E+02  0.00000000000E+00 0. -1.
</event>
<event>
 8    1  0.2512298E-006  0.9118800E+02  0.7816164E-02  0.1184000E+00
        -11   -1    0    0    0    0  0.00000000000E+00  0.00000000000E+00  0.45593999997E+02  0.45594000000E+02  0.51100000000E-03 0.  1.
         11   -1    0    0    0    0 -0.00000000000E+00 -0.00000000000E+00 -0.45593999997E+02  0.45594000000E+02  0.51100000000E-03 0. -1.
         23    2    1    2    0    0  0.00000000000E+00  0.00000000000E+00 -0.44408920985E-14  0.91188000000E+02  0.91188000000E+02 0.  0.
    9900012    2    3    3    0    0 -0.31203360296E+02  0.18868620898E+02 -0.51089620570E+01  0.54367135784E+02  0.40000117646E+02 0.  0.
        -12    1    3    3    0    0  0.31203360296E+02 -0.18868620898E+02  0.51089620570E+01  0.36820864216E+02  0.00000000000E+00 0.  1.
         11    1    4    4    0    0 -0.16096386472E+02  0.15603969218E+02 -0.66270809033E+01  0.23377247793E+02  0.51100000000E-03 0. -1.
        -11    1    4    4    0    0 -0.12018410128E+02  0.74452847094E+01  0.12480066095E+02  0.18858061841E+02  0.51100000000E-03 0.  1.
        -12    1    4    4    0    0 -0.30885636954E+01 -0.41806330299E+01 -0.10961947249E+02  0.12131826149E+02  0.00000000000E+00 0.  1.
</event>
<event>
 8    1  0.2512298E-006  0.9118800E+02  0.7816164E-02  0.1184000E+00
        -11   -1    0    0    0    0  0.00000000000E+00  0.00000000000E+00  0.45593999997E+02  0.45594000000E+02  0.51100000000E-03 0. -1.
         11   -1    0    0    0    0 -0.00000000000E+00 -0.00000000000E+00 -0.45593999997E+02  0.45594000000E+02  0.51100000000E-03 0.  1.
         23    2    1    2    0    0  0.00000000000E+00  0.00000000000E+00  0.00000000000E+00  0.91188000000E+02  0.91188000000E+02 0.  0.
    9900012    2    3    3    0    0  0.15843081683E+02  0.21942963057E+02 -0.24965658948E+02  0.54367068567E+02  0.39999964412E+02 0.  0.
         12    1    3    3    0    0 -0.15843081683E+02 -0.21942963057E+02  0.24965658948E+02  0.36820931433E+02  0.00000000000E+00 0. -1.
         11    1    4    4    0    0  0.15286307388E+02  0.92072707192E+01  0.22771530212E+01  0.17989731899E+02  0.51100000000E-03 0. -1.
        -11    1    4    4    0    0  0.65427963755E+01  0.14751527365E+01 -0.21256380070E+02  0.22289413495E+02  0.51100000000E-03 0.  1.
         12    1    4    4    0    0 -0.59860220805E+01  0.11260539601E+02 -0.59864318987E+01  0.14087923173E+02  0.00000000000E+00 0. -1.
</event>
<event>
 8    1  0.2512298E-006  0.9118800E+02  0.7816164E-02  0.1184000E+00
        -11   -1    0    0    0    0  0.00000000000E+00  0.00000000000E+00  0.45593999997E+02  0.45594000000E+02  0.51100000000E-03 0.  1.
         11   -1    0    0    0    0 -0.00000000000E+00 -0.00000000000E+00 -0.45593999997E+02  0.45594000000E+02  0.51100000000E-03 0. -1.
         23    2    1    2    0    0  0.88817841970E-15 -0.11102230246E-14  0.71054273576E-14  0.91188000000E+02  0.91188000000E+02 0.  0.
    9900012    2    3    3    0    0 -0.34413568224E+01  0.14968902479E+01  0.36629170210E+02  0.54367085733E+02  0.40000003546E+02 0.  0.
         12    1    3    3    0    0  0.34413568224E+01 -0.14968902479E+01 -0.36629170210E+02  0.36820914267E+02  0.00000000000E+00 0. -1.
         11    1    4    4    0    0  0.58669165392E+01 -0.15755391538E+01 -0.16736643565E+01  0.63011257678E+01  0.51100000000E-03 0.  1.
        -11    1    4    4    0    0 -0.99634476360E+01 -0.69055567356E+01  0.46915280755E+01  0.12998747577E+02  0.51100000000E-03 0. -1.
        -12    1    4    4    0    0  0.65517427443E+00  0.99779861373E+01  0.33611306491E+02  0.35067212388E+02  0.00000000000E+00 0.  1.
</event>
<event>
 8    1  0.2512298E-006  0.9118800E+02  0.7816164E-02  0.1184000E+00
        -11   -1    0    0    0    0  0.00000000000E+00  0.00000000000E+00  0.45593999997E+02  0.45594000000E+02  0.51100000000E-03 0.  1.
         11   -1    0    0    0    0 -0.00000000000E+00 -0.00000000000E+00 -0.45593999997E+02  0.45594000000E+02  0.51100000000E-03 0. -1.
         23    2    1    2    0    0  0.35527136788E-14  0.00000000000E+00  0.00000000000E+00  0.91188000000E+02  0.91188000000E+02 0.  0.
    9900012    2    3    3    0    0  0.28698160814E+02  0.17437966811E+02 -0.15103968397E+02  0.54366851431E+02  0.39999469404E+02 0.  0.
         12    1    3    3    0    0 -0.28698160814E+02 -0.17437966811E+02  0.15103968397E+02  0.36821148569E+02  0.00000000000E+00 0. -1.
         11    1    4    4    0    0  0.65563387324E+01  0.12968125426E+02 -0.73260211098E+01  0.16273550326E+02  0.51100000000E-03 0. -1.
        -11    1    4    4    0    0 -0.32024436367E+01  0.55745185824E+01  0.63668165502E+01  0.90480526036E+01  0.51100000000E-03 0.  1.
        -12    1    4    4    0    0  0.25344265718E+02 -0.11046771979E+01 -0.14144763837E+02  0.29045248502E+02  0.00000000000E+00 0.  1.
</event>
<event>
 8    1  0.2512298E-006  0.9118800E+02  0.7816164E-02  0.1184000E+00
        -11   -1    0    0    0    0  0.00000000000E+00  0.00000000000E+00  0.45593999997E+02  0.45594000000E+02  0.51100000000E-03 0.  1.
         11   -1    0    0    0    0 -0.00000000000E+00 -0.00000000000E+00 -0.45593999997E+02  0.45594000000E+02  0.51100000000E-03 0. -1.
         23    2    1    2    0    0  0.00000000000E+00 -0.35527136788E-14  0.00000000000E+00  0.91188000000E+02  0.91188000000E+02 0.  0.
    9900012    2    3    3    0    0  0.18802602227E+02  0.26971936322E+02  0.16575771728E+02  0.54367090073E+02  0.40000013440E+02 0.  0.
         12    1    3    3    0    0 -0.18802602227E+02 -0.26971936322E+02 -0.16575771728E+02  0.36820909927E+02  0.00000000000E+00 0. -1.
         11    1    4    4    0    0  0.18322201812E+02  0.78193884306E+01 -0.40967049304E+00  0.19925203759E+02  0.51100000000E-03 0. -1.
        -11    1    4    4    0    0  0.39395007042E+01  0.22922635647E+02  0.89613913904E+01  0.24925357103E+02  0.51100000000E-03 0.  1.
        -12    1    4    4    0    0 -0.34591002898E+01 -0.37700877551E+01  0.80240508305E+01  0.95165292112E+01  0.00000000000E+00 0.  1.
</event>
<event>
 8    1  0.2512298E-006  0.9118800E+02  0.7816164E-02  0.1184000E+00
        -11   -1    0    0    0    0  0.00000000000E+00  0.00000000000E+00  0.45593999997E+02  0.45594000000E+02  0.51100000000E-03 0.  1.
         11   -1    0    0    0    0 -0.00000000000E+00 -0.00000000000E+00 -0.45593999997E+02  0.45594000000E+02  0.51100000000E-03 0. -1.
         23    2    1    2    0    0 -0.17763568394E-14  0.00000000000E+00  0.00000000000E+00  0.91188000000E+02  0.91188000000E+02 0.  0.
    9900012    2    3    3    0    0 -0.56106918277E+01 -0.31898591927E+02  0.17515125007E+02  0.54367087006E+02  0.40000006447E+02 0.  0.
         12    1    3    3    0    0  0.56106918277E+01  0.31898591927E+02 -0.17515125007E+02  0.36820912994E+02  0.00000000000E+00 0. -1.
         11    1    4    4    0    0  0.52388988707E+01 -0.19503032345E+02 -0.59812420589E+01  0.21061566629E+02  0.51100000000E-03 0. -1.
        -11    1    4    4    0    0 -0.75652057586E+01 -0.16596790966E+02  0.17434540149E+02  0.25231904387E+02  0.51100000000E-03 0.  1.
         12    1    4    4    0    0 -0.32843849398E+01  0.42012313842E+01  0.60618269168E+01  0.80736159895E+01  0.00000000000E+00 0. -1.
</event>
<event>
 8    1  0.2512298E-006  0.9118800E+02  0.7816164E-02  0.1184000E+00
        -11   -1    0    0    0    0  0.00000000000E+00  0.00000000000E+00  0.45593999997E+02  0.45594000000E+02  0.51100000000E-03 0.  1.
         11   -1    0    0    0    0 -0.00000000000E+00 -0.00000000000E+00 -0.45593999997E+02  0.45594000000E+02  0.51100000000E-03 0. -1.
         23    2    1    2    0    0  0.00000000000E+00  0.17763568394E-14  0.00000000000E+00  0.91188000000E+02  0.91188000000E+02 0.  0.
    9900012    2    3    3    0    0  0.30442593086E+01  0.95868531256E+01 -0.35420367600E+02  0.54367113149E+02  0.40000066046E+02 0.  0.
        -12    1    3    3    0    0 -0.30442593086E+01 -0.95868531256E+01  0.35420367600E+02  0.36820886851E+02  0.00000000000E+00 0.  1.
         11    1    4    4    0    0  0.76171371127E+00  0.21559720316E+01 -0.18079302072E+02  0.18223325351E+02  0.51100000000E-03 0. -1.
        -11    1    4    4    0    0 -0.45823485879E+01 -0.10737350027E+02 -0.10030498725E+02  0.15391540180E+02  0.51100000000E-03 0.  1.
        -12    1    4    4    0    0  0.68648941852E+01  0.18168231121E+02 -0.73105668033E+01  0.20752247619E+02  0.00000000000E+00 0.  1.
</event>
<event>
 8    1  0.2512298E-006  0.9118800E+02  0.7816164E-02  0.1184000E+00
        -11   -1    0    0    0    0  0.00000000000E+00  0.00000000000E+00  0.45593999997E+02  0.45594000000E+02  0.51100000000E-03 0.  1.
         11   -1    0    0    0    0 -0.00000000000E+00 -0.00000000000E+00 -0.45593999997E+02  0.45594000000E+02  0.51100000000E-03 0. -1.
         23    2    1    2    0    0 -0.17763568394E-14  0.00000000000E+00  0.00000000000E+00  0.91188000000E+02  0.91188000000E+02 0.  0.
    9900012    2    3    3    0    0  0.12212118814E+02  0.34716965195E+02  0.11739876665E+01  0.54367058061E+02  0.39999940461E+02 0.  0.
        -12    1    3    3    0    0 -0.12212118814E+02 -0.34716965195E+02 -0.11739876665E+01  0.36820941939E+02  0.00000000000E+00 0.  1.
         11    1    4    4    0    0  0.24137802379E+01  0.13490882436E+02  0.71142124263E+01  0.15441575782E+02  0.51100000000E-03 0. -1.
        -11    1    4    4    0    0  0.20730153248E+00 -0.70333117752E+01  0.31782574271E+01  0.77208658185E+01  0.51100000000E-03 0.  1.
         12    1    4    4    0    0  0.95910370440E+01  0.28259394534E+02 -0.91184821868E+01  0.31204616460E+02  0.00000000000E+00 0. -1.
</event>
<event>
 8    1  0.2512298E-006  0.9118800E+02  0.7816164E-02  0.1184000E+00
        -11   -1    0    0    0    0  0.00000000000E+00  0.00000000000E+00  0.45593999997E+02  0.45594000000E+02  0.51100000000E-03 0. -1.
         11   -1    0    0    0    0 -0.00000000000E+00 -0.00000000000E+00 -0.45593999997E+02  0.45594000000E+02  0.51100000000E-03 0.  1.
         23    2    1    2    0    0 -0.35527136788E-14 -0.35527136788E-14  0.00000000000E+00  0.91188000000E+02  0.91188000000E+02 0.  0.
    9900012    2    3    3    0    0 -0.25943827531E+02 -0.18448193470E+02  0.18503074152E+02  0.54367057829E+02  0.39999939932E+02 0.  0.
        -12    1    3    3    0    0  0.25943827531E+02  0.18448193470E+02 -0.18503074152E+02  0.36820942171E+02  0.00000000000E+00 0.  1.
         11    1    4    4    0    0 -0.43390399305E+01 -0.19318334411E+02  0.19764418315E+02  0.27976017292E+02  0.51100000000E-03 0. -1.
        -11    1    4    4    0    0 -0.15372915537E+02 -0.45242341721E+01  0.41219616872E+01  0.16546473805E+02  0.51100000000E-03 0.  1.
        -12    1    4    4    0    0 -0.62318720638E+01  0.53943751126E+01 -0.53833058498E+01  0.98445667324E+01  0.00000000000E+00 0.  1.
</event>
<event>
 8    1  0.2512298E-006  0.9118800E+02  0.7816164E-02  0.1184000E+00
        -11   -1    0    0    0    0  0.00000000000E+00  0.00000000000E+00  0.45593999997E+02  0.45594000000E+02  0.51100000000E-03 0. -1.
         11   -1    0    0    0    0 -0.00000000000E+00 -0.00000000000E+00 -0.45593999997E+02  0.45594000000E+02  0.51100000000E-03 0.  1.
         23    2    1    2    0    0 -0.35527136788E-14  0.00000000000E+00  0.00000000000E+00  0.91188000000E+02  0.91188000000E+02 0.  0.
    9900012    2    3    3    0    0  0.30680710058E+02 -0.16959405358E+02  0.11262875593E+02  0.54367085204E+02  0.40000002340E+02 0.  0.
        -12    1    3    3    0    0 -0.30680710058E+02  0.16959405358E+02 -0.11262875593E+02  0.36820914796E+02  0.00000000000E+00 0.  1.
         11    1    4    4    0    0  0.20930467474E+02 -0.82213696550E+00  0.33930762282E+01  0.21219645248E+02  0.51100000000E-03 0. -1.
        -11    1    4    4    0    0  0.58824787160E+01 -0.86498221941E+01 -0.93153830517E+01  0.14007117530E+02  0.51100000000E-03 0.  1.
         12    1    4    4    0    0  0.38677638679E+01 -0.74874461982E+01  0.17185182417E+02  0.19140322427E+02  0.00000000000E+00 0. -1.
</event>
<event>
 8    1  0.2512298E-006  0.9118800E+02  0.7816164E-02  0.1184000E+00
        -11   -1    0    0    0    0  0.00000000000E+00  0.00000000000E+00  0.45593999997E+02  0.45594000000E+02  0.51100000000E-03 0.  1.
         11   -1    0    0    0    0 -0.00000000000E+00 -0.00000000000E+00 -0.45593999997E+02  0.45594000000E+02  0.51100000000E-03 0. -1.
         23    2    1    2    0    0  0.00000000000E+00  0.00000000000E+00  0.35527136788E-14  0.91188000000E+02  0.91188000000E+02 0.  0.
    9900012    2    3    3    0    0  0.23829961933E+02 -0.18354759141E+02 -0.21237108356E+02  0.54367095066E+02  0.40000024822E+02 0.  0.
        -12    1    3    3    0    0 -0.23829961933E+02  0.18354759141E+02  0.21237108356E+02  0.36820904934E+02  0.00000000000E+00 0.  1.
         11    1    4    4    0    0  0.27931747333E+01  0.79216102705E+01 -0.12656584878E+02  0.15190223020E+02  0.51100000000E-03 0.  1.
        -11    1    4    4    0    0  0.53538317851E+01  0.46740219069E+00 -0.60177355512E+01  0.80681547466E+01  0.51100000000E-03 0. -1.
        -12    1    4    4    0    0  0.15682955415E+02 -0.26743771602E+02 -0.25627879269E+01  0.31108717299E+02  0.00000000000E+00 0.  1.
</event>
<event>
 8    1  0.2512298E-006  0.9118800E+02  0.7816164E-02  0.1184000E+00
        -11   -1    0    0    0    0  0.00000000000E+00  0.00000000000E+00  0.45593999997E+02  0.45594000000E+02  0.51100000000E-03 0.  1.
         11   -1    0    0    0    0 -0.00000000000E+00 -0.00000000000E+00 -0.45593999997E+02  0.45594000000E+02  0.51100000000E-03 0. -1.
         23    2    1    2    0    0  0.17763568394E-14  0.00000000000E+00  0.71054273576E-14  0.91188000000E+02  0.91188000000E+02 0.  0.
    9900012    2    3    3    0    0  0.11932554187E+02  0.22172110451E+02  0.26866175980E+02  0.54367085521E+02  0.40000003062E+02 0.  0.
         12    1    3    3    0    0 -0.11932554187E+02 -0.22172110451E+02 -0.26866175980E+02  0.36820914479E+02  0.00000000000E+00 0. -1.
         11    1    4    4    0    0  0.93809334993E+01 -0.16970769244E+01  0.16417198144E+01  0.96735323236E+01  0.51100000000E-03 0. -1.
        -11    1    4    4    0    0  0.32870205490E+01  0.60121636096E+01  0.25917487624E+02  0.26807961138E+02  0.51100000000E-03 0.  1.
         12    1    4    4    0    0 -0.73539986086E+00  0.17857023765E+02 -0.69303145825E+00  0.17885592059E+02  0.00000000000E+00 0. -1.
</event>
<event>
 8    1  0.2512298E-006  0.9118800E+02  0.7816164E-02  0.1184000E+00
        -11   -1    0    0    0    0  0.00000000000E+00  0.00000000000E+00  0.45593999997E+02  0.45594000000E+02  0.51100000000E-03 0. -1.
         11   -1    0    0    0    0 -0.00000000000E+00 -0.00000000000E+00 -0.45593999997E+02  0.45594000000E+02  0.51100000000E-03 0.  1.
         23    2    1    2    0    0  0.35527136788E-14 -0.35527136788E-14  0.00000000000E+00  0.91188000000E+02  0.91188000000E+02 0.  0.
    9900012    2    3    3    0    0 -0.22903588062E+02  0.22356157903E+02  0.18204624084E+02  0.54367075510E+02  0.39999980240E+02 0.  0.
        -12    1    3    3    0    0  0.22903588062E+02 -0.22356157903E+02 -0.18204624084E+02  0.36820924490E+02  0.00000000000E+00 0.  1.
         11    1    4    4    0    0 -0.18277005130E+02  0.25428845515E+02  0.24439903992E+02  0.39723846845E+02  0.51100000000E-03 0. -1.
        -11    1    4    4    0    0  0.13675450837E+00 -0.58849548908E+01 -0.69023388872E+01  0.90715863132E+01  0.51100000000E-03 0.  1.
        -12    1    4    4    0    0 -0.47633374398E+01  0.28122672789E+01  0.66705897913E+00  0.55716423517E+01  0.00000000000E+00 0.  1.
</event>
<event>
 8    1  0.2512298E-006  0.9118800E+02  0.7816164E-02  0.1184000E+00
        -11   -1    0    0    0    0  0.00000000000E+00  0.00000000000E+00  0.45593999997E+02  0.45594000000E+02  0.51100000000E-03 0. -1.
         11   -1    0    0    0    0 -0.00000000000E+00 -0.00000000000E+00 -0.45593999997E+02  0.45594000000E+02  0.51100000000E-03 0.  1.
         23    2    1    2    0    0  0.00000000000E+00  0.17763568394E-14 -0.35527136788E-14  0.91188000000E+02  0.91188000000E+02 0.  0.
    9900012    2    3    3    0    0  0.33934533739E+02 -0.13365428540E+02 -0.50589597659E+01  0.54367077495E+02  0.39999984766E+02 0.  0.
         12    1    3    3    0    0 -0.33934533739E+02  0.13365428540E+02  0.50589597659E+01  0.36820922505E+02  0.00000000000E+00 0. -1.
         11    1    4    4    0    0  0.52826417646E+01 -0.50036348157E+01  0.43953760629E+01  0.85007056400E+01  0.51100000000E-03 0. -1.
        -11    1    4    4    0    0  0.93752392393E+01  0.40804937175E+01  0.11079244225E+02  0.15076312302E+02  0.51100000000E-03 0.  1.
        -12    1    4    4    0    0  0.19276652736E+02 -0.12442287442E+02 -0.20533580054E+02  0.30790059553E+02  0.00000000000E+00 0.  1.
</event>
<event>
 8    1  0.2512298E-006  0.9118800E+02  0.7816164E-02  0.1184000E+00
        -11   -1    0    0    0    0  0.00000000000E+00  0.00000000000E+00  0.45593999997E+02  0.45594000000E+02  0.51100000000E-03 0. -1.
         11   -1    0    0    0    0 -0.00000000000E+00 -0.00000000000E+00 -0.45593999997E+02  0.45594000000E+02  0.51100000000E-03 0.  1.
         23    2    1    2    0    0  0.35527136788E-14  0.00000000000E+00 -0.17763568394E-14  0.91188000000E+02  0.91188000000E+02 0.  0.
    9900012    2    3    3    0    0 -0.28870487729E+02  0.19949890056E+02  0.11147923446E+02  0.54367090558E+02  0.40000014545E+02 0.  0.
         12    1    3    3    0    0  0.28870487729E+02 -0.19949890056E+02 -0.11147923446E+02  0.36820909442E+02  0.00000000000E+00 0. -1.
         11    1    4    4    0    0 -0.62021622365E+01  0.19244620793E+02 -0.58389189769E+01  0.21045551096E+02  0.51100000000E-03 0. -1.
        -11    1    4    4    0    0 -0.30084803977E+00 -0.33739590886E+01 -0.17925375354E+01  0.38324014080E+01  0.51100000000E-03 0.  1.
         12    1    4    4    0    0 -0.22367477453E+02  0.40792283520E+01  0.18779379958E+02  0.29489138054E+02  0.00000000000E+00 0. -1.
</event>
<event>
 8    1  0.2512298E-006  0.9118800E+02  0.7816164E-02  0.1184000E+00
        -11   -1    0    0    0    0  0.00000000000E+00  0.00000000000E+00  0.45593999997E+02  0.45594000000E+02  0.51100000000E-03 0. -1.
         11   -1    0    0    0    0 -0.00000000000E+00 -0.00000000000E+00 -0.45593999997E+02  0.45594000000E+02  0.51100000000E-03 0.  1.
         23    2    1    2    0    0  0.00000000000E+00  0.17763568394E-14  0.00000000000E+00  0.91188000000E+02  0.91188000000E+02 0.  0.
    9900012    2    3    3    0    0  0.29676044454E+02 -0.13531758931E+02 -0.17088102429E+02  0.54367090739E+02  0.40000014957E+02 0.  0.
         12    1    3    3    0    0 -0.29676044454E+02  0.13531758931E+02  0.17088102429E+02  0.36820909261E+02  0.00000000000E+00 0. -1.
         11    1    4    4    0    0 -0.71125564745E+00 -0.20097012528E+02 -0.10033644188E+02  0.22473758322E+02  0.51100000000E-03 0. -1.
        -11    1    4    4    0    0  0.16860289706E+02  0.35754031782E+01 -0.43970504974E+01  0.17787268767E+02  0.51100000000E-03 0.  1.
         12    1    4    4    0    0  0.13527010396E+02  0.29898504191E+01 -0.26574077429E+01  0.14106063650E+02  0.00000000000E+00 0. -1.
</event>
<event>
 8    1  0.2512298E-006  0.9118800E+02  0.7816164E-02  0.1184000E+00
        -11   -1    0    0    0    0  0.00000000000E+00  0.00000000000E+00  0.45593999997E+02  0.45594000000E+02  0.51100000000E-03 0. -1.
         11   -1    0    0    0    0 -0.00000000000E+00 -0.00000000000E+00 -0.45593999997E+02  0.45594000000E+02  0.51100000000E-03 0.  1.
         23    2    1    2    0    0 -0.17763568394E-14 -0.71054273576E-14  0.17763568394E-14  0.91188000000E+02  0.91188000000E+02 0.  0.
    9900012    2    3    3    0    0  0.83393470978E+01  0.33975734157E+02 -0.11484146805E+02  0.54367070498E+02  0.39999968814E+02 0.  0.
        -12    1    3    3    0    0 -0.83393470978E+01 -0.33975734157E+02  0.11484146805E+02  0.36820929502E+02  0.00000000000E+00 0.  1.
         11    1    4    4    0    0 -0.47612973847E+01  0.78634577066E+01 -0.12729194327E+02  0.15701474719E+02  0.51100000000E-03 0. -1.
        -11    1    4    4    0    0 -0.72683366907E+01  0.33716986594E+01  0.14131784586E+01  0.81359783503E+01  0.51100000000E-03 0.  1.
        -12    1    4    4    0    0  0.20368981173E+02  0.22740577791E+02 -0.16813093676E+00  0.30529617428E+02  0.00000000000E+00 0.  1.
</event>
<event>
 8    1  0.2512298E-006  0.9118800E+02  0.7816164E-02  0.1184000E+00
        -11   -1    0    0    0    0  0.00000000000E+00  0.00000000000E+00  0.45593999997E+02  0.45594000000E+02  0.51100000000E-03 0.  1.
         11   -1    0    0    0    0 -0.00000000000E+00 -0.00000000000E+00 -0.45593999997E+02  0.45594000000E+02  0.51100000000E-03 0. -1.
         23    2    1    2    0    0  0.35527136788E-14  0.00000000000E+00 -0.35527136788E-14  0.91188000000E+02  0.91188000000E+02 0.  0.
    9900012    2    3    3    0    0  0.24722893928E+02  0.12039943289E+02  0.24486718693E+02  0.54367066946E+02  0.39999960718E+02 0.  0.
         12    1    3    3    0    0 -0.24722893928E+02 -0.12039943289E+02 -0.24486718693E+02  0.36820933054E+02  0.00000000000E+00 0. -1.
         11    1    4    4    0    0  0.90535603495E+01 -0.78976141452E+01  0.69408786487E+01  0.13874979671E+02  0.51100000000E-03 0. -1.
        -11    1    4    4    0    0  0.27553272230E+01  0.17727256480E+02  0.20313251932E+02  0.27101211315E+02  0.51100000000E-03 0.  1.
        -12    1    4    4    0    0  0.12914006355E+02  0.22103009538E+01 -0.27674118871E+01  0.13390875961E+02  0.00000000000E+00 0.  1.
</event>
<event>
 8    1  0.2512298E-006  0.9118800E+02  0.7816164E-02  0.1184000E+00
        -11   -1    0    0    0    0  0.00000000000E+00  0.00000000000E+00  0.45593999997E+02  0.45594000000E+02  0.51100000000E-03 0.  1.
         11   -1    0    0    0    0 -0.00000000000E+00 -0.00000000000E+00 -0.45593999997E+02  0.45594000000E+02  0.51100000000E-03 0. -1.
         23    2    1    2    0    0  0.00000000000E+00  0.00000000000E+00  0.00000000000E+00  0.91188000000E+02  0.91188000000E+02 0.  0.
    9900012    2    3    3    0    0  0.25537154900E+02 -0.14048856621E+02  0.22500053298E+02  0.54367230709E+02  0.40000334046E+02 0.  0.
         12    1    3    3    0    0 -0.25537154900E+02  0.14048856621E+02 -0.22500053298E+02  0.36820769291E+02  0.00000000000E+00 0. -1.
         11    1    4    4    0    0  0.96986250786E+01 -0.12692103164E+02  0.45073987284E+00  0.15979861633E+02  0.51100000000E-03 0. -1.
        -11    1    4    4    0    0  0.18728476306E+02 -0.10748179383E+02  0.14880093301E+02  0.26223965407E+02  0.51100000000E-03 0.  1.
         12    1    4    4    0    0 -0.28899464837E+01  0.93914259258E+01  0.71692201245E+01  0.12163403668E+02  0.00000000000E+00 0. -1.
</event>
<event>
 8    1  0.2512298E-006  0.9118800E+02  0.7816164E-02  0.1184000E+00
        -11   -1    0    0    0    0  0.00000000000E+00  0.00000000000E+00  0.45593999997E+02  0.45594000000E+02  0.51100000000E-03 0.  1.
         11   -1    0    0    0    0 -0.00000000000E+00 -0.00000000000E+00 -0.45593999997E+02  0.45594000000E+02  0.51100000000E-03 0. -1.
         23    2    1    2    0    0  0.00000000000E+00  0.00000000000E+00  0.35527136788E-14  0.91188000000E+02  0.91188000000E+02 0.  0.
    9900012    2    3    3    0    0 -0.24424759630E+02 -0.11343347612E+02 -0.25110539733E+02  0.54367087142E+02  0.40000006757E+02 0.  0.
        -12    1    3    3    0    0  0.24424759630E+02  0.11343347612E+02  0.25110539733E+02  0.36820912858E+02  0.00000000000E+00 0.  1.
         11    1    4    4    0    0 -0.24011134263E+02  0.11709055457E+01 -0.21099616785E+02  0.31985925297E+02  0.51100000000E-03 0. -1.
        -11    1    4    4    0    0 -0.16044522162E+01 -0.10505483316E+01 -0.94458683618E+01  0.96385864151E+01  0.51100000000E-03 0.  1.
        -12    1    4    4    0    0  0.11908268488E+01 -0.11463704826E+02  0.54349454144E+01  0.12742575430E+02  0.00000000000E+00 0.  1.
</event>
<event>
 8    1  0.2512298E-006  0.9118800E+02  0.7816164E-02  0.1184000E+00
        -11   -1    0    0    0    0  0.00000000000E+00  0.00000000000E+00  0.45593999997E+02  0.45594000000E+02  0.51100000000E-03 0. -1.
         11   -1    0    0    0    0 -0.00000000000E+00 -0.00000000000E+00 -0.45593999997E+02  0.45594000000E+02  0.51100000000E-03 0.  1.
         23    2    1    2    0    0  0.00000000000E+00  0.00000000000E+00  0.71054273576E-14  0.91188000000E+02  0.91188000000E+02 0.  0.
    9900012    2    3    3    0    0  0.20089030966E+02  0.69845504059E+01  0.30057066990E+02  0.54367076796E+02  0.39999983172E+02 0.  0.
        -12    1    3    3    0    0 -0.20089030966E+02 -0.69845504059E+01 -0.30057066990E+02  0.36820923204E+02  0.00000000000E+00 0.  1.
         11    1    4    4    0    0  0.18817889285E+01 -0.45391472685E+01  0.18323292815E+02  0.18970715520E+02  0.51100000000E-03 0. -1.
        -11    1    4    4    0    0  0.69276315682E+01 -0.58927685331E+01  0.11478360865E+02  0.14644779566E+02  0.51100000000E-03 0.  1.
        -12    1    4    4    0    0  0.11279610469E+02  0.17416466207E+02  0.25541330959E+00  0.20751581709E+02  0.00000000000E+00 0.  1.
</event>
<event>
 8    1  0.2512298E-006  0.9118800E+02  0.7816164E-02  0.1184000E+00
        -11   -1    0    0    0    0  0.00000000000E+00  0.00000000000E+00  0.45593999997E+02  0.45594000000E+02  0.51100000000E-03 0. -1.
         11   -1    0    0    0    0 -0.00000000000E+00 -0.00000000000E+00 -0.45593999997E+02  0.45594000000E+02  0.51100000000E-03 0.  1.
         23    2    1    2    0    0  0.00000000000E+00  0.00000000000E+00  0.88817841970E-15  0.91188000000E+02  0.91188000000E+02 0.  0.
    9900012    2    3    3    0    0 -0.34933855710E+02  0.11497320361E+02  0.17926830612E+01  0.54367131422E+02  0.40000107703E+02 0.  0.
        -12    1    3    3    0    0  0.34933855710E+02 -0.11497320361E+02 -0.17926830612E+01  0.36820868578E+02  0.00000000000E+00 0.  1.
         11    1    4    4    0    0 -0.14845937647E+02 -0.77134473878E+01 -0.39741532957E+01  0.17195727082E+02  0.51100000000E-03 0. -1.
        -11    1    4    4    0    0 -0.42987677731E+01 -0.35346720626E+01 -0.49822049146E+01  0.74696503954E+01  0.51100000000E-03 0.  1.
        -12    1    4    4    0    0 -0.15789150290E+02  0.22745439812E+02  0.10749041272E+02  0.29701753944E+02  0.00000000000E+00 0.  1.
</event>
<event>
 8    1  0.2512298E-006  0.9118800E+02  0.7816164E-02  0.1184000E+00
        -11   -1    0    0    0    0  0.00000000000E+00  0.00000000000E+00  0.45593999997E+02  0.45594000000E+02  0.51100000000E-03 0. -1.
         11   -1    0    0    0    0 -0.00000000000E+00 -0.00000000000E+00 -0.45593999997E+02  0.45594000000E+02  0.51100000000E-03 0.  1.
         23    2    1    2    0    0  0.35527136788E-14  0.00000000000E+00  0.35527136788E-14  0.91188000000E+02  0.91188000000E+02 0.  0.
    9900012    2    3    3    0    0 -0.12626273881E+02  0.28971141809E+02 -0.18895237116E+02  0.54367084266E+02  0.40000000201E+02 0.  0.
         12    1    3    3    0    0  0.12626273881E+02 -0.28971141809E+02  0.18895237116E+02  0.36820915734E+02  0.00000000000E+00 0. -1.
         11    1    4    4    0    0 -0.13034541178E+02 -0.58081819280E+01 -0.39420929521E+01  0.14804537755E+02  0.51100000000E-03 0. -1.
        -11    1    4    4    0    0  0.53115415447E+01  0.26144574535E+02 -0.11465617989E+02  0.29038106814E+02  0.51100000000E-03 0.  1.
        -12    1    4    4    0    0 -0.49032742481E+01  0.86347492019E+01 -0.34875261746E+01  0.10524439698E+02  0.00000000000E+00 0.  1.
</event>
<event>
 8    1  0.2512298E-006  0.9118800E+02  0.7816164E-02  0.1184000E+00
        -11   -1    0    0    0    0  0.00000000000E+00  0.00000000000E+00  0.45593999997E+02  0.45594000000E+02  0.51100000000E-03 0. -1.
         11   -1    0    0    0    0 -0.00000000000E+00 -0.00000000000E+00 -0.45593999997E+02  0.45594000000E+02  0.51100000000E-03 0.  1.
         23    2    1    2    0    0  0.35527136788E-14  0.35527136788E-14  0.00000000000E+00  0.91188000000E+02  0.91188000000E+02 0.  0.
    9900012    2    3    3    0    0 -0.30254520850E+02 -0.20902420611E+02  0.18796599240E+01  0.54367077405E+02  0.39999984561E+02 0.  0.
        -12    1    3    3    0    0  0.30254520850E+02  0.20902420611E+02 -0.18796599240E+01  0.36820922595E+02  0.00000000000E+00 0.  1.
         11    1    4    4    0    0  0.20852213011E+00  0.22611541185E+01  0.56465637264E+01  0.60860481105E+01  0.51100000000E-03 0. -1.
        -11    1    4    4    0    0  0.15900027893E+01  0.43299891248E+01  0.30153029405E+01  0.55108045488E+01  0.51100000000E-03 0.  1.
         12    1    4    4    0    0 -0.32053045769E+02 -0.27493563855E+02 -0.67822067429E+01  0.42770224746E+02  0.00000000000E+00 0. -1.
</event>
<event>
 8    1  0.2512298E-006  0.9118800E+02  0.7816164E-02  0.1184000E+00
        -11   -1    0    0    0    0  0.00000000000E+00  0.00000000000E+00  0.45593999997E+02  0.45594000000E+02  0.51100000000E-03 0.  1.
         11   -1    0    0    0    0 -0.00000000000E+00 -0.00000000000E+00 -0.45593999997E+02  0.45594000000E+02  0.51100000000E-03 0. -1.
         23    2    1    2    0    0  0.35527136788E-14 -0.35527136788E-14 -0.44408920985E-15  0.91188000000E+02  0.91188000000E+02 0.  0.
    9900012    2    3    3    0    0  0.30388698698E+02  0.20513843719E+02 -0.33896540720E+01  0.54367074599E+02  0.39999978163E+02 0.  0.
        -12    1    3    3    0    0 -0.30388698698E+02 -0.20513843719E+02  0.33896540720E+01  0.36820925401E+02  0.00000000000E+00 0.  1.
         11    1    4    4    0    0 -0.34764503249E+01  0.18507573216E+01 -0.11797693470E+01  0.41113094628E+01  0.51100000000E-03 0. -1.
        -11    1    4    4    0    0  0.19921746757E+02 -0.59564972460E+01 -0.61625215986E+01  0.21687151173E+02  0.51100000000E-03 0.  1.
         12    1    4    4    0    0  0.13943402266E+02  0.24619583643E+02  0.39526368736E+01  0.28568613963E+02  0.00000000000E+00 0. -1.
</event>
<event>
 8    1  0.2512298E-006  0.9118800E+02  0.7816164E-02  0.1184000E+00
        -11   -1    0    0    0    0  0.00000000000E+00  0.00000000000E+00  0.45593999997E+02  0.45594000000E+02  0.51100000000E-03 0. -1.
         11   -1    0    0    0    0 -0.00000000000E+00 -0.00000000000E+00 -0.45593999997E+02  0.45594000000E+02  0.51100000000E-03 0.  1.
         23    2    1    2    0    0  0.00000000000E+00  0.00000000000E+00  0.71054273576E-14  0.91188000000E+02  0.91188000000E+02 0.  0.
    9900012    2    3    3    0    0  0.12491823518E+02  0.19329225138E+02  0.28742225356E+02  0.54367080434E+02  0.39999991466E+02 0.  0.
        -12    1    3    3    0    0 -0.12491823518E+02 -0.19329225138E+02 -0.28742225356E+02  0.36820919566E+02  0.00000000000E+00 0.  1.
         11    1    4    4    0    0  0.20134125394E+02  0.51879835204E+01  0.15376812329E+02  0.25860095438E+02  0.51100000000E-03 0. -1.
        -11    1    4    4    0    0 -0.23348928755E+01  0.49414375575E+01 -0.49246689587E+01  0.73567584226E+01  0.51100000000E-03 0.  1.
         12    1    4    4    0    0 -0.53074090012E+01  0.91998040604E+01  0.18290081986E+02  0.21150226574E+02  0.00000000000E+00 0. -1.
</event>
<event>
 8    1  0.2512298E-006  0.9118800E+02  0.7816164E-02  0.1184000E+00
        -11   -1    0    0    0    0  0.00000000000E+00  0.00000000000E+00  0.45593999997E+02  0.45594000000E+02  0.51100000000E-03 0. -1.
         11   -1    0    0    0    0 -0.00000000000E+00 -0.00000000000E+00 -0.45593999997E+02  0.45594000000E+02  0.51100000000E-03 0.  1.
         23    2    1    2    0    0  0.35527136788E-14  0.17763568394E-14  0.00000000000E+00  0.91188000000E+02  0.91188000000E+02 0.  0.
    9900012    2    3    3    0    0  0.30167196212E+02 -0.51903533611E+01 -0.20464144256E+02  0.54367072589E+02  0.39999973580E+02 0.  0.
         12    1    3    3    0    0 -0.30167196212E+02  0.51903533611E+01  0.20464144256E+02  0.36820927411E+02  0.00000000000E+00 0. -1.
         11    1    4    4    0    0  0.55207672904E+01 -0.17736422898E+02  0.17444639994E+01  0.18657511185E+02  0.51100000000E-03 0. -1.
        -11    1    4    4    0    0  0.39060003667E+01  0.15328524852E+01 -0.16845305217E+01  0.45215173278E+01  0.51100000000E-03 0.  1.
        -12    1    4    4    0    0  0.20740428555E+02  0.11013217052E+02 -0.20524077734E+02  0.31188044076E+02  0.00000000000E+00 0.  1.
</event>
<event>
 8    1  0.2512298E-006  0.9118800E+02  0.7816164E-02  0.1184000E+00
        -11   -1    0    0    0    0  0.00000000000E+00  0.00000000000E+00  0.45593999997E+02  0.45594000000E+02  0.51100000000E-03 0. -1.
         11   -1    0    0    0    0 -0.00000000000E+00 -0.00000000000E+00 -0.45593999997E+02  0.45594000000E+02  0.51100000000E-03 0.  1.
         23    2    1    2    0    0  0.00000000000E+00  0.88817841970E-15  0.00000000000E+00  0.91188000000E+02  0.91188000000E+02 0.  0.
    9900012    2    3    3    0    0  0.32918126889E+02 -0.50872325175E+01 -0.15693926244E+02  0.54367050345E+02  0.39999922870E+02 0.  0.
         12    1    3    3    0    0 -0.32918126889E+02  0.50872325175E+01  0.15693926244E+02  0.36820949655E+02  0.00000000000E+00 0. -1.
         11    1    4    4    0    0  0.14296643334E+02  0.11575451423E+02 -0.76170807567E+01  0.19909922294E+02  0.51100000000E-03 0.  1.
        -11    1    4    4    0    0 -0.35868377079E+01 -0.91269209305E+01 -0.42800063609E+01  0.10699745096E+02  0.51100000000E-03 0. -1.
        -12    1    4    4    0    0  0.22208321263E+02 -0.75357630098E+01 -0.37968391269E+01  0.23757382954E+02  0.00000000000E+00 0.  1.
</event>
<event>
 8    1  0.2512298E-006  0.9118800E+02  0.7816164E-02  0.1184000E+00
        -11   -1    0    0    0    0  0.00000000000E+00  0.00000000000E+00  0.45593999997E+02  0.45594000000E+02  0.51100000000E-03 0. -1.
         11   -1    0    0    0    0 -0.00000000000E+00 -0.00000000000E+00 -0.45593999997E+02  0.45594000000E+02  0.51100000000E-03 0.  1.
         23    2    1    2    0    0  0.00000000000E+00  0.00000000000E+00 -0.88817841970E-15  0.91188000000E+02  0.91188000000E+02 0.  0.
    9900012    2    3    3    0    0 -0.36463003957E+02 -0.50737427995E+00  0.50963099300E+01  0.54367075770E+02  0.39999980834E+02 0.  0.
         12    1    3    3    0    0  0.36463003957E+02  0.50737427995E+00 -0.50963099300E+01  0.36820924230E+02  0.00000000000E+00 0. -1.
         11    1    4    4    0    0 -0.34594757457E+01  0.50140278942E+01  0.12235454401E+02  0.13668020808E+02  0.51100000000E-03 0. -1.
        -11    1    4    4    0    0 -0.21173177596E+02 -0.10012515872E+02 -0.12962784805E+02  0.26769156015E+02  0.51100000000E-03 0.  1.
        -12    1    4    4    0    0 -0.11830350615E+02  0.44911136978E+01  0.58236403346E+01  0.13929898947E+02  0.00000000000E+00 0.  1.
</event>
<event>
 8    1  0.2512298E-006  0.9118800E+02  0.7816164E-02  0.1184000E+00
        -11   -1    0    0    0    0  0.00000000000E+00  0.00000000000E+00  0.45593999997E+02  0.45594000000E+02  0.51100000000E-03 0.  1.
         11   -1    0    0    0    0 -0.00000000000E+00 -0.00000000000E+00 -0.45593999997E+02  0.45594000000E+02  0.51100000000E-03 0. -1.
         23    2    1    2    0    0 -0.17763568394E-14  0.71054273576E-14 -0.88817841970E-15  0.91188000000E+02  0.91188000000E+02 0.  0.
    9900012    2    3    3    0    0  0.15567073897E+02 -0.33276033258E+02  0.24808091640E+01  0.54367046818E+02  0.39999914830E+02 0.  0.
         12    1    3    3    0    0 -0.15567073897E+02  0.33276033258E+02 -0.24808091640E+01  0.36820953182E+02  0.00000000000E+00 0. -1.
         11    1    4    4    0    0 -0.14120861014E+01 -0.17277888285E+02  0.14163801784E+02  0.22385993209E+02  0.51100000000E-03 0. -1.
        -11    1    4    4    0    0  0.13992991520E+02 -0.59355635830E+01 -0.14611459347E+02  0.21083867559E+02  0.51100000000E-03 0.  1.
        -12    1    4    4    0    0  0.29861684783E+01 -0.10062581391E+02  0.29284667267E+01  0.10897186049E+02  0.00000000000E+00 0.  1.
</event>
<event>
 8    1  0.2512298E-006  0.9118800E+02  0.7816164E-02  0.1184000E+00
        -11   -1    0    0    0    0  0.00000000000E+00  0.00000000000E+00  0.45593999997E+02  0.45594000000E+02  0.51100000000E-03 0.  1.
         11   -1    0    0    0    0 -0.00000000000E+00 -0.00000000000E+00 -0.45593999997E+02  0.45594000000E+02  0.51100000000E-03 0. -1.
         23    2    1    2    0    0 -0.35527136788E-14  0.00000000000E+00 -0.35527136788E-14  0.91188000000E+02  0.91188000000E+02 0.  0.
    9900012    2    3    3    0    0 -0.21726637553E+02  0.12595444329E+02 -0.26927448164E+02  0.54367089340E+02  0.40000011769E+02 0.  0.
        -12    1    3    3    0    0  0.21726637553E+02 -0.12595444329E+02  0.26927448164E+02  0.36820910660E+02  0.00000000000E+00 0.  1.
         11    1    4    4    0    0 -0.19904560991E+02  0.14797762451E+02 -0.24553912286E+02  0.34900715331E+02  0.51100000000E-03 0. -1.
        -11    1    4    4    0    0  0.66988520371E+01 -0.16156740201E+01 -0.69409899953E+01  0.97807138558E+01  0.51100000000E-03 0.  1.
        -12    1    4    4    0    0 -0.85209285992E+01 -0.58664410202E+00  0.45674541174E+01  0.96856601536E+01  0.00000000000E+00 0.  1.
</event>
<event>
 8    1  0.2512298E-006  0.9118800E+02  0.7816164E-02  0.1184000E+00
        -11   -1    0    0    0    0  0.00000000000E+00  0.00000000000E+00  0.45593999997E+02  0.45594000000E+02  0.51100000000E-03 0. -1.
         11   -1    0    0    0    0 -0.00000000000E+00 -0.00000000000E+00 -0.45593999997E+02  0.45594000000E+02  0.51100000000E-03 0.  1.
         23    2    1    2    0    0  0.17763568394E-14 -0.88817841970E-15  0.71054273576E-14  0.91188000000E+02  0.91188000000E+02 0.  0.
    9900012    2    3    3    0    0 -0.10583698492E+02  0.47280209713E+01  0.34948731747E+02  0.54367045276E+02  0.39999911315E+02 0.  0.
        -12    1    3    3    0    0  0.10583698492E+02 -0.47280209713E+01 -0.34948731747E+02  0.36820954724E+02  0.00000000000E+00 0.  1.
         11    1    4    4    0    0  0.59791757759E+00 -0.44073062140E+01 -0.44316866781E+01  0.62786702866E+01  0.51100000000E-03 0. -1.
        -11    1    4    4    0    0  0.67543222982E+01  0.53684315674E+01  0.17763400554E+02  0.19747894235E+02  0.51100000000E-03 0.  1.
         12    1    4    4    0    0 -0.17935938368E+02  0.37668956180E+01  0.21617017871E+02  0.28340480754E+02  0.00000000000E+00 0. -1.
</event>
<event>
 8    1  0.2512298E-006  0.9118800E+02  0.7816164E-02  0.1184000E+00
        -11   -1    0    0    0    0  0.00000000000E+00  0.00000000000E+00  0.45593999997E+02  0.45594000000E+02  0.51100000000E-03 0.  1.
         11   -1    0    0    0    0 -0.00000000000E+00 -0.00000000000E+00 -0.45593999997E+02  0.45594000000E+02  0.51100000000E-03 0. -1.
         23    2    1    2    0    0 -0.88817841970E-15  0.00000000000E+00  0.35527136788E-14  0.91188000000E+02  0.91188000000E+02 0.  0.
    9900012    2    3    3    0    0 -0.56729807349E+01 -0.20186357476E+02  0.30267468932E+02  0.54366927037E+02  0.39999641764E+02 0.  0.
         12    1    3    3    0    0  0.56729807349E+01  0.20186357476E+02 -0.30267468932E+02  0.36821072963E+02  0.00000000000E+00 0. -1.
         11    1    4    4    0    0  0.84636195825E+01 -0.11943161243E+02  0.19172622467E+02  0.24121803611E+02  0.51100000000E-03 0. -1.
        -11    1    4    4    0    0 -0.81191450039E+01 -0.13357138448E+02  0.14796430213E+02  0.21523661641E+02  0.51100000000E-03 0.  1.
         12    1    4    4    0    0 -0.60174553135E+01  0.51139422149E+01 -0.37015837477E+01  0.87214617851E+01  0.00000000000E+00 0. -1.
</event>
<event>
 8    1  0.2512298E-006  0.9118800E+02  0.7816164E-02  0.1184000E+00
        -11   -1    0    0    0    0  0.00000000000E+00  0.00000000000E+00  0.45593999997E+02  0.45594000000E+02  0.51100000000E-03 0. -1.
         11   -1    0    0    0    0 -0.00000000000E+00 -0.00000000000E+00 -0.45593999997E+02  0.45594000000E+02  0.51100000000E-03 0.  1.
         23    2    1    2    0    0  0.17763568394E-14  0.00000000000E+00  0.00000000000E+00  0.91188000000E+02  0.91188000000E+02 0.  0.
    9900012    2    3    3    0    0  0.12815526338E+02 -0.17388077354E+02  0.29819389856E+02  0.54367096144E+02  0.40000027279E+02 0.  0.
        -12    1    3    3    0    0 -0.12815526338E+02  0.17388077354E+02 -0.29819389856E+02  0.36820903856E+02  0.00000000000E+00 0.  1.
         11    1    4    4    0    0 -0.26109994173E+00 -0.36767499552E+01  0.71018642451E+01  0.80014460837E+01  0.51100000000E-03 0. -1.
        -11    1    4    4    0    0  0.15532027804E+02 -0.15973704318E+02  0.30573031298E+02  0.37830058952E+02  0.51100000000E-03 0.  1.
        -12    1    4    4    0    0 -0.24554015243E+01  0.22623769198E+01 -0.78555056863E+01  0.85355911078E+01  0.00000000000E+00 0.  1.
</event>
<event>
 8    1  0.2512298E-006  0.9118800E+02  0.7816164E-02  0.1184000E+00
        -11   -1    0    0    0    0  0.00000000000E+00  0.00000000000E+00  0.45593999997E+02  0.45594000000E+02  0.51100000000E-03 0. -1.
         11   -1    0    0    0    0 -0.00000000000E+00 -0.00000000000E+00 -0.45593999997E+02  0.45594000000E+02  0.51100000000E-03 0.  1.
         23    2    1    2    0    0  0.00000000000E+00  0.00000000000E+00  0.00000000000E+00  0.91188000000E+02  0.91188000000E+02 0.  0.
    9900012    2    3    3    0    0 -0.19819713717E+02  0.12315664470E+02  0.28483022483E+02  0.54367092720E+02  0.40000019473E+02 0.  0.
        -12    1    3    3    0    0  0.19819713717E+02 -0.12315664470E+02 -0.28483022483E+02  0.36820907280E+02  0.00000000000E+00 0.  1.
         11    1    4    4    0    0 -0.79611537449E+01  0.69460300791E+01  0.10474172829E+02  0.14877351899E+02  0.51100000000E-03 0. -1.
        -11    1    4    4    0    0 -0.85398164020E+00  0.42910365447E+01  0.25668404313E+02  0.26038610936E+02  0.51100000000E-03 0.  1.
        -12    1    4    4    0    0 -0.11004578332E+02  0.10785978462E+01 -0.76595546589E+01  0.13451129884E+02  0.00000000000E+00 0.  1.
</event>
<event>
 8    1  0.2512298E-006  0.9118800E+02  0.7816164E-02  0.1184000E+00
        -11   -1    0    0    0    0  0.00000000000E+00  0.00000000000E+00  0.45593999997E+02  0.45594000000E+02  0.51100000000E-03 0. -1.
         11   -1    0    0    0    0 -0.00000000000E+00 -0.00000000000E+00 -0.45593999997E+02  0.45594000000E+02  0.51100000000E-03 0.  1.
         23    2    1    2    0    0  0.61062266354E-15  0.00000000000E+00  0.88817841970E-15  0.91188000000E+02  0.91188000000E+02 0.  0.
    9900012    2    3    3    0    0  0.33911565922E+00  0.36574378048E+02  0.42402977533E+01  0.54367078582E+02  0.39999987244E+02 0.  0.
        -12    1    3    3    0    0 -0.33911565922E+00 -0.36574378048E+02 -0.42402977533E+01  0.36820921418E+02  0.00000000000E+00 0.  1.
         11    1    4    4    0    0  0.43622805775E+01  0.16305168828E+02 -0.40359900517E+01  0.17354458744E+02  0.51100000000E-03 0. -1.
        -11    1    4    4    0    0  0.43972119512E+01  0.93986879654E+01  0.17577617252E+02  0.20411845506E+02  0.51100000000E-03 0.  1.
        -12    1    4    4    0    0 -0.84203768694E+01  0.10870521255E+02 -0.93013294472E+01  0.16600774333E+02  0.00000000000E+00 0.  1.
</event>
<event>
 8    1  0.2512298E-006  0.9118800E+02  0.7816164E-02  0.1184000E+00
        -11   -1    0    0    0    0  0.00000000000E+00  0.00000000000E+00  0.45593999997E+02  0.45594000000E+02  0.51100000000E-03 0. -1.
         11   -1    0    0    0    0 -0.00000000000E+00 -0.00000000000E+00 -0.45593999997E+02  0.45594000000E+02  0.51100000000E-03 0.  1.
         23    2    1    2    0    0 -0.35527136788E-14  0.00000000000E+00 -0.21094237468E-14  0.91188000000E+02  0.91188000000E+02 0.  0.
    9900012    2    3    3    0    0 -0.16954069150E+02  0.32683948021E+02 -0.31484050096E+00  0.54367081441E+02  0.39999993761E+02 0.  0.
         12    1    3    3    0    0  0.16954069150E+02 -0.32683948021E+02  0.31484050096E+00  0.36820918559E+02  0.00000000000E+00 0. -1.
         11    1    4    4    0    0 -0.94492692731E+01  0.10000475537E+02  0.81778617756E+01  0.16005487316E+02  0.51100000000E-03 0. -1.
        -11    1    4    4    0    0 -0.10405760047E+02  0.27041913706E+02 -0.12708754248E+02  0.31639490733E+02  0.51100000000E-03 0.  1.
        -12    1    4    4    0    0  0.29009601700E+01 -0.43584412209E+01  0.42160519715E+01  0.67221033919E+01  0.00000000000E+00 0.  1.
</event>
<event>
 8    1  0.2512298E-006  0.9118800E+02  0.7816164E-02  0.1184000E+00
        -11   -1    0    0    0    0  0.00000000000E+00  0.00000000000E+00  0.45593999997E+02  0.45594000000E+02  0.51100000000E-03 0.  1.
         11   -1    0    0    0    0 -0.00000000000E+00 -0.00000000000E+00 -0.45593999997E+02  0.45594000000E+02  0.51100000000E-03 0. -1.
         23    2    1    2    0    0  0.00000000000E+00 -0.88817841970E-15  0.00000000000E+00  0.91188000000E+02  0.91188000000E+02 0.  0.
    9900012    2    3    3    0    0  0.81207647458E+01  0.41236174535E+01 -0.35676735324E+02  0.54367075455E+02  0.39999980115E+02 0.  0.
        -12    1    3    3    0    0 -0.81207647458E+01 -0.41236174535E+01  0.35676735324E+02  0.36820924545E+02  0.00000000000E+00 0.  1.
         11    1    4    4    0    0  0.12063804980E+02  0.11367021539E+02 -0.69679115656E+01  0.17980443852E+02  0.51100000000E-03 0. -1.
        -11    1    4    4    0    0 -0.10186874211E+02 -0.20352456599E+01 -0.25694543735E+02  0.27715053835E+02  0.51100000000E-03 0.  1.
         12    1    4    4    0    0  0.62438339770E+01 -0.52081584260E+01 -0.30142800236E+01  0.86715777678E+01  0.00000000000E+00 0. -1.
</event>
<event>
 8    1  0.2512298E-006  0.9118800E+02  0.7816164E-02  0.1184000E+00
        -11   -1    0    0    0    0  0.00000000000E+00  0.00000000000E+00  0.45593999997E+02  0.45594000000E+02  0.51100000000E-03 0. -1.
         11   -1    0    0    0    0 -0.00000000000E+00 -0.00000000000E+00 -0.45593999997E+02  0.45594000000E+02  0.51100000000E-03 0.  1.
         23    2    1    2    0    0  0.00000000000E+00  0.00000000000E+00  0.71054273576E-14  0.91188000000E+02  0.91188000000E+02 0.  0.
    9900012    2    3    3    0    0  0.97693491937E+01 -0.10402449009E+02 -0.33943019085E+02  0.54367086463E+02  0.40000005210E+02 0.  0.
         12    1    3    3    0    0 -0.97693491937E+01  0.10402449009E+02  0.33943019085E+02  0.36820913537E+02  0.00000000000E+00 0. -1.
         11    1    4    4    0    0  0.37407471084E+01 -0.15314492895E+02 -0.15879872354E+02  0.22376264831E+02  0.51100000000E-03 0.  1.
        -11    1    4    4    0    0  0.39055010844E+01 -0.80811768408E+01 -0.16433506781E+02  0.18724809832E+02  0.51100000000E-03 0. -1.
         12    1    4    4    0    0  0.21231010010E+01  0.12993220727E+02 -0.16296399503E+01  0.13266011800E+02  0.00000000000E+00 0. -1.
</event>
<event>
 8    1  0.2512298E-006  0.9118800E+02  0.7816164E-02  0.1184000E+00
        -11   -1    0    0    0    0  0.00000000000E+00  0.00000000000E+00  0.45593999997E+02  0.45594000000E+02  0.51100000000E-03 0. -1.
         11   -1    0    0    0    0 -0.00000000000E+00 -0.00000000000E+00 -0.45593999997E+02  0.45594000000E+02  0.51100000000E-03 0.  1.
         23    2    1    2    0    0  0.00000000000E+00  0.35527136788E-14  0.35527136788E-14  0.91188000000E+02  0.91188000000E+02 0.  0.
    9900012    2    3    3    0    0 -0.94610727755E+01 -0.23956747245E+02 -0.26312354621E+02  0.54367114048E+02  0.40000068095E+02 0.  0.
         12    1    3    3    0    0  0.94610727755E+01  0.23956747245E+02  0.26312354621E+02  0.36820885952E+02  0.00000000000E+00 0. -1.
         11    1    4    4    0    0 -0.61311412194E+01 -0.73160451620E+01  0.73278417238E+01  0.12033813779E+02  0.51100000000E-03 0. -1.
        -11    1    4    4    0    0  0.21402122807E+01  0.35771841812E+01 -0.26863205617E+01  0.49591404188E+01  0.51100000000E-03 0.  1.
        -12    1    4    4    0    0 -0.54701438367E+01 -0.20217886264E+02 -0.30953875783E+02  0.37374159851E+02  0.00000000000E+00 0.  1.
</event>
<event>
 8    1  0.2512298E-006  0.9118800E+02  0.7816164E-02  0.1184000E+00
        -11   -1    0    0    0    0  0.00000000000E+00  0.00000000000E+00  0.45593999997E+02  0.45594000000E+02  0.51100000000E-03 0. -1.
         11   -1    0    0    0    0 -0.00000000000E+00 -0.00000000000E+00 -0.45593999997E+02  0.45594000000E+02  0.51100000000E-03 0.  1.
         23    2    1    2    0    0  0.17763568394E-14  0.00000000000E+00  0.00000000000E+00  0.91188000000E+02  0.91188000000E+02 0.  0.
    9900012    2    3    3    0    0 -0.14766313093E+02 -0.29942356345E+02 -0.15530157275E+02  0.54367156843E+02  0.40000165654E+02 0.  0.
         12    1    3    3    0    0  0.14766313093E+02  0.29942356345E+02  0.15530157275E+02  0.36820843157E+02  0.00000000000E+00 0. -1.
         11    1    4    4    0    0  0.14193336721E+01  0.23495207490E+01 -0.21504036246E+00  0.27533612987E+01  0.51100000000E-03 0. -1.
        -11    1    4    4    0    0 -0.13966467626E+02 -0.27398658568E+02  0.45023741141E+01  0.31080863601E+02  0.51100000000E-03 0.  1.
        -12    1    4    4    0    0 -0.22191791383E+01 -0.48932185263E+01 -0.19817491026E+02  0.20532931943E+02  0.00000000000E+00 0.  1.
</event>
<event>
 8    1  0.2512298E-006  0.9118800E+02  0.7816164E-02  0.1184000E+00
        -11   -1    0    0    0    0  0.00000000000E+00  0.00000000000E+00  0.45593999997E+02  0.45594000000E+02  0.51100000000E-03 0. -1.
         11   -1    0    0    0    0 -0.00000000000E+00 -0.00000000000E+00 -0.45593999997E+02  0.45594000000E+02  0.51100000000E-03 0.  1.
         23    2    1    2    0    0 -0.44408920985E-15  0.00000000000E+00  0.00000000000E+00  0.91188000000E+02  0.91188000000E+02 0.  0.
    9900012    2    3    3    0    0  0.32497433935E+01 -0.44150385029E+01 -0.36410530491E+02  0.54367080298E+02  0.39999991154E+02 0.  0.
         12    1    3    3    0    0 -0.32497433935E+01  0.44150385029E+01  0.36410530491E+02  0.36820919702E+02  0.00000000000E+00 0. -1.
         11    1    4    4    0    0  0.83150871042E+01  0.51163669572E+01 -0.13899886585E+02  0.16986015770E+02  0.51100000000E-03 0. -1.
        -11    1    4    4    0    0 -0.13677163562E+02 -0.13866758565E+02 -0.18739892639E+02  0.27028417871E+02  0.51100000000E-03 0.  1.
         12    1    4    4    0    0  0.86118198512E+01  0.43353531047E+01 -0.37707512663E+01  0.10352646657E+02  0.00000000000E+00 0. -1.
</event>
<event>
 8    1  0.2512298E-006  0.9118800E+02  0.7816164E-02  0.1184000E+00
        -11   -1    0    0    0    0  0.00000000000E+00  0.00000000000E+00  0.45593999997E+02  0.45594000000E+02  0.51100000000E-03 0. -1.
         11   -1    0    0    0    0 -0.00000000000E+00 -0.00000000000E+00 -0.45593999997E+02  0.45594000000E+02  0.51100000000E-03 0.  1.
         23    2    1    2    0    0 -0.27755575616E-15  0.17763568394E-14  0.71054273576E-14  0.91188000000E+02  0.91188000000E+02 0.  0.
    9900012    2    3    3    0    0 -0.37763019673E+00  0.95614531447E+01 -0.35555811831E+02  0.54367085485E+02  0.40000002980E+02 0.  0.
         12    1    3    3    0    0  0.37763019673E+00 -0.95614531447E+01  0.35555811831E+02  0.36820914515E+02  0.00000000000E+00 0. -1.
         11    1    4    4    0    0  0.61142192040E+01 -0.42369013459E+01 -0.25873168300E+01  0.78758630086E+01  0.51100000000E-03 0. -1.
        -11    1    4    4    0    0  0.35586397000E+01  0.16307182473E+02 -0.31994672273E+02  0.36086661951E+02  0.51100000000E-03 0.  1.
         12    1    4    4    0    0 -0.10050489101E+02 -0.25088279820E+01 -0.97382272811E+00  0.10404560525E+02  0.00000000000E+00 0. -1.
</event>
<event>
 8    1  0.2512298E-006  0.9118800E+02  0.7816164E-02  0.1184000E+00
        -11   -1    0    0    0    0  0.00000000000E+00  0.00000000000E+00  0.45593999997E+02  0.45594000000E+02  0.51100000000E-03 0. -1.
         11   -1    0    0    0    0 -0.00000000000E+00 -0.00000000000E+00 -0.45593999997E+02  0.45594000000E+02  0.51100000000E-03 0.  1.
         23    2    1    2    0    0  0.35527136788E-14  0.88817841970E-15  0.00000000000E+00  0.91188000000E+02  0.91188000000E+02 0.  0.
    9900012    2    3    3    0    0 -0.29371822916E+02  0.79632326506E+01 -0.20728086159E+02  0.54367209522E+02  0.40000285746E+02 0.  0.
         12    1    3    3    0    0  0.29371822916E+02 -0.79632326506E+01  0.20728086159E+02  0.36820790478E+02  0.00000000000E+00 0. -1.
         11    1    4    4    0    0 -0.19567123147E+02 -0.49196558514E+01  0.27501776409E+01  0.20362681534E+02  0.51100000000E-03 0. -1.
        -11    1    4    4    0    0 -0.14829519052E+01  0.43799838631E+01 -0.21440825128E+02  0.21933818351E+02  0.51100000000E-03 0.  1.
        -12    1    4    4    0    0 -0.83217478638E+01  0.85029046389E+01 -0.20374386713E+01  0.12070709637E+02  0.00000000000E+00 0.  1.
</event>
<event>
 8    1  0.2512298E-006  0.9118800E+02  0.7816164E-02  0.1184000E+00
        -11   -1    0    0    0    0  0.00000000000E+00  0.00000000000E+00  0.45593999997E+02  0.45594000000E+02  0.51100000000E-03 0.  1.
         11   -1    0    0    0    0 -0.00000000000E+00 -0.00000000000E+00 -0.45593999997E+02  0.45594000000E+02  0.51100000000E-03 0. -1.
         23    2    1    2    0    0 -0.35527136788E-14  0.00000000000E+00  0.00000000000E+00  0.91188000000E+02  0.91188000000E+02 0.  0.
    9900012    2    3    3    0    0 -0.27133645453E+02  0.16239750305E+02  0.18863075466E+02  0.54367084455E+02  0.40000000633E+02 0.  0.
         12    1    3    3    0    0  0.27133645453E+02 -0.16239750305E+02 -0.18863075466E+02  0.36820915545E+02  0.00000000000E+00 0. -1.
         11    1    4    4    0    0 -0.14806256575E+02  0.11166317770E+02  0.22046715599E+02  0.28809192202E+02  0.51100000000E-03 0. -1.
        -11    1    4    4    0    0 -0.12134355295E+02 -0.30213818146E+01  0.55210729603E+01  0.13669439395E+02  0.51100000000E-03 0.  1.
         12    1    4    4    0    0 -0.19303358247E+00  0.80948143493E+01 -0.87047130941E+01  0.11888452858E+02  0.00000000000E+00 0. -1.
</event>
<event>
 8    1  0.2512298E-006  0.9118800E+02  0.7816164E-02  0.1184000E+00
        -11   -1    0    0    0    0  0.00000000000E+00  0.00000000000E+00  0.45593999997E+02  0.45594000000E+02  0.51100000000E-03 0.  1.
         11   -1    0    0    0    0 -0.00000000000E+00 -0.00000000000E+00 -0.45593999997E+02  0.45594000000E+02  0.51100000000E-03 0. -1.
         23    2    1    2    0    0  0.00000000000E+00 -0.88817841970E-15  0.00000000000E+00  0.91188000000E+02  0.91188000000E+02 0.  0.
    9900012    2    3    3    0    0  0.34723162750E+02  0.51013027361E+01  0.11138142143E+02  0.54367088396E+02  0.40000009617E+02 0.  0.
         12    1    3    3    0    0 -0.34723162750E+02 -0.51013027361E+01 -0.11138142143E+02  0.36820911604E+02  0.00000000000E+00 0. -1.
         11    1    4    4    0    0  0.11598087802E+02 -0.23767845827E+01 -0.12762018049E+02  0.17407867490E+02  0.51100000000E-03 0. -1.
        -11    1    4    4    0    0  0.78958698426E+01  0.59951939049E+01  0.18019773745E+02  0.20566948159E+02  0.51100000000E-03 0.  1.
        -12    1    4    4    0    0  0.15229205105E+02  0.14828934139E+01  0.58803864480E+01  0.16392272746E+02  0.00000000000E+00 0.  1.
</event>
<event>
 8    1  0.2512298E-006  0.9118800E+02  0.7816164E-02  0.1184000E+00
        -11   -1    0    0    0    0  0.00000000000E+00  0.00000000000E+00  0.45593999997E+02  0.45594000000E+02  0.51100000000E-03 0.  1.
         11   -1    0    0    0    0 -0.00000000000E+00 -0.00000000000E+00 -0.45593999997E+02  0.45594000000E+02  0.51100000000E-03 0. -1.
         23    2    1    2    0    0  0.88817841970E-15  0.35527136788E-14 -0.35527136788E-14  0.91188000000E+02  0.91188000000E+02 0.  0.
    9900012    2    3    3    0    0 -0.40428672648E+01 -0.25813619045E+02 -0.25944027851E+02  0.54367078161E+02  0.39999986283E+02 0.  0.
        -12    1    3    3    0    0  0.40428672648E+01  0.25813619045E+02  0.25944027851E+02  0.36820921839E+02  0.00000000000E+00 0.  1.
         11    1    4    4    0    0 -0.31403387507E+01 -0.26514669439E+02  0.58825206871E+00  0.26706468574E+02  0.51100000000E-03 0. -1.
        -11    1    4    4    0    0 -0.25846897433E+01  0.22804130273E+01 -0.54237955325E+01  0.64263880122E+01  0.51100000000E-03 0.  1.
         12    1    4    4    0    0  0.16821612293E+01 -0.15793626338E+01 -0.21108484388E+02  0.21234221575E+02  0.00000000000E+00 0. -1.
</event>
<event>
 8    1  0.2512298E-006  0.9118800E+02  0.7816164E-02  0.1184000E+00
        -11   -1    0    0    0    0  0.00000000000E+00  0.00000000000E+00  0.45593999997E+02  0.45594000000E+02  0.51100000000E-03 0.  1.
         11   -1    0    0    0    0 -0.00000000000E+00 -0.00000000000E+00 -0.45593999997E+02  0.45594000000E+02  0.51100000000E-03 0. -1.
         23    2    1    2    0    0  0.00000000000E+00  0.00000000000E+00  0.00000000000E+00  0.91188000000E+02  0.91188000000E+02 0.  0.
    9900012    2    3    3    0    0  0.18179317630E+02 -0.20560770105E+02  0.24546788804E+02  0.54367113300E+02  0.40000066390E+02 0.  0.
         12    1    3    3    0    0 -0.18179317630E+02  0.20560770105E+02 -0.24546788804E+02  0.36820886700E+02  0.00000000000E+00 0. -1.
         11    1    4    4    0    0  0.18000869545E+01  0.55862560083E+01  0.17683914738E+01  0.61297453373E+01  0.51100000000E-03 0. -1.
        -11    1    4    4    0    0 -0.16750488855E+01 -0.16125297201E+02 -0.15978782953E+01  0.16290617358E+02  0.51100000000E-03 0.  1.
         12    1    4    4    0    0  0.18054279561E+02 -0.10021728913E+02  0.24376275625E+02  0.31946750605E+02  0.00000000000E+00 0. -1.
</event>
<event>
 8    1  0.2512298E-006  0.9118800E+02  0.7816164E-02  0.1184000E+00
        -11   -1    0    0    0    0  0.00000000000E+00  0.00000000000E+00  0.45593999997E+02  0.45594000000E+02  0.51100000000E-03 0.  1.
         11   -1    0    0    0    0 -0.00000000000E+00 -0.00000000000E+00 -0.45593999997E+02  0.45594000000E+02  0.51100000000E-03 0. -1.
         23    2    1    2    0    0 -0.17763568394E-14 -0.35527136788E-14 -0.35527136788E-14  0.91188000000E+02  0.91188000000E+02 0.  0.
    9900012    2    3    3    0    0 -0.13097330568E+02 -0.19036251523E+02 -0.28668138417E+02  0.54367067091E+02  0.39999961046E+02 0.  0.
        -12    1    3    3    0    0  0.13097330568E+02  0.19036251523E+02  0.28668138417E+02  0.36820932909E+02  0.00000000000E+00 0.  1.
         11    1    4    4    0    0 -0.92127140816E+01  0.13941724026E+01 -0.71253089298E+01  0.11729784527E+02  0.51100000000E-03 0. -1.
        -11    1    4    4    0    0 -0.14404200496E+02 -0.10949166185E+02 -0.21979665297E+02  0.28468770941E+02  0.51100000000E-03 0.  1.
        -12    1    4    4    0    0  0.10519584010E+02 -0.94812577402E+01  0.43683580980E+00  0.14168511623E+02  0.00000000000E+00 0.  1.
</event>
<event>
 8    1  0.2512298E-006  0.9118800E+02  0.7816164E-02  0.1184000E+00
        -11   -1    0    0    0    0  0.00000000000E+00  0.00000000000E+00  0.45593999997E+02  0.45594000000E+02  0.51100000000E-03 0.  1.
         11   -1    0    0    0    0 -0.00000000000E+00 -0.00000000000E+00 -0.45593999997E+02  0.45594000000E+02  0.51100000000E-03 0. -1.
         23    2    1    2    0    0  0.00000000000E+00  0.00000000000E+00  0.71054273576E-14  0.91188000000E+02  0.91188000000E+02 0.  0.
    9900012    2    3    3    0    0  0.11852494851E+02  0.38573699553E+01 -0.34647098767E+02  0.54367049576E+02  0.39999921118E+02 0.  0.
        -12    1    3    3    0    0 -0.11852494851E+02 -0.38573699553E+01  0.34647098767E+02  0.36820950424E+02  0.00000000000E+00 0.  1.
         11    1    4    4    0    0  0.28886279901E+00  0.22802291691E+01 -0.27684847526E+02  0.27780094845E+02  0.51100000000E-03 0. -1.
        -11    1    4    4    0    0  0.12277486515E+02  0.85682663462E+01 -0.10911327066E+02  0.18525898680E+02  0.51100000000E-03 0.  1.
         12    1    4    4    0    0 -0.71385446317E+00 -0.69911255600E+01  0.39490758248E+01  0.80610560512E+01  0.00000000000E+00 0. -1.
</event>
<event>
 8    1  0.2512298E-006  0.9118800E+02  0.7816164E-02  0.1184000E+00
        -11   -1    0    0    0    0  0.00000000000E+00  0.00000000000E+00  0.45593999997E+02  0.45594000000E+02  0.51100000000E-03 0.  1.
         11   -1    0    0    0    0 -0.00000000000E+00 -0.00000000000E+00 -0.45593999997E+02  0.45594000000E+02  0.51100000000E-03 0. -1.
         23    2    1    2    0    0 -0.26645352591E-14 -0.17763568394E-14  0.00000000000E+00  0.91188000000E+02  0.91188000000E+02 0.  0.
    9900012    2    3    3    0    0  0.30397258271E+01  0.59922064248E+01  0.36202678679E+02  0.54367076404E+02  0.39999982277E+02 0.  0.
         12    1    3    3    0    0 -0.30397258271E+01 -0.59922064248E+01 -0.36202678679E+02  0.36820923596E+02  0.00000000000E+00 0. -1.
         11    1    4    4    0    0  0.17312068322E+02 -0.37118771058E+01  0.49021190107E+01  0.18371622473E+02  0.51100000000E-03 0. -1.
        -11    1    4    4    0    0 -0.13571224326E+02  0.90185878902E+01  0.30906139892E+02  0.34938553784E+02  0.51100000000E-03 0.  1.
         12    1    4    4    0    0 -0.70111816905E+00  0.68549564032E+00  0.39441977684E+00  0.10569001468E+01  0.00000000000E+00 0. -1.
</event>
<event>
 8    1  0.2512298E-006  0.9118800E+02  0.7816164E-02  0.1184000E+00
        -11   -1    0    0    0    0  0.00000000000E+00  0.00000000000E+00  0.45593999997E+02  0.45594000000E+02  0.51100000000E-03 0.  1.
         11   -1    0    0    0    0 -0.00000000000E+00 -0.00000000000E+00 -0.45593999997E+02  0.45594000000E+02  0.51100000000E-03 0. -1.
         23    2    1    2    0    0 -0.17763568394E-14 -0.35527136788E-14  0.00000000000E+00  0.91188000000E+02  0.91188000000E+02 0.  0.
    9900012    2    3    3    0    0 -0.11956840149E+02  0.24150805935E+02 -0.25090885701E+02  0.54367082047E+02  0.39999995142E+02 0.  0.
        -12    1    3    3    0    0  0.11956840149E+02 -0.24150805935E+02  0.25090885701E+02  0.36820917953E+02  0.00000000000E+00 0.  1.
         11    1    4    4    0    0 -0.21044847488E+01  0.11921373056E+02  0.73292198014E+01  0.14151517754E+02  0.51100000000E-03 0. -1.
        -11    1    4    4    0    0 -0.28735396606E+01 -0.42488833808E+01 -0.35108816990E+01  0.62158290461E+01  0.51100000000E-03 0.  1.
         12    1    4    4    0    0 -0.69788157399E+01  0.16478316260E+02 -0.28909223804E+02  0.33999735246E+02  0.00000000000E+00 0. -1.
</event>
<event>
 8    1  0.2512298E-006  0.9118800E+02  0.7816164E-02  0.1184000E+00
        -11   -1    0    0    0    0  0.00000000000E+00  0.00000000000E+00  0.45593999997E+02  0.45594000000E+02  0.51100000000E-03 0.  1.
         11   -1    0    0    0    0 -0.00000000000E+00 -0.00000000000E+00 -0.45593999997E+02  0.45594000000E+02  0.51100000000E-03 0. -1.
         23    2    1    2    0    0 -0.35527136788E-14  0.00000000000E+00  0.88817841970E-15  0.91188000000E+02  0.91188000000E+02 0.  0.
    9900012    2    3    3    0    0 -0.24425956979E+02  0.26522120340E+02 -0.74652292162E+01  0.54367083540E+02  0.39999998546E+02 0.  0.
        -12    1    3    3    0    0  0.24425956979E+02 -0.26522120340E+02  0.74652292162E+01  0.36820916460E+02  0.00000000000E+00 0.  1.
         11    1    4    4    0    0 -0.12848799195E+02  0.29303464344E+02 -0.10646712368E+02  0.33721464201E+02  0.51100000000E-03 0. -1.
        -11    1    4    4    0    0 -0.14869604155E+02  0.75870757223E+00  0.46412260360E+01  0.15595568097E+02  0.51100000000E-03 0.  1.
         12    1    4    4    0    0  0.32924463700E+01 -0.35400515762E+01 -0.14597428842E+01  0.50500512422E+01  0.00000000000E+00 0. -1.
</event>
<event>
 8    1  0.2512298E-006  0.9118800E+02  0.7816164E-02  0.1184000E+00
        -11   -1    0    0    0    0  0.00000000000E+00  0.00000000000E+00  0.45593999997E+02  0.45594000000E+02  0.51100000000E-03 0.  1.
         11   -1    0    0    0    0 -0.00000000000E+00 -0.00000000000E+00 -0.45593999997E+02  0.45594000000E+02  0.51100000000E-03 0. -1.
         23    2    1    2    0    0 -0.44408920985E-15 -0.35527136788E-14 -0.71054273576E-14  0.91188000000E+02  0.91188000000E+02 0.  0.
    9900012    2    3    3    0    0 -0.21018214990E+01  0.31414253744E+02  0.19092091067E+02  0.54367069360E+02  0.39999966219E+02 0.  0.
        -12    1    3    3    0    0  0.21018214990E+01 -0.31414253744E+02 -0.19092091067E+02  0.36820930640E+02  0.00000000000E+00 0.  1.
         11    1    4    4    0    0 -0.11061675027E+02  0.32617024272E+01  0.14625995107E+01  0.11624910955E+02  0.51100000000E-03 0. -1.
        -11    1    4    4    0    0  0.24056669159E+00  0.11553653047E+02  0.20734253763E+02  0.23737187079E+02  0.51100000000E-03 0.  1.
         12    1    4    4    0    0  0.87192868362E+01  0.16598898270E+02 -0.31047622071E+01  0.19004971325E+02  0.00000000000E+00 0. -1.
</event>
<event>
 8    1  0.2512298E-006  0.9118800E+02  0.7816164E-02  0.1184000E+00
        -11   -1    0    0    0    0  0.00000000000E+00  0.00000000000E+00  0.45593999997E+02  0.45594000000E+02  0.51100000000E-03 0. -1.
         11   -1    0    0    0    0 -0.00000000000E+00 -0.00000000000E+00 -0.45593999997E+02  0.45594000000E+02  0.51100000000E-03 0.  1.
         23    2    1    2    0    0  0.35527136788E-14 -0.35527136788E-14  0.00000000000E+00  0.91188000000E+02  0.91188000000E+02 0.  0.
    9900012    2    3    3    0    0 -0.27070296578E+02  0.19716755161E+02 -0.15304533331E+02  0.54367080248E+02  0.39999991040E+02 0.  0.
        -12    1    3    3    0    0  0.27070296578E+02 -0.19716755161E+02  0.15304533331E+02  0.36820919752E+02  0.00000000000E+00 0.  1.
         11    1    4    4    0    0 -0.63209840044E+01 -0.22836452624E+01  0.55852522039E+01  0.87387022440E+01  0.51100000000E-03 0. -1.
        -11    1    4    4    0    0  0.56180005694E+01 -0.34547668642E+00 -0.52310457777E+01  0.76840825560E+01  0.51100000000E-03 0.  1.
         12    1    4    4    0    0 -0.26367313143E+02  0.22345877110E+02 -0.15658739757E+02  0.37944295447E+02  0.00000000000E+00 0. -1.
</event>
<event>
 8    1  0.2512298E-006  0.9118800E+02  0.7816164E-02  0.1184000E+00
        -11   -1    0    0    0    0  0.00000000000E+00  0.00000000000E+00  0.45593999997E+02  0.45594000000E+02  0.51100000000E-03 0.  1.
         11   -1    0    0    0    0 -0.00000000000E+00 -0.00000000000E+00 -0.45593999997E+02  0.45594000000E+02  0.51100000000E-03 0. -1.
         23    2    1    2    0    0 -0.35527136788E-14  0.00000000000E+00  0.00000000000E+00  0.91188000000E+02  0.91188000000E+02 0.  0.
    9900012    2    3    3    0    0 -0.17870281361E+02  0.82791255047E+00 -0.32183030661E+02  0.54367083965E+02  0.39999999515E+02 0.  0.
        -12    1    3    3    0    0  0.17870281361E+02 -0.82791255047E+00  0.32183030661E+02  0.36820916035E+02  0.00000000000E+00 0.  1.
         11    1    4    4    0    0 -0.17496095203E+02  0.11026812913E+02 -0.27943327347E+02  0.34763968327E+02  0.51100000000E-03 0. -1.
        -11    1    4    4    0    0 -0.17597743006E+01  0.16760786194E-02 -0.83390219050E+01  0.85226812091E+01  0.51100000000E-03 0.  1.
        -12    1    4    4    0    0  0.13855881426E+01 -0.10200576441E+02  0.40993185906E+01  0.11080434429E+02  0.00000000000E+00 0.  1.
</event>
<event>
 8    1  0.2512298E-006  0.9118800E+02  0.7816164E-02  0.1184000E+00
        -11   -1    0    0    0    0  0.00000000000E+00  0.00000000000E+00  0.45593999997E+02  0.45594000000E+02  0.51100000000E-03 0.  1.
         11   -1    0    0    0    0 -0.00000000000E+00 -0.00000000000E+00 -0.45593999997E+02  0.45594000000E+02  0.51100000000E-03 0. -1.
         23    2    1    2    0    0 -0.35527136788E-14 -0.35527136788E-14 -0.17763568394E-14  0.91188000000E+02  0.91188000000E+02 0.  0.
    9900012    2    3    3    0    0 -0.23773452875E+02 -0.27360903142E+02 -0.64794963419E+01  0.54367082641E+02  0.39999996496E+02 0.  0.
         12    1    3    3    0    0  0.23773452875E+02  0.27360903142E+02  0.64794963419E+01  0.36820917359E+02  0.00000000000E+00 0. -1.
         11    1    4    4    0    0 -0.80469981236E+01 -0.45762066049E+01 -0.14891597029E+02  0.17534409258E+02  0.51100000000E-03 0. -1.
        -11    1    4    4    0    0  0.13489676953E+01  0.22703637414E+01  0.58327687793E+01  0.64027694988E+01  0.51100000000E-03 0.  1.
        -12    1    4    4    0    0 -0.17075422447E+02 -0.25055060278E+02  0.25793319079E+01  0.30429903884E+02  0.00000000000E+00 0.  1.
</event>
<event>
 8    1  0.2512298E-006  0.9118800E+02  0.7816164E-02  0.1184000E+00
        -11   -1    0    0    0    0  0.00000000000E+00  0.00000000000E+00  0.45593999997E+02  0.45594000000E+02  0.51100000000E-03 0.  1.
         11   -1    0    0    0    0 -0.00000000000E+00 -0.00000000000E+00 -0.45593999997E+02  0.45594000000E+02  0.51100000000E-03 0. -1.
         23    2    1    2    0    0  0.00000000000E+00  0.00000000000E+00  0.44408920985E-15  0.91188000000E+02  0.91188000000E+02 0.  0.
    9900012    2    3    3    0    0  0.17736943945E+02 -0.32038428568E+02  0.38364974885E+01  0.54367098346E+02  0.40000032300E+02 0.  0.
         12    1    3    3    0    0 -0.17736943945E+02  0.32038428568E+02 -0.38364974885E+01  0.36820901654E+02  0.00000000000E+00 0. -1.
         11    1    4    4    0    0 -0.47780120708E+01  0.62796683572E+01  0.71850981434E+00  0.79233762147E+01  0.51100000000E-03 0. -1.
        -11    1    4    4    0    0  0.18424249019E+01 -0.61121721077E+01  0.50282871178E+01  0.81263059870E+01  0.51100000000E-03 0.  1.
        -12    1    4    4    0    0  0.20672531114E+02 -0.32205924817E+02 -0.19102994437E+01  0.38317416144E+02  0.00000000000E+00 0.  1.
</event>
<event>
 8    1  0.2512298E-006  0.9118800E+02  0.7816164E-02  0.1184000E+00
        -11   -1    0    0    0    0  0.00000000000E+00  0.00000000000E+00  0.45593999997E+02  0.45594000000E+02  0.51100000000E-03 0. -1.
         11   -1    0    0    0    0 -0.00000000000E+00 -0.00000000000E+00 -0.45593999997E+02  0.45594000000E+02  0.51100000000E-03 0.  1.
         23    2    1    2    0    0 -0.71054273576E-14 -0.53290705182E-14  0.44408920985E-15  0.91188000000E+02  0.91188000000E+02 0.  0.
    9900012    2    3    3    0    0 -0.34115221930E+02 -0.13661296750E+02  0.23015177032E+01  0.54367131189E+02  0.40000107173E+02 0.  0.
        -12    1    3    3    0    0  0.34115221930E+02  0.13661296750E+02 -0.23015177032E+01  0.36820868811E+02  0.00000000000E+00 0.  1.
         11    1    4    4    0    0 -0.12665455580E+02 -0.19612874808E+02 -0.48972813703E+00  0.23352054667E+02  0.51100000000E-03 0. -1.
        -11    1    4    4    0    0 -0.32854490971E+01  0.44399185549E+01  0.99921546573E+01  0.11417101537E+02  0.51100000000E-03 0.  1.
        -12    1    4    4    0    0 -0.18164317253E+02  0.15116595036E+01 -0.72009088170E+01  0.19597974985E+02  0.00000000000E+00 0.  1.
</event>
<event>
 8    1  0.2512298E-006  0.9118800E+02  0.7816164E-02  0.1184000E+00
        -11   -1    0    0    0    0  0.00000000000E+00  0.00000000000E+00  0.45593999997E+02  0.45594000000E+02  0.51100000000E-03 0.  1.
         11   -1    0    0    0    0 -0.00000000000E+00 -0.00000000000E+00 -0.45593999997E+02  0.45594000000E+02  0.51100000000E-03 0. -1.
         23    2    1    2    0    0  0.00000000000E+00  0.00000000000E+00  0.00000000000E+00  0.91188000000E+02  0.91188000000E+02 0.  0.
    9900012    2    3    3    0    0 -0.11890506674E+02  0.18699219903E+02 -0.29406488900E+02  0.54366992907E+02  0.39999791930E+02 0.  0.
        -12    1    3    3    0    0  0.11890506674E+02 -0.18699219903E+02  0.29406488900E+02  0.36821007093E+02  0.00000000000E+00 0.  1.
         11    1    4    4    0    0  0.14154552147E+01 -0.20262629464E+01 -0.23241295353E+02  0.23372356855E+02  0.51100000000E-03 0. -1.
        -11    1    4    4    0    0 -0.88885665996E+01  0.39221576609E+01  0.43944833089E+01  0.10663086829E+02  0.51100000000E-03 0.  1.
        -12    1    4    4    0    0 -0.44173952888E+01  0.16803325188E+02 -0.10559676855E+02  0.20331549223E+02  0.00000000000E+00 0.  1.
</event>
<event>
 8    1  0.2512298E-006  0.9118800E+02  0.7816164E-02  0.1184000E+00
        -11   -1    0    0    0    0  0.00000000000E+00  0.00000000000E+00  0.45593999997E+02  0.45594000000E+02  0.51100000000E-03 0.  1.
         11   -1    0    0    0    0 -0.00000000000E+00 -0.00000000000E+00 -0.45593999997E+02  0.45594000000E+02  0.51100000000E-03 0. -1.
         23    2    1    2    0    0  0.00000000000E+00  0.26645352591E-14  0.00000000000E+00  0.91188000000E+02  0.91188000000E+02 0.  0.
    9900012    2    3    3    0    0 -0.35755896074E+02 -0.29611376091E+01 -0.82781530858E+01  0.54367078522E+02  0.39999987106E+02 0.  0.
        -12    1    3    3    0    0  0.35755896074E+02  0.29611376091E+01  0.82781530858E+01  0.36820921478E+02  0.00000000000E+00 0.  1.
         11    1    4    4    0    0 -0.95590686924E+01 -0.94344891713E+01 -0.19733784137E+01  0.13574962350E+02  0.51100000000E-03 0. -1.
        -11    1    4    4    0    0 -0.77116036585E+01 -0.11493884156E+02  0.13351835601E+01  0.13905427695E+02  0.51100000000E-03 0.  1.
        -12    1    4    4    0    0 -0.18485223723E+02  0.17967235718E+02 -0.76399582322E+01  0.26886688476E+02  0.00000000000E+00 0.  1.
</event>
<event>
 8    1  0.2512298E-006  0.9118800E+02  0.7816164E-02  0.1184000E+00
        -11   -1    0    0    0    0  0.00000000000E+00  0.00000000000E+00  0.45593999997E+02  0.45594000000E+02  0.51100000000E-03 0. -1.
         11   -1    0    0    0    0 -0.00000000000E+00 -0.00000000000E+00 -0.45593999997E+02  0.45594000000E+02  0.51100000000E-03 0.  1.
         23    2    1    2    0    0  0.00000000000E+00  0.00000000000E+00 -0.35527136788E-14  0.91188000000E+02  0.91188000000E+02 0.  0.
    9900012    2    3    3    0    0 -0.23111925078E+02 -0.17874055775E+02 -0.22408462614E+02  0.54367052873E+02  0.39999928633E+02 0.  0.
         12    1    3    3    0    0  0.23111925078E+02  0.17874055775E+02  0.22408462614E+02  0.36820947127E+02  0.00000000000E+00 0. -1.
         11    1    4    4    0    0  0.16758810068E+01  0.53551580681E+01 -0.79003101441E+01  0.96902629334E+01  0.51100000000E-03 0. -1.
        -11    1    4    4    0    0 -0.28320109094E+02 -0.21679606186E+02 -0.71591541360E+01  0.36377017355E+02  0.51100000000E-03 0.  1.
        -12    1    4    4    0    0  0.35323030090E+01 -0.15496076575E+01 -0.73489983335E+01  0.82997725840E+01  0.00000000000E+00 0.  1.
</event>
<event>
 8    1  0.2512298E-006  0.9118800E+02  0.7816164E-02  0.1184000E+00
        -11   -1    0    0    0    0  0.00000000000E+00  0.00000000000E+00  0.45593999997E+02  0.45594000000E+02  0.51100000000E-03 0.  1.
         11   -1    0    0    0    0 -0.00000000000E+00 -0.00000000000E+00 -0.45593999997E+02  0.45594000000E+02  0.51100000000E-03 0. -1.
         23    2    1    2    0    0  0.00000000000E+00  0.00000000000E+00  0.17763568394E-14  0.91188000000E+02  0.91188000000E+02 0.  0.
    9900012    2    3    3    0    0 -0.28603415124E+02 -0.20730774433E+02 -0.10385334760E+02  0.54367142549E+02  0.40000133068E+02 0.  0.
         12    1    3    3    0    0  0.28603415124E+02  0.20730774433E+02  0.10385334760E+02  0.36820857451E+02  0.00000000000E+00 0. -1.
         11    1    4    4    0    0 -0.14089342776E+02 -0.19391859658E+02 -0.19198789531E+02  0.30710703680E+02  0.51100000000E-03 0.  1.
        -11    1    4    4    0    0  0.13934542905E+01 -0.34860757107E+01 -0.20467539387E+01  0.42759374021E+01  0.51100000000E-03 0. -1.
         12    1    4    4    0    0 -0.15907526639E+02  0.21471609351E+01  0.10860208710E+02  0.19380501466E+02  0.00000000000E+00 0. -1.
</event>
<event>
 8    1  0.2512298E-006  0.9118800E+02  0.7816164E-02  0.1184000E+00
        -11   -1    0    0    0    0  0.00000000000E+00  0.00000000000E+00  0.45593999997E+02  0.45594000000E+02  0.51100000000E-03 0.  1.
         11   -1    0    0    0    0 -0.00000000000E+00 -0.00000000000E+00 -0.45593999997E+02  0.45594000000E+02  0.51100000000E-03 0. -1.
         23    2    1    2    0    0  0.00000000000E+00 -0.71054273576E-14 -0.17763568394E-14  0.91188000000E+02  0.91188000000E+02 0.  0.
    9900012    2    3    3    0    0  0.51430166480E+01  0.32956952119E+02  0.15593850266E+02  0.54367089102E+02  0.40000011226E+02 0.  0.
        -12    1    3    3    0    0 -0.51430166480E+01 -0.32956952119E+02 -0.15593850266E+02  0.36820910898E+02  0.00000000000E+00 0.  1.
         11    1    4    4    0    0 -0.58691249283E+01  0.31968734248E+02  0.17377970955E+02  0.36857027439E+02  0.51100000000E-03 0. -1.
        -11    1    4    4    0    0  0.32888193406E+01  0.64576741162E+01 -0.32340012596E+01  0.79357830146E+01  0.51100000000E-03 0.  1.
        -12    1    4    4    0    0  0.77233222357E+01 -0.54694562451E+01  0.14498805704E+01  0.95742786487E+01  0.00000000000E+00 0.  1.
</event>
<event>
 8    1  0.2512298E-006  0.9118800E+02  0.7816164E-02  0.1184000E+00
        -11   -1    0    0    0    0  0.00000000000E+00  0.00000000000E+00  0.45593999997E+02  0.45594000000E+02  0.51100000000E-03 0.  1.
         11   -1    0    0    0    0 -0.00000000000E+00 -0.00000000000E+00 -0.45593999997E+02  0.45594000000E+02  0.51100000000E-03 0. -1.
         23    2    1    2    0    0  0.00000000000E+00  0.88817841970E-15  0.00000000000E+00  0.91188000000E+02  0.91188000000E+02 0.  0.
    9900012    2    3    3    0    0  0.26869885860E+02  0.46650626241E+01  0.24739182171E+02  0.54367072392E+02  0.39999973133E+02 0.  0.
         12    1    3    3    0    0 -0.26869885860E+02 -0.46650626241E+01 -0.24739182171E+02  0.36820927608E+02  0.00000000000E+00 0. -1.
         11    1    4    4    0    0  0.13827976753E+02  0.76796176280E+01  0.14200761438E+02  0.21256789354E+02  0.51100000000E-03 0. -1.
        -11    1    4    4    0    0  0.80976371095E+01 -0.28993186518E+01  0.20366394502E+02  0.22108093556E+02  0.51100000000E-03 0.  1.
         12    1    4    4    0    0  0.49442719978E+01 -0.11523635209E+00 -0.98279737686E+01  0.11002189482E+02  0.00000000000E+00 0. -1.
</event>
<event>
 8    1  0.2512298E-006  0.9118800E+02  0.7816164E-02  0.1184000E+00
        -11   -1    0    0    0    0  0.00000000000E+00  0.00000000000E+00  0.45593999997E+02  0.45594000000E+02  0.51100000000E-03 0. -1.
         11   -1    0    0    0    0 -0.00000000000E+00 -0.00000000000E+00 -0.45593999997E+02  0.45594000000E+02  0.51100000000E-03 0.  1.
         23    2    1    2    0    0  0.00000000000E+00 -0.13322676296E-14  0.00000000000E+00  0.91188000000E+02  0.91188000000E+02 0.  0.
    9900012    2    3    3    0    0  0.84707383925E+01  0.10507658680E+01 -0.35817877020E+02  0.54367111471E+02  0.40000062221E+02 0.  0.
         12    1    3    3    0    0 -0.84707383925E+01 -0.10507658680E+01  0.35817877020E+02  0.36820888529E+02  0.00000000000E+00 0. -1.
         11    1    4    4    0    0 -0.64933251343E+01  0.40705431132E+01 -0.16327649333E+02  0.18036760395E+02  0.51100000000E-03 0.  1.
        -11    1    4    4    0    0  0.60518871928E+01  0.98052761277E+01 -0.16967822754E+02  0.20510382439E+02  0.51100000000E-03 0. -1.
         12    1    4    4    0    0  0.89121763340E+01 -0.12825053373E+02 -0.25224049325E+01  0.15819968637E+02  0.00000000000E+00 0. -1.
</event>
<event>
 8    1  0.2512298E-006  0.9118800E+02  0.7816164E-02  0.1184000E+00
        -11   -1    0    0    0    0  0.00000000000E+00  0.00000000000E+00  0.45593999997E+02  0.45594000000E+02  0.51100000000E-03 0. -1.
         11   -1    0    0    0    0 -0.00000000000E+00 -0.00000000000E+00 -0.45593999997E+02  0.45594000000E+02  0.51100000000E-03 0.  1.
         23    2    1    2    0    0 -0.35527136788E-14 -0.35527136788E-14 -0.35527136788E-14  0.91188000000E+02  0.91188000000E+02 0.  0.
    9900012    2    3    3    0    0  0.17240408380E+02 -0.16746688354E+02 -0.27894374046E+02  0.54367090786E+02  0.40000015064E+02 0.  0.
         12    1    3    3    0    0 -0.17240408380E+02  0.16746688354E+02  0.27894374046E+02  0.36820909214E+02  0.00000000000E+00 0. -1.
         11    1    4    4    0    0 -0.30750306190E+01 -0.16243831572E+02  0.11215727060E+01  0.16570328996E+02  0.51100000000E-03 0. -1.
        -11    1    4    4    0    0  0.17399268091E+01 -0.42192955883E+01 -0.24842920760E+01  0.51962975225E+01  0.51100000000E-03 0.  1.
        -12    1    4    4    0    0  0.18575512190E+02  0.37164388068E+01 -0.26531654676E+02  0.32600464267E+02  0.00000000000E+00 0.  1.
</event>
<event>
 8    1  0.2512298E-006  0.9118800E+02  0.7816164E-02  0.1184000E+00
        -11   -1    0    0    0    0  0.00000000000E+00  0.00000000000E+00  0.45593999997E+02  0.45594000000E+02  0.51100000000E-03 0. -1.
         11   -1    0    0    0    0 -0.00000000000E+00 -0.00000000000E+00 -0.45593999997E+02  0.45594000000E+02  0.51100000000E-03 0.  1.
         23    2    1    2    0    0 -0.35527136788E-14 -0.44408920985E-15  0.35527136788E-14  0.91188000000E+02  0.91188000000E+02 0.  0.
    9900012    2    3    3    0    0 -0.25630618272E+02 -0.22461453785E+01  0.26340287677E+02  0.54367020695E+02  0.39999855278E+02 0.  0.
        -12    1    3    3    0    0  0.25630618272E+02  0.22461453785E+01 -0.26340287677E+02  0.36820979305E+02  0.00000000000E+00 0.  1.
         11    1    4    4    0    0 -0.33219583626E+02 -0.50436316462E+01  0.21370554956E+02  0.39820592359E+02  0.51100000000E-03 0. -1.
        -11    1    4    4    0    0  0.49340655960E+01 -0.18889581889E+01 -0.20770480766E+01  0.56769089581E+01  0.51100000000E-03 0.  1.
        -12    1    4    4    0    0  0.26548997577E+01  0.46864444566E+01  0.70467807979E+01  0.88695193772E+01  0.00000000000E+00 0.  1.
</event>
<event>
 8    1  0.2512298E-006  0.9118800E+02  0.7816164E-02  0.1184000E+00
        -11   -1    0    0    0    0  0.00000000000E+00  0.00000000000E+00  0.45593999997E+02  0.45594000000E+02  0.51100000000E-03 0. -1.
         11   -1    0    0    0    0 -0.00000000000E+00 -0.00000000000E+00 -0.45593999997E+02  0.45594000000E+02  0.51100000000E-03 0.  1.
         23    2    1    2    0    0 -0.35527136788E-14  0.00000000000E+00 -0.17763568394E-14  0.91188000000E+02  0.91188000000E+02 0.  0.
    9900012    2    3    3    0    0 -0.29146792235E+02 -0.19286243196E+02  0.11588227597E+02  0.54367059042E+02  0.39999942698E+02 0.  0.
        -12    1    3    3    0    0  0.29146792235E+02  0.19286243196E+02 -0.11588227597E+02  0.36820940958E+02  0.00000000000E+00 0.  1.
         11    1    4    4    0    0 -0.59705889999E+01 -0.38701885795E+01  0.15264099975E+02  0.16840992873E+02  0.51100000000E-03 0. -1.
        -11    1    4    4    0    0 -0.68929596865E+01  0.13152116918E+01  0.86393269396E+01  0.11130168250E+02  0.51100000000E-03 0.  1.
         12    1    4    4    0    0 -0.16283243549E+02 -0.16731266308E+02 -0.12315199318E+02  0.26395897919E+02  0.00000000000E+00 0. -1.
</event>
<event>
 8    1  0.2512298E-006  0.9118800E+02  0.7816164E-02  0.1184000E+00
        -11   -1    0    0    0    0  0.00000000000E+00  0.00000000000E+00  0.45593999997E+02  0.45594000000E+02  0.51100000000E-03 0. -1.
         11   -1    0    0    0    0 -0.00000000000E+00 -0.00000000000E+00 -0.45593999997E+02  0.45594000000E+02  0.51100000000E-03 0.  1.
         23    2    1    2    0    0  0.17763568394E-14 -0.17763568394E-14  0.00000000000E+00  0.91188000000E+02  0.91188000000E+02 0.  0.
    9900012    2    3    3    0    0  0.12553143123E+02 -0.11648023692E+02 -0.32596340362E+02  0.54367092037E+02  0.40000017917E+02 0.  0.
         12    1    3    3    0    0 -0.12553143123E+02  0.11648023692E+02  0.32596340362E+02  0.36820907963E+02  0.00000000000E+00 0. -1.
         11    1    4    4    0    0  0.59334656082E+01 -0.13590770294E+02 -0.31636930824E+02  0.34940097933E+02  0.51100000000E-03 0. -1.
        -11    1    4    4    0    0 -0.23005450909E+00 -0.17973503561E+01 -0.84305331740E+01  0.86230669277E+01  0.51100000000E-03 0.  1.
         12    1    4    4    0    0  0.68497320241E+01  0.37400969581E+01  0.74711236361E+01  0.10803927177E+02  0.00000000000E+00 0. -1.
</event>
<event>
 8    1  0.2512298E-006  0.9118800E+02  0.7816164E-02  0.1184000E+00
        -11   -1    0    0    0    0  0.00000000000E+00  0.00000000000E+00  0.45593999997E+02  0.45594000000E+02  0.51100000000E-03 0.  1.
         11   -1    0    0    0    0 -0.00000000000E+00 -0.00000000000E+00 -0.45593999997E+02  0.45594000000E+02  0.51100000000E-03 0. -1.
         23    2    1    2    0    0  0.35527136788E-14  0.88817841970E-15  0.35527136788E-14  0.91188000000E+02  0.91188000000E+02 0.  0.
    9900012    2    3    3    0    0 -0.19926555526E+02 -0.42352493082E+01  0.30672039374E+02  0.54367096274E+02  0.40000027576E+02 0.  0.
         12    1    3    3    0    0  0.19926555526E+02  0.42352493082E+01 -0.30672039374E+02  0.36820903726E+02  0.00000000000E+00 0. -1.
         11    1    4    4    0    0 -0.66595140274E+01  0.90906981484E+01  0.28312170491E+02  0.30472428818E+02  0.51100000000E-03 0. -1.
        -11    1    4    4    0    0 -0.25048458117E+01 -0.13009907982E+01  0.66264185143E+01  0.72025170729E+01  0.51100000000E-03 0.  1.
         12    1    4    4    0    0 -0.10762195687E+02 -0.12024956658E+02 -0.42665496315E+01  0.16692150383E+02  0.00000000000E+00 0. -1.
</event>
<event>
 8    1  0.2512298E-006  0.9118800E+02  0.7816164E-02  0.1184000E+00
        -11   -1    0    0    0    0  0.00000000000E+00  0.00000000000E+00  0.45593999997E+02  0.45594000000E+02  0.51100000000E-03 0. -1.
         11   -1    0    0    0    0 -0.00000000000E+00 -0.00000000000E+00 -0.45593999997E+02  0.45594000000E+02  0.51100000000E-03 0.  1.
         23    2    1    2    0    0 -0.88817841970E-15  0.00000000000E+00  0.00000000000E+00  0.91188000000E+02  0.91188000000E+02 0.  0.
    9900012    2    3    3    0    0  0.65010087791E+01 -0.27394671502E+02  0.23728652961E+02  0.54367080495E+02  0.39999991605E+02 0.  0.
        -12    1    3    3    0    0 -0.65010087791E+01  0.27394671502E+02 -0.23728652961E+02  0.36820919505E+02  0.00000000000E+00 0.  1.
         11    1    4    4    0    0  0.11090555421E+02 -0.83911274054E+01 -0.52237985778E+01  0.14855958755E+02  0.51100000000E-03 0. -1.
        -11    1    4    4    0    0 -0.97993531452E+00  0.25984883685E+01  0.10535489830E+02  0.10895364209E+02  0.51100000000E-03 0.  1.
         12    1    4    4    0    0 -0.36096113272E+01 -0.21602032465E+02  0.18416961709E+02  0.28615757532E+02  0.00000000000E+00 0. -1.
</event>
<event>
 8    1  0.2512298E-006  0.9118800E+02  0.7816164E-02  0.1184000E+00
        -11   -1    0    0    0    0  0.00000000000E+00  0.00000000000E+00  0.45593999997E+02  0.45594000000E+02  0.51100000000E-03 0. -1.
         11   -1    0    0    0    0 -0.00000000000E+00 -0.00000000000E+00 -0.45593999997E+02  0.45594000000E+02  0.51100000000E-03 0.  1.
         23    2    1    2    0    0  0.00000000000E+00  0.00000000000E+00  0.00000000000E+00  0.91188000000E+02  0.91188000000E+02 0.  0.
    9900012    2    3    3    0    0  0.21087350314E+02 -0.27315465121E+02  0.12844099793E+02  0.54367056536E+02  0.39999936985E+02 0.  0.
         12    1    3    3    0    0 -0.21087350314E+02  0.27315465121E+02 -0.12844099793E+02  0.36820943464E+02  0.00000000000E+00 0. -1.
         11    1    4    4    0    0  0.65095193136E+01 -0.45158312335E+00 -0.47875910539E+01  0.80931327292E+01  0.51100000000E-03 0. -1.
        -11    1    4    4    0    0  0.15582460274E+02 -0.12796234787E+02 -0.38975329520E+01  0.20536490846E+02  0.51100000000E-03 0.  1.
         12    1    4    4    0    0 -0.10046292727E+01 -0.14067647211E+02  0.21529223799E+02  0.25737432961E+02  0.00000000000E+00 0. -1.
</event>
<event>
 8    1  0.2512298E-006  0.9118800E+02  0.7816164E-02  0.1184000E+00
        -11   -1    0    0    0    0  0.00000000000E+00  0.00000000000E+00  0.45593999997E+02  0.45594000000E+02  0.51100000000E-03 0. -1.
         11   -1    0    0    0    0 -0.00000000000E+00 -0.00000000000E+00 -0.45593999997E+02  0.45594000000E+02  0.51100000000E-03 0.  1.
         23    2    1    2    0    0  0.00000000000E+00  0.00000000000E+00  0.00000000000E+00  0.91188000000E+02  0.91188000000E+02 0.  0.
    9900012    2    3    3    0    0  0.98275863801E+01  0.21376730042E+02  0.28323741531E+02  0.54367076931E+02  0.39999983479E+02 0.  0.
        -12    1    3    3    0    0 -0.98275863801E+01 -0.21376730042E+02 -0.28323741531E+02  0.36820923069E+02  0.00000000000E+00 0.  1.
         11    1    4    4    0    0  0.11258604525E+02  0.92096020359E+01  0.29513767249E+02  0.32903425400E+02  0.51100000000E-03 0. -1.
        -11    1    4    4    0    0  0.66657164642E+01  0.19917454810E+01 -0.41861509424E+01  0.81192786635E+01  0.51100000000E-03 0.  1.
         12    1    4    4    0    0 -0.80967346091E+01  0.10175382525E+02  0.29961252240E+01  0.13344372867E+02  0.00000000000E+00 0. -1.
</event>
<event>
 8    1  0.2512298E-006  0.9118800E+02  0.7816164E-02  0.1184000E+00
        -11   -1    0    0    0    0  0.00000000000E+00  0.00000000000E+00  0.45593999997E+02  0.45594000000E+02  0.51100000000E-03 0.  1.
         11   -1    0    0    0    0 -0.00000000000E+00 -0.00000000000E+00 -0.45593999997E+02  0.45594000000E+02  0.51100000000E-03 0. -1.
         23    2    1    2    0    0 -0.35527136788E-14  0.00000000000E+00  0.00000000000E+00  0.91188000000E+02  0.91188000000E+02 0.  0.
    9900012    2    3    3    0    0  0.17817952793E+02 -0.14194087030E+02 -0.28927978233E+02  0.54367089189E+02  0.40000011423E+02 0.  0.
        -12    1    3    3    0    0 -0.17817952793E+02  0.14194087030E+02  0.28927978233E+02  0.36820910811E+02  0.00000000000E+00 0.  1.
         11    1    4    4    0    0  0.18515486641E+00 -0.61779874423E+01  0.14583796116E+01  0.63504867935E+01  0.51100000000E-03 0. -1.
        -11    1    4    4    0    0  0.66494256531E+00  0.31818016474E+01 -0.27253688770E+02  0.27446849768E+02  0.51100000000E-03 0.  1.
        -12    1    4    4    0    0  0.16967855361E+02 -0.11197901235E+02 -0.31326690745E+01  0.20569752627E+02  0.00000000000E+00 0.  1.
</event>
<event>
 8    1  0.2512298E-006  0.9118800E+02  0.7816164E-02  0.1184000E+00
        -11   -1    0    0    0    0  0.00000000000E+00  0.00000000000E+00  0.45593999997E+02  0.45594000000E+02  0.51100000000E-03 0.  1.
         11   -1    0    0    0    0 -0.00000000000E+00 -0.00000000000E+00 -0.45593999997E+02  0.45594000000E+02  0.51100000000E-03 0. -1.
         23    2    1    2    0    0  0.00000000000E+00  0.00000000000E+00 -0.35527136788E-14  0.91188000000E+02  0.91188000000E+02 0.  0.
    9900012    2    3    3    0    0  0.13055766272E+02  0.23286489001E+02  0.25358766102E+02  0.54367073597E+02  0.39999975880E+02 0.  0.
         12    1    3    3    0    0 -0.13055766272E+02 -0.23286489001E+02 -0.25358766102E+02  0.36820926403E+02  0.00000000000E+00 0. -1.
         11    1    4    4    0    0  0.55523476252E+01 -0.12905380042E+01 -0.14112991728E+01  0.58724626953E+01  0.51100000000E-03 0. -1.
        -11    1    4    4    0    0  0.62384636321E+01  0.31980910529E+02  0.24081151733E+02  0.40516650106E+02  0.51100000000E-03 0.  1.
        -12    1    4    4    0    0  0.12649550149E+01 -0.74038835242E+01  0.26889135418E+01  0.79779607962E+01  0.00000000000E+00 0.  1.
</event>
<event>
 8    1  0.2512298E-006  0.9118800E+02  0.7816164E-02  0.1184000E+00
        -11   -1    0    0    0    0  0.00000000000E+00  0.00000000000E+00  0.45593999997E+02  0.45594000000E+02  0.51100000000E-03 0.  1.
         11   -1    0    0    0    0 -0.00000000000E+00 -0.00000000000E+00 -0.45593999997E+02  0.45594000000E+02  0.51100000000E-03 0. -1.
         23    2    1    2    0    0 -0.35527136788E-14  0.00000000000E+00 -0.35527136788E-14  0.91188000000E+02  0.91188000000E+02 0.  0.
    9900012    2    3    3    0    0  0.19268598774E+02  0.24818337325E+02  0.19197642979E+02  0.54367105629E+02  0.40000048903E+02 0.  0.
         12    1    3    3    0    0 -0.19268598774E+02 -0.24818337325E+02 -0.19197642979E+02  0.36820894371E+02  0.00000000000E+00 0. -1.
         11    1    4    4    0    0  0.25994849616E+02  0.68146931583E+01  0.15237497128E+02  0.30892613493E+02  0.51100000000E-03 0. -1.
        -11    1    4    4    0    0  0.36526700500E+01  0.25598297274E+01  0.14967843207E+01  0.47047943942E+01  0.51100000000E-03 0.  1.
        -12    1    4    4    0    0 -0.10378920892E+02  0.15443814439E+02  0.24633615294E+01  0.18769697742E+02  0.00000000000E+00 0.  1.
</event>
<event>
 8    1  0.2512298E-006  0.9118800E+02  0.7816164E-02  0.1184000E+00
        -11   -1    0    0    0    0  0.00000000000E+00  0.00000000000E+00  0.45593999997E+02  0.45594000000E+02  0.51100000000E-03 0.  1.
         11   -1    0    0    0    0 -0.00000000000E+00 -0.00000000000E+00 -0.45593999997E+02  0.45594000000E+02  0.51100000000E-03 0. -1.
         23    2    1    2    0    0  0.35527136788E-14 -0.35527136788E-14  0.00000000000E+00  0.91188000000E+02  0.91188000000E+02 0.  0.
    9900012    2    3    3    0    0  0.20337312247E+02 -0.23470003306E+02 -0.19782040866E+02  0.54367130029E+02  0.40000104526E+02 0.  0.
        -12    1    3    3    0    0 -0.20337312247E+02  0.23470003306E+02  0.19782040866E+02  0.36820869971E+02  0.00000000000E+00 0.  1.
         11    1    4    4    0    0  0.13888753461E+02 -0.25171321029E+02 -0.10064841015E+02  0.30459709453E+02  0.51100000000E-03 0. -1.
        -11    1    4    4    0    0  0.11321963243E+02 -0.48396263935E+01 -0.98209572166E+01  0.15749921785E+02  0.51100000000E-03 0.  1.
        -12    1    4    4    0    0 -0.48734044566E+01  0.65409441168E+01  0.10375736537E+00  0.81574987912E+01  0.00000000000E+00 0.  1.
</event>
<event>
 8    1  0.2512298E-006  0.9118800E+02  0.7816164E-02  0.1184000E+00
        -11   -1    0    0    0    0  0.00000000000E+00  0.00000000000E+00  0.45593999997E+02  0.45594000000E+02  0.51100000000E-03 0. -1.
         11   -1    0    0    0    0 -0.00000000000E+00 -0.00000000000E+00 -0.45593999997E+02  0.45594000000E+02  0.51100000000E-03 0.  1.
         23    2    1    2    0    0 -0.35527136788E-14  0.35527136788E-14 -0.53290705182E-14  0.91188000000E+02  0.91188000000E+02 0.  0.
    9900012    2    3    3    0    0 -0.25692868405E+02  0.21578064756E+02 -0.15167166892E+02  0.54367091306E+02  0.40000016250E+02 0.  0.
         12    1    3    3    0    0  0.25692868405E+02 -0.21578064756E+02  0.15167166892E+02  0.36820908694E+02  0.00000000000E+00 0. -1.
         11    1    4    4    0    0 -0.31517878521E+01 -0.63674887247E+01  0.31449279153E+01  0.77697651944E+01  0.51100000000E-03 0. -1.
        -11    1    4    4    0    0 -0.20149540908E+02  0.72877298444E+01 -0.53227784993E+01  0.22078201383E+02  0.51100000000E-03 0.  1.
         12    1    4    4    0    0 -0.23915396450E+01  0.20657823637E+02 -0.12989316308E+02  0.24519124728E+02  0.00000000000E+00 0. -1.
</event>
<event>
 8    1  0.2512298E-006  0.9118800E+02  0.7816164E-02  0.1184000E+00
        -11   -1    0    0    0    0  0.00000000000E+00  0.00000000000E+00  0.45593999997E+02  0.45594000000E+02  0.51100000000E-03 0.  1.
         11   -1    0    0    0    0 -0.00000000000E+00 -0.00000000000E+00 -0.45593999997E+02  0.45594000000E+02  0.51100000000E-03 0. -1.
         23    2    1    2    0    0 -0.22204460493E-15  0.00000000000E+00 -0.17763568394E-14  0.91188000000E+02  0.91188000000E+02 0.  0.
    9900012    2    3    3    0    0 -0.78284425895E+00 -0.35819673327E+02 -0.84920016487E+01  0.54367137240E+02  0.40000120966E+02 0.  0.
        -12    1    3    3    0    0  0.78284425895E+00  0.35819673327E+02  0.84920016487E+01  0.36820862760E+02  0.00000000000E+00 0.  1.
         11    1    4    4    0    0  0.13958658291E+01  0.11678776833E+01 -0.11481660180E+02  0.11625011847E+02  0.51100000000E-03 0.  1.
        -11    1    4    4    0    0 -0.93417088594E+01 -0.77861497408E+01 -0.18077653668E+01  0.12294700813E+02  0.51100000000E-03 0. -1.
        -12    1    4    4    0    0  0.71629987714E+01 -0.29201401269E+02  0.47974238980E+01  0.30447424580E+02  0.00000000000E+00 0.  1.
</event>
<event>
 8    1  0.2512298E-006  0.9118800E+02  0.7816164E-02  0.1184000E+00
        -11   -1    0    0    0    0  0.00000000000E+00  0.00000000000E+00  0.45593999997E+02  0.45594000000E+02  0.51100000000E-03 0.  1.
         11   -1    0    0    0    0 -0.00000000000E+00 -0.00000000000E+00 -0.45593999997E+02  0.45594000000E+02  0.51100000000E-03 0. -1.
         23    2    1    2    0    0  0.00000000000E+00  0.00000000000E+00 -0.44408920985E-15  0.91188000000E+02  0.91188000000E+02 0.  0.
    9900012    2    3    3    0    0 -0.64098725206E+01  0.36233101625E+02 -0.13621528059E+01  0.54367087744E+02  0.40000008129E+02 0.  0.
        -12    1    3    3    0    0  0.64098725206E+01 -0.36233101625E+02  0.13621528059E+01  0.36820912256E+02  0.00000000000E+00 0.  1.
         11    1    4    4    0    0 -0.63080620312E+01  0.29143653735E+01  0.71934666642E+01  0.10001556630E+02  0.51100000000E-03 0.  1.
        -11    1    4    4    0    0  0.27470281046E+01  0.37799727207E+02 -0.56669978966E+01  0.38320756852E+02  0.51100000000E-03 0. -1.
        -12    1    4    4    0    0 -0.28488385940E+01 -0.44809909549E+01 -0.28886215735E+01  0.60447742611E+01  0.00000000000E+00 0.  1.
</event>
<event>
 8    1  0.2512298E-006  0.9118800E+02  0.7816164E-02  0.1184000E+00
        -11   -1    0    0    0    0  0.00000000000E+00  0.00000000000E+00  0.45593999997E+02  0.45594000000E+02  0.51100000000E-03 0. -1.
         11   -1    0    0    0    0 -0.00000000000E+00 -0.00000000000E+00 -0.45593999997E+02  0.45594000000E+02  0.51100000000E-03 0.  1.
         23    2    1    2    0    0  0.00000000000E+00  0.35527136788E-14  0.35527136788E-14  0.91188000000E+02  0.91188000000E+02 0.  0.
    9900012    2    3    3    0    0  0.16706312469E+02 -0.28174765934E+02  0.16818501332E+02  0.54367077975E+02  0.39999985860E+02 0.  0.
        -12    1    3    3    0    0 -0.16706312469E+02  0.28174765934E+02 -0.16818501332E+02  0.36820922025E+02  0.00000000000E+00 0.  1.
         11    1    4    4    0    0  0.10707967463E+02 -0.69885608009E+01  0.53353905015E+01  0.13855213507E+02  0.51100000000E-03 0. -1.
        -11    1    4    4    0    0 -0.92401910896E+01 -0.21131245662E+02  0.35593105439E+01  0.23336224339E+02  0.51100000000E-03 0.  1.
        -12    1    4    4    0    0  0.15238536096E+02 -0.54959471335E-01  0.79238002863E+01  0.17175640130E+02  0.00000000000E+00 0.  1.
</event>
<event>
 8    1  0.2512298E-006  0.9118800E+02  0.7816164E-02  0.1184000E+00
        -11   -1    0    0    0    0  0.00000000000E+00  0.00000000000E+00  0.45593999997E+02  0.45594000000E+02  0.51100000000E-03 0.  1.
         11   -1    0    0    0    0 -0.00000000000E+00 -0.00000000000E+00 -0.45593999997E+02  0.45594000000E+02  0.51100000000E-03 0. -1.
         23    2    1    2    0    0 -0.17763568394E-14 -0.35527136788E-14  0.35527136788E-14  0.91188000000E+02  0.91188000000E+02 0.  0.
    9900012    2    3    3    0    0  0.12961707737E+02  0.15051306155E+02 -0.31003743052E+02  0.54367085187E+02  0.40000002301E+02 0.  0.
        -12    1    3    3    0    0 -0.12961707737E+02 -0.15051306155E+02  0.31003743052E+02  0.36820914813E+02  0.00000000000E+00 0.  1.
         11    1    4    4    0    0 -0.79526881601E+01 -0.73805873313E+01 -0.57546265777E+01  0.12281451284E+02  0.51100000000E-03 0. -1.
        -11    1    4    4    0    0  0.95715349548E+01  0.93819072757E+01 -0.19888735275E+02  0.23983249501E+02  0.51100000000E-03 0.  1.
        -12    1    4    4    0    0  0.11342860943E+02  0.13049986210E+02 -0.53603811987E+01  0.18102384402E+02  0.00000000000E+00 0.  1.
</event>
<event>
 8    1  0.2512298E-006  0.9118800E+02  0.7816164E-02  0.1184000E+00
        -11   -1    0    0    0    0  0.00000000000E+00  0.00000000000E+00  0.45593999997E+02  0.45594000000E+02  0.51100000000E-03 0. -1.
         11   -1    0    0    0    0 -0.00000000000E+00 -0.00000000000E+00 -0.45593999997E+02  0.45594000000E+02  0.51100000000E-03 0.  1.
         23    2    1    2    0    0 -0.44408920985E-15  0.00000000000E+00 -0.44408920985E-15  0.91188000000E+02  0.91188000000E+02 0.  0.
    9900012    2    3    3    0    0 -0.11332937750E+01 -0.36606446507E+02 -0.38029729894E+01  0.54367097184E+02  0.40000029650E+02 0.  0.
         12    1    3    3    0    0  0.11332937750E+01  0.36606446507E+02  0.38029729894E+01  0.36820902816E+02  0.00000000000E+00 0. -1.
         11    1    4    4    0    0  0.73968092998E+00 -0.16104273430E+02  0.13521947516E+02  0.21041335877E+02  0.51100000000E-03 0. -1.
        -11    1    4    4    0    0  0.41177626396E+01 -0.16434967121E+02 -0.29053856894E+01  0.17190269913E+02  0.51100000000E-03 0.  1.
        -12    1    4    4    0    0 -0.59907373446E+01 -0.40672059557E+01 -0.14419534816E+02  0.16135491394E+02  0.00000000000E+00 0.  1.
</event>
<event>
 8    1  0.2512298E-006  0.9118800E+02  0.7816164E-02  0.1184000E+00
        -11   -1    0    0    0    0  0.00000000000E+00  0.00000000000E+00  0.45593999997E+02  0.45594000000E+02  0.51100000000E-03 0. -1.
         11   -1    0    0    0    0 -0.00000000000E+00 -0.00000000000E+00 -0.45593999997E+02  0.45594000000E+02  0.51100000000E-03 0.  1.
         23    2    1    2    0    0  0.88817841970E-15  0.00000000000E+00  0.00000000000E+00  0.91188000000E+02  0.91188000000E+02 0.  0.
    9900012    2    3    3    0    0 -0.63549676044E+01  0.18094046378E+02 -0.31432459015E+02  0.54367087365E+02  0.40000007265E+02 0.  0.
         12    1    3    3    0    0  0.63549676044E+01 -0.18094046378E+02  0.31432459015E+02  0.36820912635E+02  0.00000000000E+00 0. -1.
         11    1    4    4    0    0  0.17247564109E+01  0.84913264270E+01 -0.22333333591E+02  0.23955274966E+02  0.51100000000E-03 0. -1.
        -11    1    4    4    0    0 -0.13869013833E+02 -0.13716316142E+01 -0.11134299539E+02  0.17838260691E+02  0.51100000000E-03 0.  1.
         12    1    4    4    0    0  0.57892898179E+01  0.10974351565E+02  0.20351741145E+01  0.12573551708E+02  0.00000000000E+00 0. -1.
</event>
<event>
 8    1  0.2512298E-006  0.9118800E+02  0.7816164E-02  0.1184000E+00
        -11   -1    0    0    0    0  0.00000000000E+00  0.00000000000E+00  0.45593999997E+02  0.45594000000E+02  0.51100000000E-03 0. -1.
         11   -1    0    0    0    0 -0.00000000000E+00 -0.00000000000E+00 -0.45593999997E+02  0.45594000000E+02  0.51100000000E-03 0.  1.
         23    2    1    2    0    0 -0.71054273576E-14  0.44408920985E-15  0.17763568394E-14  0.91188000000E+02  0.91188000000E+02 0.  0.
    9900012    2    3    3    0    0 -0.34294445834E+02 -0.16661489220E+00  0.13403025339E+02  0.54367111039E+02  0.40000061236E+02 0.  0.
         12    1    3    3    0    0  0.34294445834E+02  0.16661489220E+00 -0.13403025339E+02  0.36820888961E+02  0.00000000000E+00 0. -1.
         11    1    4    4    0    0 -0.49133034318E+01 -0.39081355727E+01 -0.12432210887E+01  0.63999744690E+01  0.51100000000E-03 0. -1.
        -11    1    4    4    0    0 -0.10885245639E+02  0.97812000577E+01 -0.91267160465E+01  0.17246953158E+02  0.51100000000E-03 0.  1.
         12    1    4    4    0    0 -0.18495896764E+02 -0.60396793772E+01  0.23772962474E+02  0.30720183412E+02  0.00000000000E+00 0. -1.
</event>
<event>
 8    1  0.2512298E-006  0.9118800E+02  0.7816164E-02  0.1184000E+00
        -11   -1    0    0    0    0  0.00000000000E+00  0.00000000000E+00  0.45593999997E+02  0.45594000000E+02  0.51100000000E-03 0.  1.
         11   -1    0    0    0    0 -0.00000000000E+00 -0.00000000000E+00 -0.45593999997E+02  0.45594000000E+02  0.51100000000E-03 0. -1.
         23    2    1    2    0    0 -0.35527136788E-14  0.35527136788E-14  0.00000000000E+00  0.91188000000E+02  0.91188000000E+02 0.  0.
    9900012    2    3    3    0    0 -0.56270813312E+01  0.29220107953E+02  0.21686420365E+02  0.54367087717E+02  0.40000008068E+02 0.  0.
         12    1    3    3    0    0  0.56270813312E+01 -0.29220107953E+02 -0.21686420365E+02  0.36820912283E+02  0.00000000000E+00 0. -1.
         11    1    4    4    0    0  0.28121649208E+01  0.73775852270E+00 -0.76284638223E+00  0.30057435093E+01  0.51100000000E-03 0. -1.
        -11    1    4    4    0    0  0.11346327454E+02  0.22190033436E+02  0.16017263101E+02  0.29625824007E+02  0.51100000000E-03 0.  1.
        -12    1    4    4    0    0 -0.19785573706E+02  0.62923159942E+01  0.64320036466E+01  0.21735520200E+02  0.00000000000E+00 0.  1.
</event>
<event>
 8    1  0.2512298E-006  0.9118800E+02  0.7816164E-02  0.1184000E+00
        -11   -1    0    0    0    0  0.00000000000E+00  0.00000000000E+00  0.45593999997E+02  0.45594000000E+02  0.51100000000E-03 0. -1.
         11   -1    0    0    0    0 -0.00000000000E+00 -0.00000000000E+00 -0.45593999997E+02  0.45594000000E+02  0.51100000000E-03 0.  1.
         23    2    1    2    0    0  0.71054273576E-14 -0.11102230246E-15 -0.17763568394E-14  0.91188000000E+02  0.91188000000E+02 0.  0.
    9900012    2    3    3    0    0 -0.34550659204E+02 -0.59838095531E+00  0.12715273013E+02  0.54367023927E+02  0.39999862646E+02 0.  0.
        -12    1    3    3    0    0  0.34550659204E+02  0.59838095531E+00 -0.12715273013E+02  0.36820976073E+02  0.00000000000E+00 0.  1.
         11    1    4    4    0    0 -0.34791762171E+01  0.20838410550E+01  0.86308213441E+01  0.95361490145E+01  0.51100000000E-03 0. -1.
        -11    1    4    4    0    0 -0.87835744323E+01 -0.23859891578E+01 -0.13608990304E+02  0.16372194154E+02  0.51100000000E-03 0.  1.
        -12    1    4    4    0    0 -0.22287908554E+02 -0.29623285249E+00  0.17693441973E+02  0.28458680758E+02  0.00000000000E+00 0.  1.
</event>
<event>
 8    1  0.2512298E-006  0.9118800E+02  0.7816164E-02  0.1184000E+00
        -11   -1    0    0    0    0  0.00000000000E+00  0.00000000000E+00  0.45593999997E+02  0.45594000000E+02  0.51100000000E-03 0.  1.
         11   -1    0    0    0    0 -0.00000000000E+00 -0.00000000000E+00 -0.45593999997E+02  0.45594000000E+02  0.51100000000E-03 0. -1.
         23    2    1    2    0    0  0.00000000000E+00  0.17763568394E-14  0.00000000000E+00  0.91188000000E+02  0.91188000000E+02 0.  0.
    9900012    2    3    3    0    0 -0.20692461515E+02 -0.15839186697E+02 -0.26013878472E+02  0.54367086487E+02  0.40000005265E+02 0.  0.
        -12    1    3    3    0    0  0.20692461515E+02  0.15839186697E+02  0.26013878472E+02  0.36820913513E+02  0.00000000000E+00 0.  1.
         11    1    4    4    0    0 -0.17687109646E+02  0.35065425239E+01 -0.48109448155E+01  0.18662124166E+02  0.51100000000E-03 0. -1.
        -11    1    4    4    0    0  0.34545063080E+01 -0.24515186875E+01 -0.16473960174E+02  0.17009847788E+02  0.51100000000E-03 0.  1.
        -12    1    4    4    0    0 -0.64598581771E+01 -0.16894210533E+02 -0.47289734826E+01  0.18695114533E+02  0.00000000000E+00 0.  1.
</event>
<event>
 8    1  0.2512298E-006  0.9118800E+02  0.7816164E-02  0.1184000E+00
        -11   -1    0    0    0    0  0.00000000000E+00  0.00000000000E+00  0.45593999997E+02  0.45594000000E+02  0.51100000000E-03 0. -1.
         11   -1    0    0    0    0 -0.00000000000E+00 -0.00000000000E+00 -0.45593999997E+02  0.45594000000E+02  0.51100000000E-03 0.  1.
         23    2    1    2    0    0 -0.88817841970E-15 -0.71054273576E-14 -0.13322676296E-14  0.91188000000E+02  0.91188000000E+02 0.  0.
    9900012    2    3    3    0    0 -0.59338538063E+01 -0.36216015229E+02 -0.29940059087E+01  0.54367157378E+02  0.40000166873E+02 0.  0.
         12    1    3    3    0    0  0.59338538063E+01  0.36216015229E+02  0.29940059087E+01  0.36820842622E+02  0.00000000000E+00 0. -1.
         11    1    4    4    0    0 -0.30443001457E+01 -0.36036826422E+01  0.99734942791E+01  0.11032899907E+02  0.51100000000E-03 0. -1.
        -11    1    4    4    0    0 -0.94473485173E+01 -0.36562244706E+01 -0.86732935867E+01  0.13335906167E+02  0.51100000000E-03 0.  1.
        -12    1    4    4    0    0  0.65577948568E+01 -0.28956108116E+02 -0.42942066011E+01  0.29998351304E+02  0.00000000000E+00 0.  1.
</event>
<event>
 8    1  0.2512298E-006  0.9118800E+02  0.7816164E-02  0.1184000E+00
        -11   -1    0    0    0    0  0.00000000000E+00  0.00000000000E+00  0.45593999997E+02  0.45594000000E+02  0.51100000000E-03 0.  1.
         11   -1    0    0    0    0 -0.00000000000E+00 -0.00000000000E+00 -0.45593999997E+02  0.45594000000E+02  0.51100000000E-03 0. -1.
         23    2    1    2    0    0 -0.35527136788E-14  0.88817841970E-15  0.00000000000E+00  0.91188000000E+02  0.91188000000E+02 0.  0.
    9900012    2    3    3    0    0 -0.23355258911E+02 -0.49856796708E+01  0.28025965479E+02  0.54367083912E+02  0.39999999393E+02 0.  0.
         12    1    3    3    0    0  0.23355258911E+02  0.49856796708E+01 -0.28025965479E+02  0.36820916088E+02  0.00000000000E+00 0. -1.
         11    1    4    4    0    0  0.56423103770E+01 -0.18584910928E+00  0.18241989100E+02  0.19095558983E+02  0.51100000000E-03 0. -1.
        -11    1    4    4    0    0 -0.19768283685E+02 -0.86199399531E+01  0.12491548935E+02  0.24922423632E+02  0.51100000000E-03 0.  1.
         12    1    4    4    0    0 -0.92292856031E+01  0.38201093916E+01 -0.27075725560E+01  0.10349101297E+02  0.00000000000E+00 0. -1.
</event>
<event>
 8    1  0.2512298E-006  0.9118800E+02  0.7816164E-02  0.1184000E+00
        -11   -1    0    0    0    0  0.00000000000E+00  0.00000000000E+00  0.45593999997E+02  0.45594000000E+02  0.51100000000E-03 0. -1.
         11   -1    0    0    0    0 -0.00000000000E+00 -0.00000000000E+00 -0.45593999997E+02  0.45594000000E+02  0.51100000000E-03 0.  1.
         23    2    1    2    0    0 -0.17763568394E-14  0.00000000000E+00 -0.35527136788E-14  0.91188000000E+02  0.91188000000E+02 0.  0.
    9900012    2    3    3    0    0  0.57689348802E+01 -0.19660826353E+02  0.30593324637E+02  0.54367079114E+02  0.39999988456E+02 0.  0.
        -12    1    3    3    0    0 -0.57689348802E+01  0.19660826353E+02 -0.30593324637E+02  0.36820920886E+02  0.00000000000E+00 0.  1.
         11    1    4    4    0    0  0.10318990096E+02 -0.78146909275E+01  0.20122583339E+00  0.12945711375E+02  0.51100000000E-03 0. -1.
        -11    1    4    4    0    0 -0.45056866899E+01 -0.55775001150E+01 -0.27591515108E+01  0.76826191758E+01  0.51100000000E-03 0.  1.
         12    1    4    4    0    0 -0.44368526288E-01 -0.62686353104E+01  0.33151250315E+02  0.33738748564E+02  0.00000000000E+00 0. -1.
</event>
<event>
 8    1  0.2512298E-006  0.9118800E+02  0.7816164E-02  0.1184000E+00
        -11   -1    0    0    0    0  0.00000000000E+00  0.00000000000E+00  0.45593999997E+02  0.45594000000E+02  0.51100000000E-03 0.  1.
         11   -1    0    0    0    0 -0.00000000000E+00 -0.00000000000E+00 -0.45593999997E+02  0.45594000000E+02  0.51100000000E-03 0. -1.
         23    2    1    2    0    0  0.00000000000E+00 -0.88817841970E-15  0.00000000000E+00  0.91188000000E+02  0.91188000000E+02 0.  0.
    9900012    2    3    3    0    0  0.46537142014E+01 -0.58584783364E+01 -0.36052745860E+02  0.54367091425E+02  0.40000016521E+02 0.  0.
        -12    1    3    3    0    0 -0.46537142014E+01  0.58584783364E+01  0.36052745860E+02  0.36820908575E+02  0.00000000000E+00 0.  1.
         11    1    4    4    0    0 -0.85092715504E+01 -0.10247592582E+02 -0.26451201333E+02  0.29615653095E+02  0.51100000000E-03 0. -1.
        -11    1    4    4    0    0 -0.15823936362E+01 -0.24556303858E+01 -0.78798457681E+01  0.84039312112E+01  0.51100000000E-03 0.  1.
        -12    1    4    4    0    0  0.14745379388E+02  0.68447446315E+01 -0.17216987587E+01  0.16347507118E+02  0.00000000000E+00 0.  1.
</event>
<event>
 8    1  0.2512298E-006  0.9118800E+02  0.7816164E-02  0.1184000E+00
        -11   -1    0    0    0    0  0.00000000000E+00  0.00000000000E+00  0.45593999997E+02  0.45594000000E+02  0.51100000000E-03 0.  1.
         11   -1    0    0    0    0 -0.00000000000E+00 -0.00000000000E+00 -0.45593999997E+02  0.45594000000E+02  0.51100000000E-03 0. -1.
         23    2    1    2    0    0  0.00000000000E+00 -0.88817841970E-15 -0.35527136788E-14  0.91188000000E+02  0.91188000000E+02 0.  0.
    9900012    2    3    3    0    0  0.30844804197E+02 -0.25390682870E+01 -0.19948197200E+02  0.54367090380E+02  0.40000014139E+02 0.  0.
        -12    1    3    3    0    0 -0.30844804197E+02  0.25390682870E+01  0.19948197200E+02  0.36820909620E+02  0.00000000000E+00 0.  1.
         11    1    4    4    0    0  0.53978933087E+00 -0.89563023165E+01 -0.13087923834E+02  0.15868222152E+02  0.51100000000E-03 0. -1.
        -11    1    4    4    0    0  0.26590099013E+02  0.13168937456E+02 -0.79423826561E+01  0.30717026578E+02  0.51100000000E-03 0.  1.
        -12    1    4    4    0    0  0.37149158532E+01 -0.67517034266E+01  0.10821092909E+01  0.77818416505E+01  0.00000000000E+00 0.  1.
</event>
<event>
 8    1  0.2512298E-006  0.9118800E+02  0.7816164E-02  0.1184000E+00
        -11   -1    0    0    0    0  0.00000000000E+00  0.00000000000E+00  0.45593999997E+02  0.45594000000E+02  0.51100000000E-03 0.  1.
         11   -1    0    0    0    0 -0.00000000000E+00 -0.00000000000E+00 -0.45593999997E+02  0.45594000000E+02  0.51100000000E-03 0. -1.
         23    2    1    2    0    0  0.00000000000E+00 -0.71054273576E-14 -0.11102230246E-14  0.91188000000E+02  0.91188000000E+02 0.  0.
    9900012    2    3    3    0    0  0.90431742665E+01  0.35668894077E+02  0.13117080490E+01  0.54367223480E+02  0.40000317567E+02 0.  0.
        -12    1    3    3    0    0 -0.90431742665E+01 -0.35668894077E+02 -0.13117080490E+01  0.36820776520E+02  0.00000000000E+00 0.  1.
         11    1    4    4    0    0  0.29052627957E+01  0.15683409961E+02 -0.11822512726E+02  0.19854009856E+02  0.51100000000E-03 0. -1.
        -11    1    4    4    0    0 -0.14618917858E+01  0.12528983297E+02 -0.49313667422E+01  0.13543667460E+02  0.51100000000E-03 0.  1.
        -12    1    4    4    0    0  0.75998032566E+01  0.74565008188E+01  0.18065587518E+02  0.20969546165E+02  0.00000000000E+00 0.  1.
</event>
<event>
 8    1  0.2512298E-006  0.9118800E+02  0.7816164E-02  0.1184000E+00
        -11   -1    0    0    0    0  0.00000000000E+00  0.00000000000E+00  0.45593999997E+02  0.45594000000E+02  0.51100000000E-03 0.  1.
         11   -1    0    0    0    0 -0.00000000000E+00 -0.00000000000E+00 -0.45593999997E+02  0.45594000000E+02  0.51100000000E-03 0. -1.
         23    2    1    2    0    0  0.00000000000E+00  0.35527136788E-14  0.00000000000E+00  0.91188000000E+02  0.91188000000E+02 0.  0.
    9900012    2    3    3    0    0  0.28305600325E+02  0.16325393806E+02 -0.16971960697E+02  0.54367177866E+02  0.40000213581E+02 0.  0.
        -12    1    3    3    0    0 -0.28305600325E+02 -0.16325393806E+02  0.16971960697E+02  0.36820822134E+02  0.00000000000E+00 0.  1.
         11    1    4    4    0    0  0.47167935203E+01  0.42966430889E+01 -0.16726269406E+02  0.17901881785E+02  0.51100000000E-03 0. -1.
        -11    1    4    4    0    0  0.22436501135E+02  0.17719476763E+02  0.45311381553E+01  0.28946634575E+02  0.51100000000E-03 0.  1.
         12    1    4    4    0    0  0.11523056699E+01 -0.56907260460E+01 -0.47768294470E+01  0.75186615067E+01  0.00000000000E+00 0. -1.
</event>
<event>
 8    1  0.2512298E-006  0.9118800E+02  0.7816164E-02  0.1184000E+00
        -11   -1    0    0    0    0  0.00000000000E+00  0.00000000000E+00  0.45593999997E+02  0.45594000000E+02  0.51100000000E-03 0. -1.
         11   -1    0    0    0    0 -0.00000000000E+00 -0.00000000000E+00 -0.45593999997E+02  0.45594000000E+02  0.51100000000E-03 0.  1.
         23    2    1    2    0    0  0.00000000000E+00 -0.71054273576E-14  0.00000000000E+00  0.91188000000E+02  0.91188000000E+02 0.  0.
    9900012    2    3    3    0    0 -0.13633218542E+02  0.27650088811E+02  0.20134283654E+02  0.54367062514E+02  0.39999950614E+02 0.  0.
        -12    1    3    3    0    0  0.13633218542E+02 -0.27650088811E+02 -0.20134283654E+02  0.36820937486E+02  0.00000000000E+00 0.  1.
         11    1    4    4    0    0  0.14837270907E+01  0.54109589058E+01  0.96833335175E+01  0.11191374832E+02  0.51100000000E-03 0. -1.
        -11    1    4    4    0    0 -0.15937467011E+02 -0.24225035628E+01  0.89885206003E+01  0.18457109229E+02  0.51100000000E-03 0.  1.
        -12    1    4    4    0    0  0.82052137797E+00  0.24661633468E+02  0.14624295361E+01  0.24718578454E+02  0.00000000000E+00 0.  1.
</event>
<event>
 8    1  0.2512298E-006  0.9118800E+02  0.7816164E-02  0.1184000E+00
        -11   -1    0    0    0    0  0.00000000000E+00  0.00000000000E+00  0.45593999997E+02  0.45594000000E+02  0.51100000000E-03 0.  1.
         11   -1    0    0    0    0 -0.00000000000E+00 -0.00000000000E+00 -0.45593999997E+02  0.45594000000E+02  0.51100000000E-03 0. -1.
         23    2    1    2    0    0 -0.35527136788E-14  0.00000000000E+00  0.00000000000E+00  0.91188000000E+02  0.91188000000E+02 0.  0.
    9900012    2    3    3    0    0 -0.26171135694E+02 -0.26644716053E+01  0.25763456731E+02  0.54367035114E+02  0.39999888148E+02 0.  0.
         12    1    3    3    0    0  0.26171135694E+02  0.26644716053E+01 -0.25763456731E+02  0.36820964886E+02  0.00000000000E+00 0. -1.
         11    1    4    4    0    0 -0.13709736650E+02 -0.18560536482E+01  0.14380916730E+02  0.19955264479E+02  0.51100000000E-03 0. -1.
        -11    1    4    4    0    0 -0.94309418017E+01 -0.33187951433E+01  0.21415693523E+02  0.23634487382E+02  0.51100000000E-03 0.  1.
         12    1    4    4    0    0 -0.30304572419E+01  0.25103771861E+01 -0.10033153522E+02  0.10777283253E+02  0.00000000000E+00 0. -1.
</event>
<event>
 8    1  0.2512298E-006  0.9118800E+02  0.7816164E-02  0.1184000E+00
        -11   -1    0    0    0    0  0.00000000000E+00  0.00000000000E+00  0.45593999997E+02  0.45594000000E+02  0.51100000000E-03 0.  1.
         11   -1    0    0    0    0 -0.00000000000E+00 -0.00000000000E+00 -0.45593999997E+02  0.45594000000E+02  0.51100000000E-03 0. -1.
         23    2    1    2    0    0  0.00000000000E+00  0.00000000000E+00  0.00000000000E+00  0.91188000000E+02  0.91188000000E+02 0.  0.
    9900012    2    3    3    0    0  0.22196830510E+02  0.11077026233E+02 -0.27209920839E+02  0.54367087642E+02  0.40000007897E+02 0.  0.
        -12    1    3    3    0    0 -0.22196830510E+02 -0.11077026233E+02  0.27209920839E+02  0.36820912358E+02  0.00000000000E+00 0.  1.
         11    1    4    4    0    0 -0.85380968544E+01  0.13906978024E+01 -0.33205927091E+01  0.92660387692E+01  0.51100000000E-03 0. -1.
        -11    1    4    4    0    0  0.29775420536E+02  0.13472582812E+01 -0.17623681562E+02  0.34626361707E+02  0.51100000000E-03 0.  1.
        -12    1    4    4    0    0  0.95950682798E+00  0.83390701491E+01 -0.62656465675E+01  0.10474687165E+02  0.00000000000E+00 0.  1.
</event>
<event>
 8    1  0.2512298E-006  0.9118800E+02  0.7816164E-02  0.1184000E+00
        -11   -1    0    0    0    0  0.00000000000E+00  0.00000000000E+00  0.45593999997E+02  0.45594000000E+02  0.51100000000E-03 0. -1.
         11   -1    0    0    0    0 -0.00000000000E+00 -0.00000000000E+00 -0.45593999997E+02  0.45594000000E+02  0.51100000000E-03 0.  1.
         23    2    1    2    0    0  0.00000000000E+00  0.35527136788E-14 -0.17763568394E-14  0.91188000000E+02  0.91188000000E+02 0.  0.
    9900012    2    3    3    0    0 -0.14722816949E+02  0.30313702873E+02 -0.14836306550E+02  0.54366838790E+02  0.39999440585E+02 0.  0.
         12    1    3    3    0    0  0.14722816949E+02 -0.30313702873E+02  0.14836306550E+02  0.36821161210E+02  0.00000000000E+00 0. -1.
         11    1    4    4    0    0 -0.10752627527E+01  0.73995573918E+00  0.52047730847E+01  0.53659470373E+01  0.51100000000E-03 0. -1.
        -11    1    4    4    0    0  0.84420139196E+01  0.17500763526E+02 -0.10448553561E+02  0.22061654398E+02  0.51100000000E-03 0.  1.
        -12    1    4    4    0    0 -0.22089568116E+02  0.12072983608E+02 -0.95925260743E+01  0.26939237354E+02  0.00000000000E+00 0.  1.
</event>
<event>
 8    1  0.2512298E-006  0.9118800E+02  0.7816164E-02  0.1184000E+00
        -11   -1    0    0    0    0  0.00000000000E+00  0.00000000000E+00  0.45593999997E+02  0.45594000000E+02  0.51100000000E-03 0.  1.
         11   -1    0    0    0    0 -0.00000000000E+00 -0.00000000000E+00 -0.45593999997E+02  0.45594000000E+02  0.51100000000E-03 0. -1.
         23    2    1    2    0    0  0.35527136788E-14 -0.35527136788E-14  0.35527136788E-14  0.91188000000E+02  0.91188000000E+02 0.  0.
    9900012    2    3    3    0    0  0.16613492245E+02 -0.19006431040E+02  0.26805364067E+02  0.54367080835E+02  0.39999992379E+02 0.  0.
         12    1    3    3    0    0 -0.16613492245E+02  0.19006431040E+02 -0.26805364067E+02  0.36820919165E+02  0.00000000000E+00 0. -1.
         11    1    4    4    0    0 -0.15039970888E+01  0.35695557214E+01  0.32012374245E+01  0.50251026457E+01  0.51100000000E-03 0. -1.
        -11    1    4    4    0    0  0.20448051293E+02 -0.28476714096E+02  0.24724832365E+02  0.42899456676E+02  0.51100000000E-03 0.  1.
        -12    1    4    4    0    0 -0.23305619591E+01  0.59007273347E+01 -0.11207057227E+01  0.64425215126E+01  0.00000000000E+00 0.  1.
</event>
<event>
 8    1  0.2512298E-006  0.9118800E+02  0.7816164E-02  0.1184000E+00
        -11   -1    0    0    0    0  0.00000000000E+00  0.00000000000E+00  0.45593999997E+02  0.45594000000E+02  0.51100000000E-03 0.  1.
         11   -1    0    0    0    0 -0.00000000000E+00 -0.00000000000E+00 -0.45593999997E+02  0.45594000000E+02  0.51100000000E-03 0. -1.
         23    2    1    2    0    0  0.00000000000E+00  0.00000000000E+00  0.35527136788E-14  0.91188000000E+02  0.91188000000E+02 0.  0.
    9900012    2    3    3    0    0 -0.27847576615E+02  0.12678258585E+02  0.20483037853E+02  0.54367073833E+02  0.39999976418E+02 0.  0.
        -12    1    3    3    0    0  0.27847576615E+02 -0.12678258585E+02 -0.20483037853E+02  0.36820926167E+02  0.00000000000E+00 0.  1.
         11    1    4    4    0    0 -0.67582939063E+01  0.18552783077E+02 -0.18288731428E+01  0.19829903521E+02  0.51100000000E-03 0. -1.
        -11    1    4    4    0    0  0.20389523611E+01 -0.18402920904E+01  0.13366629048E+01  0.30546144914E+01  0.51100000000E-03 0.  1.
        -12    1    4    4    0    0 -0.23128235070E+02 -0.40342324015E+01  0.20975248091E+02  0.31482555821E+02  0.00000000000E+00 0.  1.
</event>
<event>
 8    1  0.2512298E-006  0.9118800E+02  0.7816164E-02  0.1184000E+00
        -11   -1    0    0    0    0  0.00000000000E+00  0.00000000000E+00  0.45593999997E+02  0.45594000000E+02  0.51100000000E-03 0.  1.
         11   -1    0    0    0    0 -0.00000000000E+00 -0.00000000000E+00 -0.45593999997E+02  0.45594000000E+02  0.51100000000E-03 0. -1.
         23    2    1    2    0    0 -0.88817841970E-15 -0.44408920985E-15  0.00000000000E+00  0.91188000000E+02  0.91188000000E+02 0.  0.
    9900012    2    3    3    0    0  0.22222591102E+01 -0.12606911537E+01  0.36732164602E+02  0.54367086186E+02  0.40000004578E+02 0.  0.
         12    1    3    3    0    0 -0.22222591102E+01  0.12606911537E+01 -0.36732164602E+02  0.36820913814E+02  0.00000000000E+00 0. -1.
         11    1    4    4    0    0  0.93249618541E+01 -0.36018322037E+01  0.65282038172E+01  0.11939244287E+02  0.51100000000E-03 0. -1.
        -11    1    4    4    0    0 -0.88653642368E+01 -0.68355899325E+01  0.40922129968E+00  0.11202117439E+02  0.51100000000E-03 0.  1.
         12    1    4    4    0    0  0.17626614929E+01  0.91767309825E+01  0.29794739485E+02  0.31225724460E+02  0.00000000000E+00 0. -1.
</event>
<event>
 8    1  0.2512298E-006  0.9118800E+02  0.7816164E-02  0.1184000E+00
        -11   -1    0    0    0    0  0.00000000000E+00  0.00000000000E+00  0.45593999997E+02  0.45594000000E+02  0.51100000000E-03 0. -1.
         11   -1    0    0    0    0 -0.00000000000E+00 -0.00000000000E+00 -0.45593999997E+02  0.45594000000E+02  0.51100000000E-03 0.  1.
         23    2    1    2    0    0 -0.71054273576E-14 -0.88817841970E-15  0.35527136788E-14  0.91188000000E+02  0.91188000000E+02 0.  0.
    9900012    2    3    3    0    0  0.32648721979E+02  0.45393682675E+01 -0.16408384514E+02  0.54367082120E+02  0.39999995310E+02 0.  0.
         12    1    3    3    0    0 -0.32648721979E+02 -0.45393682675E+01  0.16408384514E+02  0.36820917880E+02  0.00000000000E+00 0. -1.
         11    1    4    4    0    0  0.80841065412E+01 -0.64296637089E+01 -0.20579505417E+02  0.23026276239E+02  0.51100000000E-03 0. -1.
        -11    1    4    4    0    0 -0.13725639736E+01  0.38493557027E+01  0.13144445324E+01  0.42929285898E+01  0.51100000000E-03 0.  1.
         12    1    4    4    0    0  0.25937179412E+02  0.71196762737E+01  0.28566763709E+01  0.27047877291E+02  0.00000000000E+00 0. -1.
</event>
<event>
 8    1  0.2512298E-006  0.9118800E+02  0.7816164E-02  0.1184000E+00
        -11   -1    0    0    0    0  0.00000000000E+00  0.00000000000E+00  0.45593999997E+02  0.45594000000E+02  0.51100000000E-03 0.  1.
         11   -1    0    0    0    0 -0.00000000000E+00 -0.00000000000E+00 -0.45593999997E+02  0.45594000000E+02  0.51100000000E-03 0. -1.
         23    2    1    2    0    0  0.35527136788E-14 -0.35527136788E-14  0.55511151231E-15  0.91188000000E+02  0.91188000000E+02 0.  0.
    9900012    2    3    3    0    0 -0.19905368843E+02  0.30970899054E+02  0.60063380531E+00  0.54367067666E+02  0.39999962358E+02 0.  0.
         12    1    3    3    0    0  0.19905368843E+02 -0.30970899054E+02 -0.60063380531E+00  0.36820932334E+02  0.00000000000E+00 0. -1.
         11    1    4    4    0    0  0.25796874887E+01  0.14261354305E+01 -0.81391896062E+01  0.86565037696E+01  0.51100000000E-03 0.  1.
        -11    1    4    4    0    0 -0.96101701227E+00  0.21948753224E+02  0.55844957169E+01  0.22668434319E+02  0.51100000000E-03 0. -1.
        -12    1    4    4    0    0 -0.21524039319E+02  0.75960103996E+01  0.31553276946E+01  0.23042129578E+02  0.00000000000E+00 0.  1.
</event>
<event>
 8    1  0.2512298E-006  0.9118800E+02  0.7816164E-02  0.1184000E+00
        -11   -1    0    0    0    0  0.00000000000E+00  0.00000000000E+00  0.45593999997E+02  0.45594000000E+02  0.51100000000E-03 0. -1.
         11   -1    0    0    0    0 -0.00000000000E+00 -0.00000000000E+00 -0.45593999997E+02  0.45594000000E+02  0.51100000000E-03 0.  1.
         23    2    1    2    0    0  0.00000000000E+00  0.00000000000E+00  0.00000000000E+00  0.91188000000E+02  0.91188000000E+02 0.  0.
    9900012    2    3    3    0    0 -0.54295502496E+01 -0.19615691388E+02  0.30684265434E+02  0.54367088689E+02  0.40000010285E+02 0.  0.
        -12    1    3    3    0    0  0.54295502496E+01  0.19615691388E+02 -0.30684265434E+02  0.36820911311E+02  0.00000000000E+00 0.  1.
         11    1    4    4    0    0  0.61589052213E+00  0.97309257466E+01  0.96230751171E+01  0.13699409184E+02  0.51100000000E-03 0. -1.
        -11    1    4    4    0    0 -0.70834217661E+01 -0.20610111211E+02  0.50075190243E+01  0.22361278923E+02  0.51100000000E-03 0.  1.
         12    1    4    4    0    0  0.10379809944E+01 -0.87365059240E+01  0.16053671293E+02  0.18306400582E+02  0.00000000000E+00 0. -1.
</event>
<event>
 8    1  0.2512298E-006  0.9118800E+02  0.7816164E-02  0.1184000E+00
        -11   -1    0    0    0    0  0.00000000000E+00  0.00000000000E+00  0.45593999997E+02  0.45594000000E+02  0.51100000000E-03 0.  1.
         11   -1    0    0    0    0 -0.00000000000E+00 -0.00000000000E+00 -0.45593999997E+02  0.45594000000E+02  0.51100000000E-03 0. -1.
         23    2    1    2    0    0  0.00000000000E+00  0.17763568394E-14  0.35527136788E-14  0.91188000000E+02  0.91188000000E+02 0.  0.
    9900012    2    3    3    0    0 -0.32344519154E+02  0.12174231025E+02  0.12704322123E+02  0.54367087180E+02  0.40000006843E+02 0.  0.
        -12    1    3    3    0    0  0.32344519154E+02 -0.12174231025E+02 -0.12704322123E+02  0.36820912820E+02  0.00000000000E+00 0.  1.
         11    1    4    4    0    0 -0.26772874035E+02  0.25508090728E+02  0.92034420864E+01  0.38107122998E+02  0.51100000000E-03 0. -1.
        -11    1    4    4    0    0 -0.39732458614E+00 -0.79995638051E+01 -0.81882248754E-01  0.80098434980E+01  0.51100000000E-03 0.  1.
         12    1    4    4    0    0 -0.51743205330E+01 -0.53342958983E+01  0.35827622850E+01  0.82501206839E+01  0.00000000000E+00 0. -1.
</event>
<event>
 8    1  0.2512298E-006  0.9118800E+02  0.7816164E-02  0.1184000E+00
        -11   -1    0    0    0    0  0.00000000000E+00  0.00000000000E+00  0.45593999997E+02  0.45594000000E+02  0.51100000000E-03 0. -1.
         11   -1    0    0    0    0 -0.00000000000E+00 -0.00000000000E+00 -0.45593999997E+02  0.45594000000E+02  0.51100000000E-03 0.  1.
         23    2    1    2    0    0 -0.71054273576E-14  0.00000000000E+00  0.00000000000E+00  0.91188000000E+02  0.91188000000E+02 0.  0.
    9900012    2    3    3    0    0 -0.32323822731E+02 -0.12242611806E+02 -0.12691331602E+02  0.54367069028E+02  0.39999965464E+02 0.  0.
        -12    1    3    3    0    0  0.32323822731E+02  0.12242611806E+02  0.12691331602E+02  0.36820930972E+02  0.00000000000E+00 0.  1.
         11    1    4    4    0    0 -0.33999516328E+02 -0.12699977116E+02  0.17920213411E+01  0.36338242528E+02  0.51100000000E-03 0. -1.
        -11    1    4    4    0    0 -0.29034601872E+00 -0.49230982929E+01 -0.56377593693E+01  0.74903623798E+01  0.51100000000E-03 0.  1.
         12    1    4    4    0    0  0.19660396159E+01  0.53804636022E+01 -0.88455935739E+01  0.10538464121E+02  0.00000000000E+00 0. -1.
</event>
<event>
 8    1  0.2512298E-006  0.9118800E+02  0.7816164E-02  0.1184000E+00
        -11   -1    0    0    0    0  0.00000000000E+00  0.00000000000E+00  0.45593999997E+02  0.45594000000E+02  0.51100000000E-03 0.  1.
         11   -1    0    0    0    0 -0.00000000000E+00 -0.00000000000E+00 -0.45593999997E+02  0.45594000000E+02  0.51100000000E-03 0. -1.
         23    2    1    2    0    0  0.00000000000E+00 -0.88817841970E-15  0.44408920985E-15  0.91188000000E+02  0.91188000000E+02 0.  0.
    9900012    2    3    3    0    0 -0.35978659455E+02  0.70730515884E+01 -0.33601774936E+01  0.54367044177E+02  0.39999908810E+02 0.  0.
         12    1    3    3    0    0  0.35978659455E+02 -0.70730515884E+01  0.33601774936E+01  0.36820955823E+02  0.00000000000E+00 0. -1.
         11    1    4    4    0    0 -0.49754811604E+01 -0.47480639669E+01 -0.88539180802E+01  0.11211217144E+02  0.51100000000E-03 0. -1.
        -11    1    4    4    0    0 -0.22771926294E+02 -0.34218142055E+01  0.10228461668E+02  0.25197040857E+02  0.51100000000E-03 0.  1.
         12    1    4    4    0    0 -0.82312520003E+01  0.15242929761E+02 -0.47347210818E+01  0.17958786176E+02  0.00000000000E+00 0. -1.
</event>
<event>
 8    1  0.2512298E-006  0.9118800E+02  0.7816164E-02  0.1184000E+00
        -11   -1    0    0    0    0  0.00000000000E+00  0.00000000000E+00  0.45593999997E+02  0.45594000000E+02  0.51100000000E-03 0. -1.
         11   -1    0    0    0    0 -0.00000000000E+00 -0.00000000000E+00 -0.45593999997E+02  0.45594000000E+02  0.51100000000E-03 0.  1.
         23    2    1    2    0    0  0.00000000000E+00 -0.14432899320E-14  0.00000000000E+00  0.91188000000E+02  0.91188000000E+02 0.  0.
    9900012    2    3    3    0    0  0.47225827445E+01  0.88429773106E+00 -0.36506108126E+02  0.54367072516E+02  0.39999973415E+02 0.  0.
         12    1    3    3    0    0 -0.47225827445E+01 -0.88429773106E+00  0.36506108126E+02  0.36820927484E+02  0.00000000000E+00 0. -1.
         11    1    4    4    0    0  0.96197460553E+00  0.13323045082E+02 -0.89665002383E+01  0.16088102815E+02  0.51100000000E-03 0. -1.
        -11    1    4    4    0    0  0.32116902135E+01 -0.17079039412E+02 -0.98354990481E+01  0.19968614951E+02  0.51100000000E-03 0.  1.
         12    1    4    4    0    0  0.54891792555E+00  0.46402920611E+01 -0.17704108840E+02  0.18310354751E+02  0.00000000000E+00 0. -1.
</event>
<event>
 8    1  0.2512298E-006  0.9118800E+02  0.7816164E-02  0.1184000E+00
        -11   -1    0    0    0    0  0.00000000000E+00  0.00000000000E+00  0.45593999997E+02  0.45594000000E+02  0.51100000000E-03 0. -1.
         11   -1    0    0    0    0 -0.00000000000E+00 -0.00000000000E+00 -0.45593999997E+02  0.45594000000E+02  0.51100000000E-03 0.  1.
         23    2    1    2    0    0 -0.35527136788E-14 -0.35527136788E-14  0.35527136788E-14  0.91188000000E+02  0.91188000000E+02 0.  0.
    9900012    2    3    3    0    0  0.19200338438E+02  0.14721324773E+02 -0.27756283958E+02  0.54367058969E+02  0.39999942532E+02 0.  0.
         12    1    3    3    0    0 -0.19200338438E+02 -0.14721324773E+02  0.27756283958E+02  0.36820941031E+02  0.00000000000E+00 0. -1.
         11    1    4    4    0    0 -0.28075778800E+01  0.49285968862E+00 -0.60527747238E+01  0.66904025546E+01  0.51100000000E-03 0. -1.
        -11    1    4    4    0    0 -0.27989404551E+01 -0.73555502685E+00 -0.18276215468E+02  0.18503922853E+02  0.51100000000E-03 0.  1.
         12    1    4    4    0    0  0.24806856773E+02  0.14964020111E+02 -0.34272937666E+01  0.29172733561E+02  0.00000000000E+00 0. -1.
</event>
<event>
 8    1  0.2512298E-006  0.9118800E+02  0.7816164E-02  0.1184000E+00
        -11   -1    0    0    0    0  0.00000000000E+00  0.00000000000E+00  0.45593999997E+02  0.45594000000E+02  0.51100000000E-03 0.  1.
         11   -1    0    0    0    0 -0.00000000000E+00 -0.00000000000E+00 -0.45593999997E+02  0.45594000000E+02  0.51100000000E-03 0. -1.
         23    2    1    2    0    0  0.35527136788E-14  0.00000000000E+00  0.00000000000E+00  0.91188000000E+02  0.91188000000E+02 0.  0.
    9900012    2    3    3    0    0 -0.27175220436E+02  0.15982465939E+02  0.19022290412E+02  0.54367090781E+02  0.40000015053E+02 0.  0.
         12    1    3    3    0    0  0.27175220436E+02 -0.15982465939E+02 -0.19022290412E+02  0.36820909219E+02  0.00000000000E+00 0. -1.
         11    1    4    4    0    0 -0.42337604198E+01 -0.93745667117E+01  0.98075657581E+01  0.14212514721E+02  0.51100000000E-03 0. -1.
        -11    1    4    4    0    0 -0.15711847082E+02  0.71166070781E+01 -0.23052113114E+01  0.17401788255E+02  0.51100000000E-03 0.  1.
        -12    1    4    4    0    0 -0.72296129343E+01  0.18240425573E+02  0.11519935966E+02  0.22752787805E+02  0.00000000000E+00 0.  1.
</event>
<event>
 8    1  0.2512298E-006  0.9118800E+02  0.7816164E-02  0.1184000E+00
        -11   -1    0    0    0    0  0.00000000000E+00  0.00000000000E+00  0.45593999997E+02  0.45594000000E+02  0.51100000000E-03 0. -1.
         11   -1    0    0    0    0 -0.00000000000E+00 -0.00000000000E+00 -0.45593999997E+02  0.45594000000E+02  0.51100000000E-03 0.  1.
         23    2    1    2    0    0 -0.17763568394E-14  0.00000000000E+00  0.00000000000E+00  0.91188000000E+02  0.91188000000E+02 0.  0.
    9900012    2    3    3    0    0 -0.63819130291E+01  0.16762452513E+02 -0.32156989551E+02  0.54367073815E+02  0.39999976375E+02 0.  0.
         12    1    3    3    0    0  0.63819130291E+01 -0.16762452513E+02  0.32156989551E+02  0.36820926185E+02  0.00000000000E+00 0. -1.
         11    1    4    4    0    0  0.90042177805E+01  0.62172877103E+01 -0.24728169107E+02  0.27040949539E+02  0.51100000000E-03 0. -1.
        -11    1    4    4    0    0 -0.15613962533E+02  0.36319226205E+01 -0.11096753217E+02  0.19496784867E+02  0.51100000000E-03 0.  1.
        -12    1    4    4    0    0  0.22783172379E+00  0.69132421818E+01  0.36679327729E+01  0.78293394092E+01  0.00000000000E+00 0.  1.
</event>
<event>
 8    1  0.2512298E-006  0.9118800E+02  0.7816164E-02  0.1184000E+00
        -11   -1    0    0    0    0  0.00000000000E+00  0.00000000000E+00  0.45593999997E+02  0.45594000000E+02  0.51100000000E-03 0. -1.
         11   -1    0    0    0    0 -0.00000000000E+00 -0.00000000000E+00 -0.45593999997E+02  0.45594000000E+02  0.51100000000E-03 0.  1.
         23    2    1    2    0    0  0.00000000000E+00  0.00000000000E+00  0.71054273576E-14  0.91188000000E+02  0.91188000000E+02 0.  0.
    9900012    2    3    3    0    0 -0.14498982175E+02 -0.44156531553E+01  0.33556828890E+02  0.54367092325E+02  0.40000018573E+02 0.  0.
        -12    1    3    3    0    0  0.14498982175E+02  0.44156531553E+01 -0.33556828890E+02  0.36820907675E+02  0.00000000000E+00 0.  1.
         11    1    4    4    0    0 -0.20428487477E+02 -0.45636170307E+01  0.14452088479E+02  0.25436441627E+02  0.51100000000E-03 0. -1.
        -11    1    4    4    0    0 -0.68801800384E+01 -0.43593690671E+01  0.70412481112E+01  0.10766622091E+02  0.51100000000E-03 0.  1.
        -12    1    4    4    0    0  0.12809685340E+02  0.45073329426E+01  0.12063492299E+02  0.18164028607E+02  0.00000000000E+00 0.  1.
</event>
<event>
 8    1  0.2512298E-006  0.9118800E+02  0.7816164E-02  0.1184000E+00
        -11   -1    0    0    0    0  0.00000000000E+00  0.00000000000E+00  0.45593999997E+02  0.45594000000E+02  0.51100000000E-03 0. -1.
         11   -1    0    0    0    0 -0.00000000000E+00 -0.00000000000E+00 -0.45593999997E+02  0.45594000000E+02  0.51100000000E-03 0.  1.
         23    2    1    2    0    0  0.71054273576E-14  0.00000000000E+00  0.00000000000E+00  0.91188000000E+02  0.91188000000E+02 0.  0.
    9900012    2    3    3    0    0  0.33827040360E+02 -0.11942251982E+02  0.83002306413E+01  0.54367083789E+02  0.39999999115E+02 0.  0.
        -12    1    3    3    0    0 -0.33827040360E+02  0.11942251982E+02 -0.83002306413E+01  0.36820916211E+02  0.00000000000E+00 0.  1.
         11    1    4    4    0    0  0.35150845461E+00  0.46176487067E+00  0.83488205434E+01  0.83689658690E+01  0.51100000000E-03 0. -1.
        -11    1    4    4    0    0 -0.24142205067E+01 -0.96461495871E+01  0.94804084597E+00  0.99887659007E+01  0.51100000000E-03 0.  1.
        -12    1    4    4    0    0  0.35889752412E+02 -0.27578672653E+01 -0.99663074800E+00  0.36009352020E+02  0.00000000000E+00 0.  1.
</event>
<event>
 8    1  0.2512298E-006  0.9118800E+02  0.7816164E-02  0.1184000E+00
        -11   -1    0    0    0    0  0.00000000000E+00  0.00000000000E+00  0.45593999997E+02  0.45594000000E+02  0.51100000000E-03 0.  1.
         11   -1    0    0    0    0 -0.00000000000E+00 -0.00000000000E+00 -0.45593999997E+02  0.45594000000E+02  0.51100000000E-03 0. -1.
         23    2    1    2    0    0 -0.71054273576E-14 -0.35527136788E-14  0.17763568394E-14  0.91188000000E+02  0.91188000000E+02 0.  0.
    9900012    2    3    3    0    0  0.23237751079E+02  0.26385833348E+02  0.10934990281E+02  0.54367091685E+02  0.40000017115E+02 0.  0.
         12    1    3    3    0    0 -0.23237751079E+02 -0.26385833348E+02 -0.10934990281E+02  0.36820908315E+02  0.00000000000E+00 0. -1.
         11    1    4    4    0    0  0.37399888629E+01  0.68647419337E+01  0.73495403586E+01  0.10729768975E+02  0.51100000000E-03 0. -1.
        -11    1    4    4    0    0  0.19305372051E+02  0.17261843106E+02  0.16380490304E+02  0.30642928716E+02  0.51100000000E-03 0.  1.
         12    1    4    4    0    0  0.19239016502E+00  0.22592483081E+01 -0.12795040382E+02  0.12994393994E+02  0.00000000000E+00 0. -1.
</event>
<event>
 8    1  0.2512298E-006  0.9118800E+02  0.7816164E-02  0.1184000E+00
        -11   -1    0    0    0    0  0.00000000000E+00  0.00000000000E+00  0.45593999997E+02  0.45594000000E+02  0.51100000000E-03 0. -1.
         11   -1    0    0    0    0 -0.00000000000E+00 -0.00000000000E+00 -0.45593999997E+02  0.45594000000E+02  0.51100000000E-03 0.  1.
         23    2    1    2    0    0  0.00000000000E+00 -0.35527136788E-14 -0.17763568394E-14  0.91188000000E+02  0.91188000000E+02 0.  0.
    9900012    2    3    3    0    0  0.17269842235E+02  0.29494363738E+02  0.13697362404E+02  0.54367045641E+02  0.39999912147E+02 0.  0.
        -12    1    3    3    0    0 -0.17269842235E+02 -0.29494363738E+02 -0.13697362404E+02  0.36820954359E+02  0.00000000000E+00 0.  1.
         11    1    4    4    0    0  0.17455142609E+02  0.26250840973E+02  0.10102931422E+02  0.33103744182E+02  0.51100000000E-03 0. -1.
        -11    1    4    4    0    0 -0.16283794057E+01  0.11377678153E+02  0.55655637762E+01  0.12770226312E+02  0.51100000000E-03 0.  1.
         12    1    4    4    0    0  0.14430790318E+01 -0.81341553879E+01 -0.19711327942E+01  0.84930751474E+01  0.00000000000E+00 0. -1.
</event>
<event>
 8    1  0.2512298E-006  0.9118800E+02  0.7816164E-02  0.1184000E+00
        -11   -1    0    0    0    0  0.00000000000E+00  0.00000000000E+00  0.45593999997E+02  0.45594000000E+02  0.51100000000E-03 0.  1.
         11   -1    0    0    0    0 -0.00000000000E+00 -0.00000000000E+00 -0.45593999997E+02  0.45594000000E+02  0.51100000000E-03 0. -1.
         23    2    1    2    0    0 -0.35527136788E-14  0.35527136788E-14 -0.35527136788E-14  0.91188000000E+02  0.91188000000E+02 0.  0.
    9900012    2    3    3    0    0  0.16509400537E+02  0.28622414128E+02  0.16247369897E+02  0.54367083048E+02  0.39999997424E+02 0.  0.
         12    1    3    3    0    0 -0.16509400537E+02 -0.28622414128E+02 -0.16247369897E+02  0.36820916952E+02  0.00000000000E+00 0. -1.
         11    1    4    4    0    0  0.11678943842E+01  0.14879736549E+02 -0.27398025775E+01  0.15174882388E+02  0.51100000000E-03 0. -1.
        -11    1    4    4    0    0  0.10792890129E+01  0.14043476563E+02 -0.15679798232E+01  0.14171896829E+02  0.51100000000E-03 0.  1.
         12    1    4    4    0    0  0.14262217140E+02 -0.30079898427E+00  0.20555152298E+02  0.25020303831E+02  0.00000000000E+00 0. -1.
</event>
<event>
 8    1  0.2512298E-006  0.9118800E+02  0.7816164E-02  0.1184000E+00
        -11   -1    0    0    0    0  0.00000000000E+00  0.00000000000E+00  0.45593999997E+02  0.45594000000E+02  0.51100000000E-03 0.  1.
         11   -1    0    0    0    0 -0.00000000000E+00 -0.00000000000E+00 -0.45593999997E+02  0.45594000000E+02  0.51100000000E-03 0. -1.
         23    2    1    2    0    0 -0.44408920985E-15  0.00000000000E+00  0.35527136788E-14  0.91188000000E+02  0.91188000000E+02 0.  0.
    9900012    2    3    3    0    0  0.51284346466E+00 -0.23199781957E+02 -0.28588285399E+02  0.54367041928E+02  0.39999903684E+02 0.  0.
        -12    1    3    3    0    0 -0.51284346466E+00  0.23199781957E+02  0.28588285399E+02  0.36820958072E+02  0.00000000000E+00 0.  1.
         11    1    4    4    0    0 -0.31273284296E+01  0.12072951176E+01 -0.14562751752E+02  0.14943610121E+02  0.51100000000E-03 0. -1.
        -11    1    4    4    0    0  0.65232474880E+01 -0.94467786129E+00  0.56392379196E+01  0.86744555233E+01  0.51100000000E-03 0.  1.
        -12    1    4    4    0    0 -0.28830755937E+01 -0.23462399213E+02 -0.19664771567E+02  0.30748976284E+02  0.00000000000E+00 0.  1.
</event>
<event>
 8    1  0.2512298E-006  0.9118800E+02  0.7816164E-02  0.1184000E+00
        -11   -1    0    0    0    0  0.00000000000E+00  0.00000000000E+00  0.45593999997E+02  0.45594000000E+02  0.51100000000E-03 0.  1.
         11   -1    0    0    0    0 -0.00000000000E+00 -0.00000000000E+00 -0.45593999997E+02  0.45594000000E+02  0.51100000000E-03 0. -1.
         23    2    1    2    0    0  0.00000000000E+00  0.00000000000E+00  0.35527136788E-14  0.91188000000E+02  0.91188000000E+02 0.  0.
    9900012    2    3    3    0    0 -0.35126977423E+02 -0.44749757862E+01 -0.10092015540E+02  0.54367099294E+02  0.40000034460E+02 0.  0.
        -12    1    3    3    0    0  0.35126977423E+02  0.44749757862E+01  0.10092015540E+02  0.36820900706E+02  0.00000000000E+00 0.  1.
         11    1    4    4    0    0 -0.30866055759E+02  0.55955654117E+00 -0.13633677641E+02  0.33747646850E+02  0.51100000000E-03 0. -1.
        -11    1    4    4    0    0 -0.81856855339E+01 -0.62807193452E+00 -0.54574611743E+01  0.98581846576E+01  0.51100000000E-03 0.  1.
        -12    1    4    4    0    0  0.39247638700E+01 -0.44064603929E+01  0.89991232759E+01  0.10761267786E+02  0.00000000000E+00 0.  1.
</event>
<event>
 8    1  0.2512298E-006  0.9118800E+02  0.7816164E-02  0.1184000E+00
        -11   -1    0    0    0    0  0.00000000000E+00  0.00000000000E+00  0.45593999997E+02  0.45594000000E+02  0.51100000000E-03 0.  1.
         11   -1    0    0    0    0 -0.00000000000E+00 -0.00000000000E+00 -0.45593999997E+02  0.45594000000E+02  0.51100000000E-03 0. -1.
         23    2    1    2    0    0  0.00000000000E+00  0.00000000000E+00  0.00000000000E+00  0.91188000000E+02  0.91188000000E+02 0.  0.
    9900012    2    3    3    0    0 -0.35867210222E+02  0.53838462148E+01  0.63511607302E+01  0.54367084588E+02  0.40000000936E+02 0.  0.
         12    1    3    3    0    0  0.35867210222E+02 -0.53838462148E+01 -0.63511607302E+01  0.36820915412E+02  0.00000000000E+00 0. -1.
         11    1    4    4    0    0 -0.12979016658E+02  0.53534146397E+01  0.78384072989E+01  0.16079631556E+02  0.51100000000E-03 0.  1.
        -11    1    4    4    0    0 -0.79138432805E+01 -0.64645459261E+01 -0.14272843626E+02  0.17553727095E+02  0.51100000000E-03 0. -1.
         12    1    4    4    0    0 -0.14974350283E+02  0.64949775012E+01  0.12785597057E+02  0.20733725937E+02  0.00000000000E+00 0. -1.
</event>
<event>
 8    1  0.2512298E-006  0.9118800E+02  0.7816164E-02  0.1184000E+00
        -11   -1    0    0    0    0  0.00000000000E+00  0.00000000000E+00  0.45593999997E+02  0.45594000000E+02  0.51100000000E-03 0.  1.
         11   -1    0    0    0    0 -0.00000000000E+00 -0.00000000000E+00 -0.45593999997E+02  0.45594000000E+02  0.51100000000E-03 0. -1.
         23    2    1    2    0    0  0.00000000000E+00 -0.12212453271E-14  0.00000000000E+00  0.91188000000E+02  0.91188000000E+02 0.  0.
    9900012    2    3    3    0    0  0.34744255684E+02 -0.66352667991E+00  0.12172654358E+02  0.54367121618E+02  0.40000085352E+02 0.  0.
         12    1    3    3    0    0 -0.34744255684E+02  0.66352667991E+00 -0.12172654358E+02  0.36820878382E+02  0.00000000000E+00 0. -1.
         11    1    4    4    0    0  0.15234307721E+01  0.12119429911E+02  0.57397421325E+01  0.13496149922E+02  0.51100000000E-03 0. -1.
        -11    1    4    4    0    0  0.23019452115E+02 -0.17587351464E+02  0.60158631693E+01  0.29587171496E+02  0.51100000000E-03 0.  1.
        -12    1    4    4    0    0  0.10201372797E+02  0.48043948729E+01  0.41704905629E+00  0.11283800200E+02  0.00000000000E+00 0.  1.
</event>
<event>
 8    1  0.2512298E-006  0.9118800E+02  0.7816164E-02  0.1184000E+00
        -11   -1    0    0    0    0  0.00000000000E+00  0.00000000000E+00  0.45593999997E+02  0.45594000000E+02  0.51100000000E-03 0. -1.
         11   -1    0    0    0    0 -0.00000000000E+00 -0.00000000000E+00 -0.45593999997E+02  0.45594000000E+02  0.51100000000E-03 0.  1.
         23    2    1    2    0    0  0.00000000000E+00  0.35527136788E-14  0.99920072216E-15  0.91188000000E+02  0.91188000000E+02 0.  0.
    9900012    2    3    3    0    0  0.19526856266E+02 -0.31211972664E+02 -0.53671767411E+00  0.54367171396E+02  0.40000198832E+02 0.  0.
        -12    1    3    3    0    0 -0.19526856266E+02  0.31211972664E+02  0.53671767411E+00  0.36820828604E+02  0.00000000000E+00 0.  1.
         11    1    4    4    0    0  0.27889432277E+02 -0.23786533882E+02 -0.10489448824E+02  0.38126738173E+02  0.51100000000E-03 0. -1.
        -11    1    4    4    0    0 -0.89970219558E+01 -0.79385066346E+01  0.90906616339E+01  0.15053452124E+02  0.51100000000E-03 0.  1.
         12    1    4    4    0    0  0.63444594464E+00  0.51306785281E+00  0.86206951560E+00  0.11869810984E+01  0.00000000000E+00 0. -1.
</event>
<event>
 8    1  0.2512298E-006  0.9118800E+02  0.7816164E-02  0.1184000E+00
        -11   -1    0    0    0    0  0.00000000000E+00  0.00000000000E+00  0.45593999997E+02  0.45594000000E+02  0.51100000000E-03 0. -1.
         11   -1    0    0    0    0 -0.00000000000E+00 -0.00000000000E+00 -0.45593999997E+02  0.45594000000E+02  0.51100000000E-03 0.  1.
         23    2    1    2    0    0  0.35527136788E-14  0.00000000000E+00 -0.35527136788E-14  0.91188000000E+02  0.91188000000E+02 0.  0.
    9900012    2    3    3    0    0 -0.13654122830E+02  0.15244732992E+02 -0.30609449969E+02  0.54367144746E+02  0.40000138076E+02 0.  0.
         12    1    3    3    0    0  0.13654122830E+02 -0.15244732992E+02  0.30609449969E+02  0.36820855254E+02  0.00000000000E+00 0. -1.
         11    1    4    4    0    0  0.53314781044E+01 -0.39184142761E+01 -0.70343343205E+00  0.66538295793E+01  0.51100000000E-03 0. -1.
        -11    1    4    4    0    0  0.76328325005E+00  0.17272172470E+02 -0.12699857228E+02  0.21452200750E+02  0.51100000000E-03 0.  1.
        -12    1    4    4    0    0 -0.19748884184E+02  0.18909747978E+01 -0.17206159310E+02  0.26261114416E+02  0.00000000000E+00 0.  1.
</event>
<event>
 8    1  0.2512298E-006  0.9118800E+02  0.7816164E-02  0.1184000E+00
        -11   -1    0    0    0    0  0.00000000000E+00  0.00000000000E+00  0.45593999997E+02  0.45594000000E+02  0.51100000000E-03 0. -1.
         11   -1    0    0    0    0 -0.00000000000E+00 -0.00000000000E+00 -0.45593999997E+02  0.45594000000E+02  0.51100000000E-03 0.  1.
         23    2    1    2    0    0  0.71054273576E-14 -0.88817841970E-15 -0.17763568394E-14  0.91188000000E+02  0.91188000000E+02 0.  0.
    9900012    2    3    3    0    0 -0.34498666473E+02  0.56038636129E+01  0.11585259412E+02  0.54367088666E+02  0.40000010232E+02 0.  0.
        -12    1    3    3    0    0  0.34498666473E+02 -0.56038636129E+01 -0.11585259412E+02  0.36820911334E+02  0.00000000000E+00 0.  1.
         11    1    4    4    0    0 -0.14461514697E+02 -0.50744400865E+01  0.14651437821E+02  0.21202593709E+02  0.51100000000E-03 0. -1.
        -11    1    4    4    0    0 -0.15957806495E+02  0.17907834005E+01 -0.11899658033E+02  0.19986504319E+02  0.51100000000E-03 0.  1.
        -12    1    4    4    0    0 -0.40793452810E+01  0.88875202989E+01  0.88334796242E+01  0.13177990638E+02  0.00000000000E+00 0.  1.
</event>
<event>
 8    1  0.2512298E-006  0.9118800E+02  0.7816164E-02  0.1184000E+00
        -11   -1    0    0    0    0  0.00000000000E+00  0.00000000000E+00  0.45593999997E+02  0.45594000000E+02  0.51100000000E-03 0.  1.
         11   -1    0    0    0    0 -0.00000000000E+00 -0.00000000000E+00 -0.45593999997E+02  0.45594000000E+02  0.51100000000E-03 0. -1.
         23    2    1    2    0    0  0.00000000000E+00  0.35527136788E-14  0.00000000000E+00  0.91188000000E+02  0.91188000000E+02 0.  0.
    9900012    2    3    3    0    0 -0.63476547146E+01 -0.23115505287E+02  0.27949237783E+02  0.54367092927E+02  0.40000019946E+02 0.  0.
         12    1    3    3    0    0  0.63476547146E+01  0.23115505287E+02 -0.27949237783E+02  0.36820907073E+02  0.00000000000E+00 0. -1.
         11    1    4    4    0    0 -0.37692550346E+01  0.63152304846E+01  0.75722124359E+01  0.10555937714E+02  0.51100000000E-03 0. -1.
        -11    1    4    4    0    0  0.99574854376E+01 -0.64222231878E+01  0.25511437602E+01  0.12120429104E+02  0.51100000000E-03 0.  1.
         12    1    4    4    0    0 -0.12535885118E+02 -0.23008512584E+02  0.17825881586E+02  0.31690726109E+02  0.00000000000E+00 0. -1.
</event>
<event>
 8    1  0.2512298E-006  0.9118800E+02  0.7816164E-02  0.1184000E+00
        -11   -1    0    0    0    0  0.00000000000E+00  0.00000000000E+00  0.45593999997E+02  0.45594000000E+02  0.51100000000E-03 0. -1.
         11   -1    0    0    0    0 -0.00000000000E+00 -0.00000000000E+00 -0.45593999997E+02  0.45594000000E+02  0.51100000000E-03 0.  1.
         23    2    1    2    0    0  0.35527136788E-14  0.00000000000E+00 -0.88817841970E-15  0.91188000000E+02  0.91188000000E+02 0.  0.
    9900012    2    3    3    0    0 -0.31505317768E+02 -0.18279335329E+02 -0.53907758156E+01  0.54367087306E+02  0.40000007132E+02 0.  0.
         12    1    3    3    0    0  0.31505317768E+02  0.18279335329E+02  0.53907758156E+01  0.36820912694E+02  0.00000000000E+00 0. -1.
         11    1    4    4    0    0  0.29541080767E+01 -0.89397651866E+01  0.37226447624E+01  0.10124437782E+02  0.51100000000E-03 0. -1.
        -11    1    4    4    0    0 -0.35909119238E+01 -0.92554003933E+01 -0.89608742160E+01  0.13373643926E+02  0.51100000000E-03 0.  1.
        -12    1    4    4    0    0 -0.30868513921E+02 -0.84169748802E-01 -0.15254636201E+00  0.30869005598E+02  0.00000000000E+00 0.  1.
</event>
<event>
 8    1  0.2512298E-006  0.9118800E+02  0.7816164E-02  0.1184000E+00
        -11   -1    0    0    0    0  0.00000000000E+00  0.00000000000E+00  0.45593999997E+02  0.45594000000E+02  0.51100000000E-03 0.  1.
         11   -1    0    0    0    0 -0.00000000000E+00 -0.00000000000E+00 -0.45593999997E+02  0.45594000000E+02  0.51100000000E-03 0. -1.
         23    2    1    2    0    0  0.00000000000E+00  0.00000000000E+00  0.83266726847E-15  0.91188000000E+02  0.91188000000E+02 0.  0.
    9900012    2    3    3    0    0 -0.16805922974E+02 -0.32759048465E+02 -0.43022208383E+00  0.54367090256E+02  0.40000013856E+02 0.  0.
         12    1    3    3    0    0  0.16805922974E+02  0.32759048465E+02  0.43022208383E+00  0.36820909744E+02  0.00000000000E+00 0. -1.
         11    1    4    4    0    0 -0.63210846480E+01 -0.16486626995E+00 -0.40732758897E+01  0.75216267356E+01  0.51100000000E-03 0. -1.
        -11    1    4    4    0    0 -0.30939831752E+01 -0.17557897119E+02  0.17590356195E+02  0.25045421028E+02  0.51100000000E-03 0.  1.
        -12    1    4    4    0    0 -0.73908551508E+01 -0.15036285076E+02 -0.13947302389E+02  0.21800042493E+02  0.00000000000E+00 0.  1.
</event>
<event>
 8    1  0.2512298E-006  0.9118800E+02  0.7816164E-02  0.1184000E+00
        -11   -1    0    0    0    0  0.00000000000E+00  0.00000000000E+00  0.45593999997E+02  0.45594000000E+02  0.51100000000E-03 0. -1.
         11   -1    0    0    0    0 -0.00000000000E+00 -0.00000000000E+00 -0.45593999997E+02  0.45594000000E+02  0.51100000000E-03 0.  1.
         23    2    1    2    0    0 -0.71054273576E-14 -0.17763568394E-14  0.00000000000E+00  0.91188000000E+02  0.91188000000E+02 0.  0.
    9900012    2    3    3    0    0  0.27422850197E+02  0.14538744587E+02 -0.19808930991E+02  0.54367060929E+02  0.39999947000E+02 0.  0.
         12    1    3    3    0    0 -0.27422850197E+02 -0.14538744587E+02  0.19808930991E+02  0.36820939071E+02  0.00000000000E+00 0. -1.
         11    1    4    4    0    0 -0.20800450766E+01  0.41004710064E+01 -0.12092506000E+02  0.12937123004E+02  0.51100000000E-03 0. -1.
        -11    1    4    4    0    0  0.23785579194E+01 -0.60548042297E+01 -0.71684259465E+01  0.96801096506E+01  0.51100000000E-03 0.  1.
         12    1    4    4    0    0  0.27124337354E+02  0.16493077810E+02 -0.54799904439E+00  0.31749828275E+02  0.00000000000E+00 0. -1.
</event>
<event>
 8    1  0.2512298E-006  0.9118800E+02  0.7816164E-02  0.1184000E+00
        -11   -1    0    0    0    0  0.00000000000E+00  0.00000000000E+00  0.45593999997E+02  0.45594000000E+02  0.51100000000E-03 0. -1.
         11   -1    0    0    0    0 -0.00000000000E+00 -0.00000000000E+00 -0.45593999997E+02  0.45594000000E+02  0.51100000000E-03 0.  1.
         23    2    1    2    0    0  0.00000000000E+00  0.00000000000E+00 -0.35527136788E-14  0.91188000000E+02  0.91188000000E+02 0.  0.
    9900012    2    3    3    0    0 -0.15704736063E+02  0.16091182324E+02  0.29158471558E+02  0.54367063742E+02  0.39999953412E+02 0.  0.
        -12    1    3    3    0    0  0.15704736063E+02 -0.16091182324E+02 -0.29158471558E+02  0.36820936258E+02  0.00000000000E+00 0.  1.
         11    1    4    4    0    0 -0.41862500370E+01  0.19041704439E+02  0.13739860336E+02  0.23851519022E+02  0.51100000000E-03 0. -1.
        -11    1    4    4    0    0 -0.11897685454E+02 -0.23333028456E+01 -0.26680229893E+01  0.12414409703E+02  0.51100000000E-03 0.  1.
        -12    1    4    4    0    0  0.37919942857E+00 -0.61721927002E+00  0.18086634211E+02  0.18101135017E+02  0.00000000000E+00 0.  1.
</event>
<event>
 8    1  0.2512298E-006  0.9118800E+02  0.7816164E-02  0.1184000E+00
        -11   -1    0    0    0    0  0.00000000000E+00  0.00000000000E+00  0.45593999997E+02  0.45594000000E+02  0.51100000000E-03 0.  1.
         11   -1    0    0    0    0 -0.00000000000E+00 -0.00000000000E+00 -0.45593999997E+02  0.45594000000E+02  0.51100000000E-03 0. -1.
         23    2    1    2    0    0  0.00000000000E+00  0.00000000000E+00  0.00000000000E+00  0.91188000000E+02  0.91188000000E+02 0.  0.
    9900012    2    3    3    0    0 -0.16299206763E+02 -0.20928141254E+02  0.25536909221E+02  0.54367014543E+02  0.39999841253E+02 0.  0.
         12    1    3    3    0    0  0.16299206763E+02  0.20928141254E+02 -0.25536909221E+02  0.36820985457E+02  0.00000000000E+00 0. -1.
         11    1    4    4    0    0  0.55912124644E+01 -0.14567521451E+02  0.24641722348E+02  0.29166570223E+02  0.51100000000E-03 0.  1.
        -11    1    4    4    0    0 -0.23504651701E+01 -0.50361015932E+01 -0.40639859566E+00  0.55724470255E+01  0.51100000000E-03 0. -1.
        -12    1    4    4    0    0 -0.19539954057E+02 -0.13245182107E+01  0.13015854683E+01  0.19627997294E+02  0.00000000000E+00 0.  1.
</event>
<event>
 8    1  0.2512298E-006  0.9118800E+02  0.7816164E-02  0.1184000E+00
        -11   -1    0    0    0    0  0.00000000000E+00  0.00000000000E+00  0.45593999997E+02  0.45594000000E+02  0.51100000000E-03 0.  1.
         11   -1    0    0    0    0 -0.00000000000E+00 -0.00000000000E+00 -0.45593999997E+02  0.45594000000E+02  0.51100000000E-03 0. -1.
         23    2    1    2    0    0  0.00000000000E+00  0.17763568394E-14  0.00000000000E+00  0.91188000000E+02  0.91188000000E+02 0.  0.
    9900012    2    3    3    0    0  0.28024490895E+02  0.15268188375E+02  0.18365458136E+02  0.54367085852E+02  0.40000003816E+02 0.  0.
         12    1    3    3    0    0 -0.28024490895E+02 -0.15268188375E+02 -0.18365458136E+02  0.36820914148E+02  0.00000000000E+00 0. -1.
         11    1    4    4    0    0  0.11273138126E+02  0.95140233473E+01 -0.76633835754E+01  0.16623108360E+02  0.51100000000E-03 0. -1.
        -11    1    4    4    0    0  0.15694023224E+02  0.84713197837E+01  0.28699914381E+02  0.33789801858E+02  0.51100000000E-03 0.  1.
        -12    1    4    4    0    0  0.10573295453E+01 -0.27171547560E+01 -0.26710726702E+01  0.39541756341E+01  0.00000000000E+00 0.  1.
</event>
<event>
 8    1  0.2512298E-006  0.9118800E+02  0.7816164E-02  0.1184000E+00
        -11   -1    0    0    0    0  0.00000000000E+00  0.00000000000E+00  0.45593999997E+02  0.45594000000E+02  0.51100000000E-03 0.  1.
         11   -1    0    0    0    0 -0.00000000000E+00 -0.00000000000E+00 -0.45593999997E+02  0.45594000000E+02  0.51100000000E-03 0. -1.
         23    2    1    2    0    0  0.00000000000E+00  0.00000000000E+00  0.00000000000E+00  0.91188000000E+02  0.91188000000E+02 0.  0.
    9900012    2    3    3    0    0  0.12433955383E+02  0.19417503179E+02 -0.28707743957E+02  0.54367119521E+02  0.40000080571E+02 0.  0.
        -12    1    3    3    0    0 -0.12433955383E+02 -0.19417503179E+02  0.28707743957E+02  0.36820880479E+02  0.00000000000E+00 0.  1.
         11    1    4    4    0    0  0.45917381088E+01  0.62407478474E+01 -0.26055072049E+01  0.81743293677E+01  0.51100000000E-03 0. -1.
        -11    1    4    4    0    0  0.92595612043E+01  0.17747722957E+02 -0.37219891760E+00  0.20021480369E+02  0.51100000000E-03 0.  1.
        -12    1    4    4    0    0 -0.14173439307E+01 -0.45709676258E+01 -0.25730037835E+02  0.26171309784E+02  0.00000000000E+00 0.  1.
</event>
<event>
 8    1  0.2512298E-006  0.9118800E+02  0.7816164E-02  0.1184000E+00
        -11   -1    0    0    0    0  0.00000000000E+00  0.00000000000E+00  0.45593999997E+02  0.45594000000E+02  0.51100000000E-03 0.  1.
         11   -1    0    0    0    0 -0.00000000000E+00 -0.00000000000E+00 -0.45593999997E+02  0.45594000000E+02  0.51100000000E-03 0. -1.
         23    2    1    2    0    0 -0.10658141036E-13  0.00000000000E+00 -0.88817841970E-15  0.91188000000E+02  0.91188000000E+02 0.  0.
    9900012    2    3    3    0    0  0.31095769446E+02  0.18828242050E+02  0.58592023976E+01  0.54367084356E+02  0.40000000406E+02 0.  0.
         12    1    3    3    0    0 -0.31095769446E+02 -0.18828242050E+02 -0.58592023976E+01  0.36820915644E+02  0.00000000000E+00 0. -1.
         11    1    4    4    0    0 -0.64859032276E+01  0.70524117460E+01  0.15453201512E+01  0.97052288353E+01  0.51100000000E-03 0. -1.
        -11    1    4    4    0    0  0.47472167517E+01  0.81984081572E+01  0.66125879487E+01  0.11553193621E+02  0.51100000000E-03 0.  1.
         12    1    4    4    0    0  0.32834455922E+02  0.35774221470E+01 -0.22987057022E+01  0.33108661900E+02  0.00000000000E+00 0. -1.
</event>
<event>
 8    1  0.2512298E-006  0.9118800E+02  0.7816164E-02  0.1184000E+00
        -11   -1    0    0    0    0  0.00000000000E+00  0.00000000000E+00  0.45593999997E+02  0.45594000000E+02  0.51100000000E-03 0. -1.
         11   -1    0    0    0    0 -0.00000000000E+00 -0.00000000000E+00 -0.45593999997E+02  0.45594000000E+02  0.51100000000E-03 0.  1.
         23    2    1    2    0    0  0.00000000000E+00  0.00000000000E+00 -0.35527136788E-14  0.91188000000E+02  0.91188000000E+02 0.  0.
    9900012    2    3    3    0    0  0.23865679191E+02 -0.14284709143E+02  0.24127901295E+02  0.54367093174E+02  0.40000020509E+02 0.  0.
        -12    1    3    3    0    0 -0.23865679191E+02  0.14284709143E+02 -0.24127901295E+02  0.36820906826E+02  0.00000000000E+00 0.  1.
         11    1    4    4    0    0  0.95697003691E+01 -0.78731391772E+01  0.13419509801E+02  0.18266054013E+02  0.51100000000E-03 0. -1.
        -11    1    4    4    0    0  0.98527941105E+01  0.79936217583E+01  0.15732448655E+02  0.20211023763E+02  0.51100000000E-03 0.  1.
         12    1    4    4    0    0  0.44431847115E+01 -0.14405191724E+02 -0.50240571606E+01  0.15890015398E+02  0.00000000000E+00 0. -1.
</event>
<event>
 8    1  0.2512298E-006  0.9118800E+02  0.7816164E-02  0.1184000E+00
        -11   -1    0    0    0    0  0.00000000000E+00  0.00000000000E+00  0.45593999997E+02  0.45594000000E+02  0.51100000000E-03 0.  1.
         11   -1    0    0    0    0 -0.00000000000E+00 -0.00000000000E+00 -0.45593999997E+02  0.45594000000E+02  0.51100000000E-03 0. -1.
         23    2    1    2    0    0  0.17763568394E-14  0.35527136788E-14 -0.35527136788E-14  0.91188000000E+02  0.91188000000E+02 0.  0.
    9900012    2    3    3    0    0 -0.15545334301E+02 -0.16724110214E+02  0.28886434028E+02  0.54367090833E+02  0.40000015173E+02 0.  0.
         12    1    3    3    0    0  0.15545334301E+02  0.16724110214E+02 -0.28886434028E+02  0.36820909167E+02  0.00000000000E+00 0. -1.
         11    1    4    4    0    0 -0.91309103707E+01 -0.29821027771E+01 -0.86061922155E+01  0.12897015387E+02  0.51100000000E-03 0. -1.
        -11    1    4    4    0    0 -0.57980748099E+01 -0.12627127028E+02  0.22645621191E+02  0.26568518360E+02  0.51100000000E-03 0.  1.
         12    1    4    4    0    0 -0.61634912033E+00 -0.11148804093E+01  0.14847005053E+02  0.14901557087E+02  0.00000000000E+00 0. -1.
</event>
<event>
 8    1  0.2512298E-006  0.9118800E+02  0.7816164E-02  0.1184000E+00
        -11   -1    0    0    0    0  0.00000000000E+00  0.00000000000E+00  0.45593999997E+02  0.45594000000E+02  0.51100000000E-03 0. -1.
         11   -1    0    0    0    0 -0.00000000000E+00 -0.00000000000E+00 -0.45593999997E+02  0.45594000000E+02  0.51100000000E-03 0.  1.
         23    2    1    2    0    0  0.71054273576E-14  0.00000000000E+00 -0.88817841970E-15  0.91188000000E+02  0.91188000000E+02 0.  0.
    9900012    2    3    3    0    0  0.35989707963E+02 -0.17083297385E+01 -0.75895410545E+01  0.54367101000E+02  0.40000038349E+02 0.  0.
        -12    1    3    3    0    0 -0.35989707963E+02  0.17083297385E+01  0.75895410545E+01  0.36820899000E+02  0.00000000000E+00 0.  1.
         11    1    4    4    0    0  0.37340792868E+02  0.13064930580E+00  0.40230279370E+01  0.37557111647E+02  0.51100000000E-03 0. -1.
        -11    1    4    4    0    0 -0.21647055186E+01  0.42453032685E+01 -0.89072075553E+01  0.10101826395E+02  0.51100000000E-03 0.  1.
        -12    1    4    4    0    0  0.81362061413E+00 -0.60842823129E+01 -0.27053614362E+01  0.67081629577E+01  0.00000000000E+00 0.  1.
</event>
<event>
 8    1  0.2512298E-006  0.9118800E+02  0.7816164E-02  0.1184000E+00
        -11   -1    0    0    0    0  0.00000000000E+00  0.00000000000E+00  0.45593999997E+02  0.45594000000E+02  0.51100000000E-03 0. -1.
         11   -1    0    0    0    0 -0.00000000000E+00 -0.00000000000E+00 -0.45593999997E+02  0.45594000000E+02  0.51100000000E-03 0.  1.
         23    2    1    2    0    0  0.00000000000E+00  0.00000000000E+00  0.00000000000E+00  0.91188000000E+02  0.91188000000E+02 0.  0.
    9900012    2    3    3    0    0  0.18304847184E+02  0.12388585125E+02  0.29448878088E+02  0.54367069913E+02  0.39999967482E+02 0.  0.
        -12    1    3    3    0    0 -0.18304847184E+02 -0.12388585125E+02 -0.29448878088E+02  0.36820930087E+02  0.00000000000E+00 0.  1.
         11    1    4    4    0    0  0.48128370594E+01  0.24592858248E+01  0.27631193046E+02  0.28154827592E+02  0.51100000000E-03 0. -1.
        -11    1    4    4    0    0 -0.19968490393E+01 -0.72921276963E+00 -0.56078169996E+01  0.59972301199E+01  0.51100000000E-03 0.  1.
         12    1    4    4    0    0  0.15488859164E+02  0.10658512069E+02  0.74255020410E+01  0.20215012201E+02  0.00000000000E+00 0. -1.
</event>
<event>
 8    1  0.2512298E-006  0.9118800E+02  0.7816164E-02  0.1184000E+00
        -11   -1    0    0    0    0  0.00000000000E+00  0.00000000000E+00  0.45593999997E+02  0.45594000000E+02  0.51100000000E-03 0.  1.
         11   -1    0    0    0    0 -0.00000000000E+00 -0.00000000000E+00 -0.45593999997E+02  0.45594000000E+02  0.51100000000E-03 0. -1.
         23    2    1    2    0    0  0.00000000000E+00  0.22204460493E-15  0.00000000000E+00  0.91188000000E+02  0.91188000000E+02 0.  0.
    9900012    2    3    3    0    0 -0.19664887978E+02 -0.41799529702E+00  0.31127112607E+02  0.54367086398E+02  0.40000005062E+02 0.  0.
        -12    1    3    3    0    0  0.19664887978E+02  0.41799529702E+00 -0.31127112607E+02  0.36820913602E+02  0.00000000000E+00 0.  1.
         11    1    4    4    0    0 -0.23213900475E+02  0.11249351869E+01  0.24833667206E+01  0.23373441445E+02  0.51100000000E-03 0. -1.
        -11    1    4    4    0    0  0.20043204478E+01 -0.12299854448E+01  0.29220783975E+02  0.29315258502E+02  0.51100000000E-03 0.  1.
        -12    1    4    4    0    0  0.15446920496E+01 -0.31294503914E+00 -0.57703808888E+00  0.16783864518E+01  0.00000000000E+00 0.  1.
</event>
<event>
 8    1  0.2512298E-006  0.9118800E+02  0.7816164E-02  0.1184000E+00
        -11   -1    0    0    0    0  0.00000000000E+00  0.00000000000E+00  0.45593999997E+02  0.45594000000E+02  0.51100000000E-03 0.  1.
         11   -1    0    0    0    0 -0.00000000000E+00 -0.00000000000E+00 -0.45593999997E+02  0.45594000000E+02  0.51100000000E-03 0. -1.
         23    2    1    2    0    0  0.00000000000E+00 -0.35527136788E-14  0.00000000000E+00  0.91188000000E+02  0.91188000000E+02 0.  0.
    9900012    2    3    3    0    0  0.68486967756E+01  0.19549750834E+02  0.30441438366E+02  0.54367101382E+02  0.40000039222E+02 0.  0.
         12    1    3    3    0    0 -0.68486967756E+01 -0.19549750834E+02 -0.30441438366E+02  0.36820898618E+02  0.00000000000E+00 0. -1.
         11    1    4    4    0    0  0.11550944919E+02 -0.62002708235E+01  0.10628524615E+02  0.16877002771E+02  0.51100000000E-03 0.  1.
        -11    1    4    4    0    0  0.33801751166E+01  0.14668292384E+02  0.22719992018E+01  0.15223217988E+02  0.51100000000E-03 0. -1.
        -12    1    4    4    0    0 -0.80824232596E+01  0.11081729274E+02  0.17540914550E+02  0.22266880623E+02  0.00000000000E+00 0.  1.
</event>
<event>
 8    1  0.2512298E-006  0.9118800E+02  0.7816164E-02  0.1184000E+00
        -11   -1    0    0    0    0  0.00000000000E+00  0.00000000000E+00  0.45593999997E+02  0.45594000000E+02  0.51100000000E-03 0.  1.
         11   -1    0    0    0    0 -0.00000000000E+00 -0.00000000000E+00 -0.45593999997E+02  0.45594000000E+02  0.51100000000E-03 0. -1.
         23    2    1    2    0    0 -0.44408920985E-15  0.00000000000E+00  0.00000000000E+00  0.91188000000E+02  0.91188000000E+02 0.  0.
    9900012    2    3    3    0    0 -0.11523301865E+01  0.19483041222E+02 -0.31222814279E+02  0.54367069924E+02  0.39999967506E+02 0.  0.
        -12    1    3    3    0    0  0.11523301865E+01 -0.19483041222E+02  0.31222814279E+02  0.36820930076E+02  0.00000000000E+00 0.  1.
         11    1    4    4    0    0  0.26564428422E+01  0.95338476746E-01  0.28574311171E+01  0.39026517714E+01  0.51100000000E-03 0. -1.
        -11    1    4    4    0    0 -0.40107658707E+01 -0.99346917448E+00  0.49407887934E+01  0.64408553805E+01  0.51100000000E-03 0.  1.
         12    1    4    4    0    0  0.20199284206E+00  0.20381171920E+02 -0.39021034190E+02  0.44023562772E+02  0.00000000000E+00 0. -1.
</event>
<event>
 8    1  0.2512298E-006  0.9118800E+02  0.7816164E-02  0.1184000E+00
        -11   -1    0    0    0    0  0.00000000000E+00  0.00000000000E+00  0.45593999997E+02  0.45594000000E+02  0.51100000000E-03 0.  1.
         11   -1    0    0    0    0 -0.00000000000E+00 -0.00000000000E+00 -0.45593999997E+02  0.45594000000E+02  0.51100000000E-03 0. -1.
         23    2    1    2    0    0 -0.17763568394E-14  0.00000000000E+00 -0.35527136788E-14  0.91188000000E+02  0.91188000000E+02 0.  0.
    9900012    2    3    3    0    0 -0.15327445792E+02  0.28237904706E+02 -0.17985272709E+02  0.54367083510E+02  0.39999998479E+02 0.  0.
        -12    1    3    3    0    0  0.15327445792E+02 -0.28237904706E+02  0.17985272709E+02  0.36820916490E+02  0.00000000000E+00 0.  1.
         11    1    4    4    0    0  0.76135214521E+01  0.13449248282E+02 -0.19979048516E+02  0.25258867119E+02  0.51100000000E-03 0. -1.
        -11    1    4    4    0    0 -0.10306824105E+02  0.41701354291E+01  0.52348676039E+01  0.12289202241E+02  0.51100000000E-03 0.  1.
         12    1    4    4    0    0 -0.12634143139E+02  0.10618520994E+02 -0.32410917976E+01  0.16819014151E+02  0.00000000000E+00 0. -1.
</event>
<event>
 8    1  0.2512298E-006  0.9118800E+02  0.7816164E-02  0.1184000E+00
        -11   -1    0    0    0    0  0.00000000000E+00  0.00000000000E+00  0.45593999997E+02  0.45594000000E+02  0.51100000000E-03 0.  1.
         11   -1    0    0    0    0 -0.00000000000E+00 -0.00000000000E+00 -0.45593999997E+02  0.45594000000E+02  0.51100000000E-03 0. -1.
         23    2    1    2    0    0 -0.35527136788E-14 -0.35527136788E-14 -0.18873791419E-14  0.91188000000E+02  0.91188000000E+02 0.  0.
    9900012    2    3    3    0    0  0.30724720427E+02  0.20281238643E+02 -0.66046605442E+00  0.54367172991E+02  0.40000202466E+02 0.  0.
         12    1    3    3    0    0 -0.30724720427E+02 -0.20281238643E+02  0.66046605442E+00  0.36820827009E+02  0.00000000000E+00 0. -1.
         11    1    4    4    0    0  0.63814830639E+01  0.71236819872E+01 -0.14412142058E+02  0.17296820809E+02  0.51100000000E-03 0. -1.
        -11    1    4    4    0    0  0.60379244054E+01 -0.24265228131E+01 -0.35861782530E+01  0.74300214543E+01  0.51100000000E-03 0.  1.
        -12    1    4    4    0    0  0.18305312958E+02  0.15584079469E+02  0.17337854257E+02  0.29640330727E+02  0.00000000000E+00 0.  1.
</event>
<event>
 8    1  0.2512298E-006  0.9118800E+02  0.7816164E-02  0.1184000E+00
        -11   -1    0    0    0    0  0.00000000000E+00  0.00000000000E+00  0.45593999997E+02  0.45594000000E+02  0.51100000000E-03 0.  1.
         11   -1    0    0    0    0 -0.00000000000E+00 -0.00000000000E+00 -0.45593999997E+02  0.45594000000E+02  0.51100000000E-03 0. -1.
         23    2    1    2    0    0  0.35527136788E-14  0.00000000000E+00  0.00000000000E+00  0.91188000000E+02  0.91188000000E+02 0.  0.
    9900012    2    3    3    0    0 -0.20205840716E+02 -0.14449748746E+02  0.27179199584E+02  0.54367080295E+02  0.39999991149E+02 0.  0.
         12    1    3    3    0    0  0.20205840716E+02  0.14449748746E+02 -0.27179199584E+02  0.36820919705E+02  0.00000000000E+00 0. -1.
         11    1    4    4    0    0 -0.25660792948E+02 -0.24287487271E+02  0.18393865950E+02  0.39833310652E+02  0.51100000000E-03 0. -1.
        -11    1    4    4    0    0  0.45551859027E+01  0.57188414178E+01  0.49078276712E+01  0.88057730201E+01  0.51100000000E-03 0.  1.
         12    1    4    4    0    0  0.89976632834E+00  0.41188971074E+01  0.38775059628E+01  0.57279966235E+01  0.00000000000E+00 0. -1.
</event>
<event>
 8    1  0.2512298E-006  0.9118800E+02  0.7816164E-02  0.1184000E+00
        -11   -1    0    0    0    0  0.00000000000E+00  0.00000000000E+00  0.45593999997E+02  0.45594000000E+02  0.51100000000E-03 0.  1.
         11   -1    0    0    0    0 -0.00000000000E+00 -0.00000000000E+00 -0.45593999997E+02  0.45594000000E+02  0.51100000000E-03 0. -1.
         23    2    1    2    0    0  0.00000000000E+00  0.35527136788E-14 -0.35527136788E-14  0.91188000000E+02  0.91188000000E+02 0.  0.
    9900012    2    3    3    0    0  0.15582436859E+02 -0.27157614904E+02  0.19376055488E+02  0.54367083226E+02  0.39999997831E+02 0.  0.
         12    1    3    3    0    0 -0.15582436859E+02  0.27157614904E+02 -0.19376055488E+02  0.36820916774E+02  0.00000000000E+00 0. -1.
         11    1    4    4    0    0  0.14463485341E+01  0.66612341681E+01  0.43893619800E+01  0.81074326132E+01  0.51100000000E-03 0. -1.
        -11    1    4    4    0    0 -0.23950845863E+01 -0.11601312381E+02 -0.42010944587E+01  0.12568853331E+02  0.51100000000E-03 0.  1.
         12    1    4    4    0    0  0.16531172912E+02 -0.22217536692E+02  0.19187787967E+02  0.33690797283E+02  0.00000000000E+00 0. -1.
</event>
<event>
 8    1  0.2512298E-006  0.9118800E+02  0.7816164E-02  0.1184000E+00
        -11   -1    0    0    0    0  0.00000000000E+00  0.00000000000E+00  0.45593999997E+02  0.45594000000E+02  0.51100000000E-03 0. -1.
         11   -1    0    0    0    0 -0.00000000000E+00 -0.00000000000E+00 -0.45593999997E+02  0.45594000000E+02  0.51100000000E-03 0.  1.
         23    2    1    2    0    0  0.17763568394E-14 -0.35527136788E-14  0.00000000000E+00  0.91188000000E+02  0.91188000000E+02 0.  0.
    9900012    2    3    3    0    0 -0.87407346268E+01  0.26485869844E+02  0.24039114192E+02  0.54367071788E+02  0.39999971756E+02 0.  0.
        -12    1    3    3    0    0  0.87407346268E+01 -0.26485869844E+02 -0.24039114192E+02  0.36820928212E+02  0.00000000000E+00 0.  1.
         11    1    4    4    0    0 -0.49363334171E+00  0.96478560530E+01  0.11652172789E+02  0.15135981345E+02  0.51100000000E-03 0. -1.
        -11    1    4    4    0    0  0.89443567260E+01  0.17810172886E+02  0.53997427433E+01  0.20648510780E+02  0.51100000000E-03 0.  1.
        -12    1    4    4    0    0 -0.17191458011E+02 -0.97215909465E+00  0.69871986595E+01  0.18582579664E+02  0.00000000000E+00 0.  1.
</event>
<event>
 8    1  0.2512298E-006  0.9118800E+02  0.7816164E-02  0.1184000E+00
        -11   -1    0    0    0    0  0.00000000000E+00  0.00000000000E+00  0.45593999997E+02  0.45594000000E+02  0.51100000000E-03 0.  1.
         11   -1    0    0    0    0 -0.00000000000E+00 -0.00000000000E+00 -0.45593999997E+02  0.45594000000E+02  0.51100000000E-03 0. -1.
         23    2    1    2    0    0  0.00000000000E+00  0.00000000000E+00  0.00000000000E+00  0.91188000000E+02  0.91188000000E+02 0.  0.
    9900012    2    3    3    0    0  0.35107477057E+02 -0.85149973420E+01  0.71231501206E+01  0.54367090279E+02  0.40000013909E+02 0.  0.
         12    1    3    3    0    0 -0.35107477057E+02  0.85149973420E+01 -0.71231501206E+01  0.36820909721E+02  0.00000000000E+00 0. -1.
         11    1    4    4    0    0 -0.27979903798E+00  0.84682614090E+00 -0.10029641782E+02  0.10069216283E+02  0.51100000000E-03 0. -1.
        -11    1    4    4    0    0  0.21834688222E+02 -0.64060231699E+01  0.19815346783E+02  0.30173476945E+02  0.51100000000E-03 0.  1.
        -12    1    4    4    0    0  0.13552587873E+02 -0.29558003129E+01 -0.26625548801E+01  0.14124397051E+02  0.00000000000E+00 0.  1.
</event>
<event>
 8    1  0.2512298E-006  0.9118800E+02  0.7816164E-02  0.1184000E+00
        -11   -1    0    0    0    0  0.00000000000E+00  0.00000000000E+00  0.45593999997E+02  0.45594000000E+02  0.51100000000E-03 0.  1.
         11   -1    0    0    0    0 -0.00000000000E+00 -0.00000000000E+00 -0.45593999997E+02  0.45594000000E+02  0.51100000000E-03 0. -1.
         23    2    1    2    0    0 -0.88817841970E-15 -0.71054273576E-14  0.00000000000E+00  0.91188000000E+02  0.91188000000E+02 0.  0.
    9900012    2    3    3    0    0 -0.49650521048E+01 -0.32705998667E+02 -0.16169347803E+02  0.54367056237E+02  0.39999936304E+02 0.  0.
        -12    1    3    3    0    0  0.49650521048E+01  0.32705998667E+02  0.16169347803E+02  0.36820943763E+02  0.00000000000E+00 0.  1.
         11    1    4    4    0    0 -0.26360354525E+01  0.14139185592E+01 -0.29746910065E+01  0.42186058650E+01  0.51100000000E-03 0. -1.
        -11    1    4    4    0    0 -0.62749266821E+00 -0.12337225232E+02  0.11707742696E+02  0.17019756543E+02  0.51100000000E-03 0.  1.
         12    1    4    4    0    0 -0.17015239841E+01 -0.21782691994E+02 -0.24902399492E+02  0.33128693830E+02  0.00000000000E+00 0. -1.
</event>
<event>
 8    1  0.2512298E-006  0.9118800E+02  0.7816164E-02  0.1184000E+00
        -11   -1    0    0    0    0  0.00000000000E+00  0.00000000000E+00  0.45593999997E+02  0.45594000000E+02  0.51100000000E-03 0. -1.
         11   -1    0    0    0    0 -0.00000000000E+00 -0.00000000000E+00 -0.45593999997E+02  0.45594000000E+02  0.51100000000E-03 0.  1.
         23    2    1    2    0    0  0.00000000000E+00  0.00000000000E+00  0.00000000000E+00  0.91188000000E+02  0.91188000000E+02 0.  0.
    9900012    2    3    3    0    0 -0.67426391076E+01 -0.15686650575E+02  0.32622780676E+02  0.54367081932E+02  0.39999994880E+02 0.  0.
        -12    1    3    3    0    0  0.67426391076E+01  0.15686650575E+02 -0.32622780676E+02  0.36820918068E+02  0.00000000000E+00 0.  1.
         11    1    4    4    0    0 -0.33669005853E+01  0.11448775745E+01  0.26356447297E+02  0.26595283014E+02  0.51100000000E-03 0. -1.
        -11    1    4    4    0    0 -0.38563391368E+01 -0.19907376794E+02  0.10246051118E+02  0.22719079341E+02  0.51100000000E-03 0.  1.
        -12    1    4    4    0    0  0.48060061445E+00  0.30758486447E+01 -0.39797177391E+01  0.50527195765E+01  0.00000000000E+00 0.  1.
</event>
<event>
 8    1  0.2512298E-006  0.9118800E+02  0.7816164E-02  0.1184000E+00
        -11   -1    0    0    0    0  0.00000000000E+00  0.00000000000E+00  0.45593999997E+02  0.45594000000E+02  0.51100000000E-03 0. -1.
         11   -1    0    0    0    0 -0.00000000000E+00 -0.00000000000E+00 -0.45593999997E+02  0.45594000000E+02  0.51100000000E-03 0.  1.
         23    2    1    2    0    0 -0.44408920985E-15  0.00000000000E+00  0.00000000000E+00  0.91188000000E+02  0.91188000000E+02 0.  0.
    9900012    2    3    3    0    0  0.33139767244E+01 -0.30955118451E+02 -0.19661525782E+02  0.54367117391E+02  0.40000075716E+02 0.  0.
         12    1    3    3    0    0 -0.33139767244E+01  0.30955118451E+02  0.19661525782E+02  0.36820882609E+02  0.00000000000E+00 0. -1.
         11    1    4    4    0    0  0.22745794908E+01  0.98780434893E+00 -0.16113625355E+02  0.16303324558E+02  0.51100000000E-03 0.  1.
        -11    1    4    4    0    0  0.21797628348E+01 -0.25623320513E+02 -0.11221598125E+02  0.28057622581E+02  0.51100000000E-03 0. -1.
        -12    1    4    4    0    0 -0.11403656012E+01 -0.63196022865E+01  0.76736976980E+01  0.10006170253E+02  0.00000000000E+00 0.  1.
</event>
<event>
 8    1  0.2512298E-006  0.9118800E+02  0.7816164E-02  0.1184000E+00
        -11   -1    0    0    0    0  0.00000000000E+00  0.00000000000E+00  0.45593999997E+02  0.45594000000E+02  0.51100000000E-03 0.  1.
         11   -1    0    0    0    0 -0.00000000000E+00 -0.00000000000E+00 -0.45593999997E+02  0.45594000000E+02  0.51100000000E-03 0. -1.
         23    2    1    2    0    0  0.00000000000E+00 -0.88817841970E-15  0.00000000000E+00  0.91188000000E+02  0.91188000000E+02 0.  0.
    9900012    2    3    3    0    0  0.15727339038E+02  0.58812956469E+01 -0.32769521205E+02  0.54367077256E+02  0.39999984221E+02 0.  0.
        -12    1    3    3    0    0 -0.15727339038E+02 -0.58812956469E+01  0.32769521205E+02  0.36820922744E+02  0.00000000000E+00 0.  1.
         11    1    4    4    0    0  0.76385837059E+01 -0.64414490953E+01 -0.32417000536E+02  0.33922000994E+02  0.51100000000E-03 0. -1.
        -11    1    4    4    0    0 -0.20743370344E-01  0.10112315790E+02 -0.45044333815E+01  0.11070197888E+02  0.51100000000E-03 0.  1.
        -12    1    4    4    0    0  0.81094987027E+01  0.22104289522E+01  0.41519127122E+01  0.93748783742E+01  0.00000000000E+00 0.  1.
</event>
<event>
 8    1  0.2512298E-006  0.9118800E+02  0.7816164E-02  0.1184000E+00
        -11   -1    0    0    0    0  0.00000000000E+00  0.00000000000E+00  0.45593999997E+02  0.45594000000E+02  0.51100000000E-03 0. -1.
         11   -1    0    0    0    0 -0.00000000000E+00 -0.00000000000E+00 -0.45593999997E+02  0.45594000000E+02  0.51100000000E-03 0.  1.
         23    2    1    2    0    0  0.44408920985E-15  0.47184478547E-15  0.71054273576E-14  0.91188000000E+02  0.91188000000E+02 0.  0.
    9900012    2    3    3    0    0  0.31170440391E+01 -0.18887644150E+00  0.36688249071E+02  0.54367092111E+02  0.40000018086E+02 0.  0.
        -12    1    3    3    0    0 -0.31170440391E+01  0.18887644150E+00 -0.36688249071E+02  0.36820907889E+02  0.00000000000E+00 0.  1.
         11    1    4    4    0    0  0.12246621971E+02  0.99708982221E+01  0.21446919685E+02  0.26633980651E+02  0.51100000000E-03 0. -1.
        -11    1    4    4    0    0  0.28787544270E+01  0.37920808017E+01  0.32087089165E+01  0.57413340810E+01  0.51100000000E-03 0.  1.
        -12    1    4    4    0    0 -0.12008332359E+02 -0.13951855465E+02  0.12032620469E+02  0.21991777380E+02  0.00000000000E+00 0.  1.
</event>
<event>
 8    1  0.2512298E-006  0.9118800E+02  0.7816164E-02  0.1184000E+00
        -11   -1    0    0    0    0  0.00000000000E+00  0.00000000000E+00  0.45593999997E+02  0.45594000000E+02  0.51100000000E-03 0.  1.
         11   -1    0    0    0    0 -0.00000000000E+00 -0.00000000000E+00 -0.45593999997E+02  0.45594000000E+02  0.51100000000E-03 0. -1.
         23    2    1    2    0    0 -0.19706458687E-14  0.00000000000E+00  0.00000000000E+00  0.91188000000E+02  0.91188000000E+02 0.  0.
    9900012    2    3    3    0    0 -0.21128525379E+00 -0.34398306429E+02  0.13133573661E+02  0.54367097190E+02  0.40000029663E+02 0.  0.
        -12    1    3    3    0    0  0.21128525379E+00  0.34398306429E+02 -0.13133573661E+02  0.36820902810E+02  0.00000000000E+00 0.  1.
         11    1    4    4    0    0 -0.13395084919E+02 -0.21996176868E+02  0.11151721369E+02  0.28064585985E+02  0.51100000000E-03 0. -1.
        -11    1    4    4    0    0 -0.16577128227E+01 -0.65397239653E+01  0.68545568102E+01  0.96177414537E+01  0.51100000000E-03 0.  1.
         12    1    4    4    0    0  0.14841512488E+02 -0.58624055965E+01 -0.48727045180E+01  0.16684769751E+02  0.00000000000E+00 0. -1.
</event>
<event>
 8    1  0.2512298E-006  0.9118800E+02  0.7816164E-02  0.1184000E+00
        -11   -1    0    0    0    0  0.00000000000E+00  0.00000000000E+00  0.45593999997E+02  0.45594000000E+02  0.51100000000E-03 0.  1.
         11   -1    0    0    0    0 -0.00000000000E+00 -0.00000000000E+00 -0.45593999997E+02  0.45594000000E+02  0.51100000000E-03 0. -1.
         23    2    1    2    0    0 -0.35527136788E-14  0.35527136788E-14 -0.35527136788E-14  0.91188000000E+02  0.91188000000E+02 0.  0.
    9900012    2    3    3    0    0 -0.19196092779E+02  0.26330998878E+02 -0.17145489162E+02  0.54367091829E+02  0.40000017443E+02 0.  0.
        -12    1    3    3    0    0  0.19196092779E+02 -0.26330998878E+02  0.17145489162E+02  0.36820908171E+02  0.00000000000E+00 0.  1.
         11    1    4    4    0    0 -0.44652014935E+01  0.22691177977E+01  0.66457584671E+01  0.83218402905E+01  0.51100000000E-03 0. -1.
        -11    1    4    4    0    0 -0.14113651991E+02  0.30389258730E+01 -0.19796530625E+00  0.14438470609E+02  0.51100000000E-03 0.  1.
         12    1    4    4    0    0 -0.61723929440E+00  0.21022955207E+02 -0.23593282323E+02  0.31606780930E+02  0.00000000000E+00 0. -1.
</event>
<event>
 8    1  0.2512298E-006  0.9118800E+02  0.7816164E-02  0.1184000E+00
        -11   -1    0    0    0    0  0.00000000000E+00  0.00000000000E+00  0.45593999997E+02  0.45594000000E+02  0.51100000000E-03 0.  1.
         11   -1    0    0    0    0 -0.00000000000E+00 -0.00000000000E+00 -0.45593999997E+02  0.45594000000E+02  0.51100000000E-03 0. -1.
         23    2    1    2    0    0 -0.17763568394E-14  0.00000000000E+00  0.00000000000E+00  0.91188000000E+02  0.91188000000E+02 0.  0.
    9900012    2    3    3    0    0  0.12027990726E+02  0.29299294079E+02 -0.18779207676E+02  0.54367084268E+02  0.40000000205E+02 0.  0.
        -12    1    3    3    0    0 -0.12027990726E+02 -0.29299294079E+02  0.18779207676E+02  0.36820915732E+02  0.00000000000E+00 0.  1.
         11    1    4    4    0    0  0.33904412716E+00  0.54879849574E+01 -0.14245213983E+02  0.15269546539E+02  0.51100000000E-03 0.  1.
        -11    1    4    4    0    0  0.63539395228E+00  0.50613309797E+01  0.11155549296E+02  0.12266502236E+02  0.51100000000E-03 0. -1.
         12    1    4    4    0    0  0.11053552647E+02  0.18749978142E+02 -0.15689542988E+02  0.26831035493E+02  0.00000000000E+00 0. -1.
</event>
<event>
 8    1  0.2512298E-006  0.9118800E+02  0.7816164E-02  0.1184000E+00
        -11   -1    0    0    0    0  0.00000000000E+00  0.00000000000E+00  0.45593999997E+02  0.45594000000E+02  0.51100000000E-03 0. -1.
         11   -1    0    0    0    0 -0.00000000000E+00 -0.00000000000E+00 -0.45593999997E+02  0.45594000000E+02  0.51100000000E-03 0.  1.
         23    2    1    2    0    0  0.00000000000E+00 -0.71054273576E-14 -0.35527136788E-14  0.91188000000E+02  0.91188000000E+02 0.  0.
    9900012    2    3    3    0    0  0.30671708459E+01  0.29807630115E+02 -0.21398083508E+02  0.54367077580E+02  0.39999984959E+02 0.  0.
         12    1    3    3    0    0 -0.30671708459E+01 -0.29807630115E+02  0.21398083508E+02  0.36820922420E+02  0.00000000000E+00 0. -1.
         11    1    4    4    0    0 -0.52264283100E+01  0.25660462202E+02 -0.27826978429E+01  0.26334735253E+02  0.51100000000E-03 0. -1.
        -11    1    4    4    0    0  0.90401327552E+01 -0.55928164894E+01 -0.64641688759E+01  0.12441425804E+02  0.51100000000E-03 0.  1.
        -12    1    4    4    0    0 -0.74653359922E+00  0.97399844023E+01 -0.12151216789E+02  0.15590916523E+02  0.00000000000E+00 0.  1.
</event>
<event>
 8    1  0.2512298E-006  0.9118800E+02  0.7816164E-02  0.1184000E+00
        -11   -1    0    0    0    0  0.00000000000E+00  0.00000000000E+00  0.45593999997E+02  0.45594000000E+02  0.51100000000E-03 0. -1.
         11   -1    0    0    0    0 -0.00000000000E+00 -0.00000000000E+00 -0.45593999997E+02  0.45594000000E+02  0.51100000000E-03 0.  1.
         23    2    1    2    0    0  0.00000000000E+00  0.00000000000E+00  0.00000000000E+00  0.91188000000E+02  0.91188000000E+02 0.  0.
    9900012    2    3    3    0    0  0.16437949610E+02 -0.32795867262E+02 -0.31630635767E+01  0.54367081108E+02  0.39999993001E+02 0.  0.
         12    1    3    3    0    0 -0.16437949610E+02  0.32795867262E+02  0.31630635767E+01  0.36820918892E+02  0.00000000000E+00 0. -1.
         11    1    4    4    0    0  0.26043871822E+02 -0.14726308683E+02  0.29936597444E+01  0.30068412426E+02  0.51100000000E-03 0. -1.
        -11    1    4    4    0    0 -0.96306397668E+00 -0.13434682679E+02 -0.52257872471E+01  0.14447388813E+02  0.51100000000E-03 0.  1.
         12    1    4    4    0    0 -0.86428582349E+01 -0.46348759003E+01 -0.93093607405E+00  0.98512798688E+01  0.00000000000E+00 0. -1.
</event>
<event>
 8    1  0.2512298E-006  0.9118800E+02  0.7816164E-02  0.1184000E+00
        -11   -1    0    0    0    0  0.00000000000E+00  0.00000000000E+00  0.45593999997E+02  0.45594000000E+02  0.51100000000E-03 0.  1.
         11   -1    0    0    0    0 -0.00000000000E+00 -0.00000000000E+00 -0.45593999997E+02  0.45594000000E+02  0.51100000000E-03 0. -1.
         23    2    1    2    0    0  0.00000000000E+00  0.17763568394E-14  0.00000000000E+00  0.91188000000E+02  0.91188000000E+02 0.  0.
    9900012    2    3    3    0    0 -0.14536411651E+02  0.15028276215E+02  0.30308801120E+02  0.54367085087E+02  0.40000002073E+02 0.  0.
         12    1    3    3    0    0  0.14536411651E+02 -0.15028276215E+02 -0.30308801120E+02  0.36820914913E+02  0.00000000000E+00 0. -1.
         11    1    4    4    0    0  0.33420579315E+01 -0.94670480758E+01  0.94167253055E+01  0.13764776287E+02  0.51100000000E-03 0. -1.
        -11    1    4    4    0    0 -0.61728427043E+01  0.29007089571E+00  0.96510237717E+01  0.11459947132E+02  0.51100000000E-03 0.  1.
        -12    1    4    4    0    0 -0.11705626878E+02  0.24205253395E+02  0.11241052043E+02  0.29142361668E+02  0.00000000000E+00 0.  1.
</event>
<event>
 8    1  0.2512298E-006  0.9118800E+02  0.7816164E-02  0.1184000E+00
        -11   -1    0    0    0    0  0.00000000000E+00  0.00000000000E+00  0.45593999997E+02  0.45594000000E+02  0.51100000000E-03 0.  1.
         11   -1    0    0    0    0 -0.00000000000E+00 -0.00000000000E+00 -0.45593999997E+02  0.45594000000E+02  0.51100000000E-03 0. -1.
         23    2    1    2    0    0  0.00000000000E+00  0.00000000000E+00 -0.35527136788E-14  0.91188000000E+02  0.91188000000E+02 0.  0.
    9900012    2    3    3    0    0 -0.23691944942E+02 -0.80969171047E+01  0.26998354104E+02  0.54367089554E+02  0.40000012257E+02 0.  0.
         12    1    3    3    0    0  0.23691944942E+02  0.80969171047E+01 -0.26998354104E+02  0.36820910446E+02  0.00000000000E+00 0. -1.
         11    1    4    4    0    0 -0.10359675979E+02 -0.22291707343E+02  0.94390025994E+01  0.26331309747E+02  0.51100000000E-03 0. -1.
        -11    1    4    4    0    0 -0.97389341517E+01  0.44161433471E+01  0.12513551069E+02  0.16460198088E+02  0.51100000000E-03 0.  1.
         12    1    4    4    0    0 -0.35933348114E+01  0.97786468915E+01  0.50458004351E+01  0.11575581719E+02  0.00000000000E+00 0. -1.
</event>
<event>
 8    1  0.2512298E-006  0.9118800E+02  0.7816164E-02  0.1184000E+00
        -11   -1    0    0    0    0  0.00000000000E+00  0.00000000000E+00  0.45593999997E+02  0.45594000000E+02  0.51100000000E-03 0.  1.
         11   -1    0    0    0    0 -0.00000000000E+00 -0.00000000000E+00 -0.45593999997E+02  0.45594000000E+02  0.51100000000E-03 0. -1.
         23    2    1    2    0    0  0.35527136788E-14  0.35527136788E-14  0.35527136788E-14  0.91188000000E+02  0.91188000000E+02 0.  0.
    9900012    2    3    3    0    0  0.18098459388E+02  0.22686149755E+02  0.22661974191E+02  0.54367072565E+02  0.39999973528E+02 0.  0.
         12    1    3    3    0    0 -0.18098459388E+02 -0.22686149755E+02 -0.22661974191E+02  0.36820927435E+02  0.00000000000E+00 0. -1.
         11    1    4    4    0    0  0.22978973058E+01  0.94977815699E+01  0.23053323467E+02  0.25038848015E+02  0.51100000000E-03 0.  1.
        -11    1    4    4    0    0  0.10539832321E+02  0.98027295954E+01  0.97693408238E+01  0.17396022341E+02  0.51100000000E-03 0. -1.
         12    1    4    4    0    0  0.52607297607E+01  0.33856385892E+01 -0.10160690100E+02  0.11932202210E+02  0.00000000000E+00 0. -1.
</event>
<event>
 8    1  0.2512298E-006  0.9118800E+02  0.7816164E-02  0.1184000E+00
        -11   -1    0    0    0    0  0.00000000000E+00  0.00000000000E+00  0.45593999997E+02  0.45594000000E+02  0.51100000000E-03 0. -1.
         11   -1    0    0    0    0 -0.00000000000E+00 -0.00000000000E+00 -0.45593999997E+02  0.45594000000E+02  0.51100000000E-03 0.  1.
         23    2    1    2    0    0  0.00000000000E+00  0.00000000000E+00  0.00000000000E+00  0.91188000000E+02  0.91188000000E+02 0.  0.
    9900012    2    3    3    0    0  0.15533757302E+02  0.26919449583E+02  0.19744023190E+02  0.54367070714E+02  0.39999969306E+02 0.  0.
        -12    1    3    3    0    0 -0.15533757302E+02 -0.26919449583E+02 -0.19744023190E+02  0.36820929286E+02  0.00000000000E+00 0.  1.
         11    1    4    4    0    0  0.16875738896E+02  0.18851670199E+02  0.12815990206E+02  0.28362398308E+02  0.51100000000E-03 0.  1.
        -11    1    4    4    0    0  0.68367184880E+01 -0.57221827531E+01  0.12841676663E+01  0.90073959611E+01  0.51100000000E-03 0. -1.
        -12    1    4    4    0    0 -0.81787000824E+01  0.13789962137E+02  0.56438653180E+01  0.16997276444E+02  0.00000000000E+00 0.  1.
</event>
<event>
 8    1  0.2512298E-006  0.9118800E+02  0.7816164E-02  0.1184000E+00
        -11   -1    0    0    0    0  0.00000000000E+00  0.00000000000E+00  0.45593999997E+02  0.45594000000E+02  0.51100000000E-03 0.  1.
         11   -1    0    0    0    0 -0.00000000000E+00 -0.00000000000E+00 -0.45593999997E+02  0.45594000000E+02  0.51100000000E-03 0. -1.
         23    2    1    2    0    0  0.00000000000E+00  0.35527136788E-14  0.00000000000E+00  0.91188000000E+02  0.91188000000E+02 0.  0.
    9900012    2    3    3    0    0 -0.26361972140E+02 -0.19390637696E+02 -0.16876881457E+02  0.54367088373E+02  0.40000009563E+02 0.  0.
        -12    1    3    3    0    0  0.26361972140E+02  0.19390637696E+02  0.16876881457E+02  0.36820911627E+02  0.00000000000E+00 0.  1.
         11    1    4    4    0    0 -0.12636205768E+02  0.17918678350E+01  0.57804530078E+00  0.12775704410E+02  0.51100000000E-03 0. -1.
        -11    1    4    4    0    0 -0.47065254140E+01  0.67230089779E+01 -0.57220394717E+01  0.10004597302E+02  0.51100000000E-03 0.  1.
        -12    1    4    4    0    0 -0.90192409579E+01 -0.27905514509E+02 -0.11732887286E+02  0.31586786661E+02  0.00000000000E+00 0.  1.
</event>
<event>
 8    1  0.2512298E-006  0.9118800E+02  0.7816164E-02  0.1184000E+00
        -11   -1    0    0    0    0  0.00000000000E+00  0.00000000000E+00  0.45593999997E+02  0.45594000000E+02  0.51100000000E-03 0. -1.
         11   -1    0    0    0    0 -0.00000000000E+00 -0.00000000000E+00 -0.45593999997E+02  0.45594000000E+02  0.51100000000E-03 0.  1.
         23    2    1    2    0    0 -0.88817841970E-15  0.00000000000E+00 -0.35527136788E-14  0.91188000000E+02  0.91188000000E+02 0.  0.
    9900012    2    3    3    0    0  0.18451076594E+01  0.32611929762E+02 -0.16995236391E+02  0.54367075989E+02  0.39999981331E+02 0.  0.
         12    1    3    3    0    0 -0.18451076594E+01 -0.32611929762E+02  0.16995236391E+02  0.36820924011E+02  0.00000000000E+00 0. -1.
         11    1    4    4    0    0 -0.13097465176E+02  0.12112829476E+02 -0.80247501553E+01  0.19561718924E+02  0.51100000000E-03 0. -1.
        -11    1    4    4    0    0  0.12837470480E+02  0.21745436650E+02 -0.14243773986E+02  0.28992236220E+02  0.51100000000E-03 0.  1.
         12    1    4    4    0    0  0.21051023548E+01 -0.12463363644E+01  0.52732877502E+01  0.58131208445E+01  0.00000000000E+00 0. -1.
</event>
<event>
 8    1  0.2512298E-006  0.9118800E+02  0.7816164E-02  0.1184000E+00
        -11   -1    0    0    0    0  0.00000000000E+00  0.00000000000E+00  0.45593999997E+02  0.45594000000E+02  0.51100000000E-03 0. -1.
         11   -1    0    0    0    0 -0.00000000000E+00 -0.00000000000E+00 -0.45593999997E+02  0.45594000000E+02  0.51100000000E-03 0.  1.
         23    2    1    2    0    0  0.00000000000E+00  0.11102230246E-14  0.00000000000E+00  0.91188000000E+02  0.91188000000E+02 0.  0.
    9900012    2    3    3    0    0  0.32890445466E+02 -0.18319975763E+01  0.16451202843E+02  0.54367086200E+02  0.40000004611E+02 0.  0.
        -12    1    3    3    0    0 -0.32890445466E+02  0.18319975763E+01 -0.16451202843E+02  0.36820913800E+02  0.00000000000E+00 0.  1.
         11    1    4    4    0    0 -0.46597005798E+01  0.82775725295E+01  0.67347941944E+01  0.11644246200E+02  0.51100000000E-03 0. -1.
        -11    1    4    4    0    0  0.70862069215E+00  0.85603472053E+00 -0.22122348676E+01  0.24756659909E+01  0.51100000000E-03 0.  1.
        -12    1    4    4    0    0  0.36841525354E+02 -0.10965604826E+02  0.11928643516E+02  0.40247174009E+02  0.00000000000E+00 0.  1.
</event>
<event>
 8    1  0.2512298E-006  0.9118800E+02  0.7816164E-02  0.1184000E+00
        -11   -1    0    0    0    0  0.00000000000E+00  0.00000000000E+00  0.45593999997E+02  0.45594000000E+02  0.51100000000E-03 0. -1.
         11   -1    0    0    0    0 -0.00000000000E+00 -0.00000000000E+00 -0.45593999997E+02  0.45594000000E+02  0.51100000000E-03 0.  1.
         23    2    1    2    0    0  0.35527136788E-14  0.00000000000E+00 -0.35527136788E-14  0.91188000000E+02  0.91188000000E+02 0.  0.
    9900012    2    3    3    0    0  0.16169689265E+02  0.84314665749E+01  0.31987990369E+02  0.54367081932E+02  0.39999994880E+02 0.  0.
        -12    1    3    3    0    0 -0.16169689265E+02 -0.84314665749E+01 -0.31987990369E+02  0.36820918068E+02  0.00000000000E+00 0.  1.
         11    1    4    4    0    0 -0.14044942400E+00  0.77620400698E+01  0.46594775750E+01  0.90542654931E+01  0.51100000000E-03 0. -1.
        -11    1    4    4    0    0  0.25191525350E+01  0.12379940845E+02  0.11516515100E+00  0.12634173028E+02  0.51100000000E-03 0.  1.
         12    1    4    4    0    0  0.13790986154E+02 -0.11710514340E+02  0.27213347643E+02  0.32678643411E+02  0.00000000000E+00 0. -1.
</event>
<event>
 8    1  0.2512298E-006  0.9118800E+02  0.7816164E-02  0.1184000E+00
        -11   -1    0    0    0    0  0.00000000000E+00  0.00000000000E+00  0.45593999997E+02  0.45594000000E+02  0.51100000000E-03 0. -1.
         11   -1    0    0    0    0 -0.00000000000E+00 -0.00000000000E+00 -0.45593999997E+02  0.45594000000E+02  0.51100000000E-03 0.  1.
         23    2    1    2    0    0 -0.35527136788E-14  0.00000000000E+00  0.35527136788E-14  0.91188000000E+02  0.91188000000E+02 0.  0.
    9900012    2    3    3    0    0  0.17024591623E+02  0.24531488388E+02 -0.21544166652E+02  0.54367058144E+02  0.39999940650E+02 0.  0.
         12    1    3    3    0    0 -0.17024591623E+02 -0.24531488388E+02  0.21544166652E+02  0.36820941856E+02  0.00000000000E+00 0. -1.
         11    1    4    4    0    0 -0.32826020680E+01  0.14699561220E+01  0.55462493971E+01  0.66103804711E+01  0.51100000000E-03 0. -1.
        -11    1    4    4    0    0  0.19398012256E+02  0.25971586107E+02 -0.15799675861E+02  0.36061557398E+02  0.51100000000E-03 0.  1.
        -12    1    4    4    0    0  0.90918143513E+00 -0.29100538412E+01 -0.11290740188E+02  0.11695120275E+02  0.00000000000E+00 0.  1.
</event>
<event>
 8    1  0.2512298E-006  0.9118800E+02  0.7816164E-02  0.1184000E+00
        -11   -1    0    0    0    0  0.00000000000E+00  0.00000000000E+00  0.45593999997E+02  0.45594000000E+02  0.51100000000E-03 0.  1.
         11   -1    0    0    0    0 -0.00000000000E+00 -0.00000000000E+00 -0.45593999997E+02  0.45594000000E+02  0.51100000000E-03 0. -1.
         23    2    1    2    0    0  0.00000000000E+00  0.00000000000E+00  0.00000000000E+00  0.91188000000E+02  0.91188000000E+02 0.  0.
    9900012    2    3    3    0    0 -0.71638593095E+01 -0.16594547469E+02  0.32079242457E+02  0.54367113502E+02  0.40000066850E+02 0.  0.
         12    1    3    3    0    0  0.71638593095E+01  0.16594547469E+02 -0.32079242457E+02  0.36820886498E+02  0.00000000000E+00 0. -1.
         11    1    4    4    0    0 -0.15852127741E+01  0.33464149891E+01 -0.19597499993E+01  0.41895122794E+01  0.51100000000E-03 0. -1.
        -11    1    4    4    0    0 -0.30124104278E+01 -0.17755884723E+02  0.21802904065E+01  0.18141105959E+02  0.51100000000E-03 0.  1.
        -12    1    4    4    0    0 -0.25662361076E+01 -0.21850777351E+01  0.31858702050E+02  0.32036495263E+02  0.00000000000E+00 0.  1.
</event>
<event>
 8    1  0.2512298E-006  0.9118800E+02  0.7816164E-02  0.1184000E+00
        -11   -1    0    0    0    0  0.00000000000E+00  0.00000000000E+00  0.45593999997E+02  0.45594000000E+02  0.51100000000E-03 0.  1.
         11   -1    0    0    0    0 -0.00000000000E+00 -0.00000000000E+00 -0.45593999997E+02  0.45594000000E+02  0.51100000000E-03 0. -1.
         23    2    1    2    0    0  0.00000000000E+00  0.00000000000E+00  0.35527136788E-14  0.91188000000E+02  0.91188000000E+02 0.  0.
    9900012    2    3    3    0    0 -0.70513003722E+01 -0.20576694367E+02  0.29709583428E+02  0.54367074761E+02  0.39999978532E+02 0.  0.
         12    1    3    3    0    0  0.70513003722E+01  0.20576694367E+02 -0.29709583428E+02  0.36820925239E+02  0.00000000000E+00 0. -1.
         11    1    4    4    0    0  0.79226035115E+01 -0.12071199522E+02 -0.41322352256E+01  0.15018550946E+02  0.51100000000E-03 0. -1.
        -11    1    4    4    0    0 -0.10202452283E+01 -0.22816013271E+01  0.33380046309E+00  0.25215130283E+01  0.51100000000E-03 0.  1.
        -12    1    4    4    0    0 -0.13953658655E+02 -0.62238935184E+01  0.33508018191E+02  0.36827010786E+02  0.00000000000E+00 0.  1.
</event>
<event>
 8    1  0.2512298E-006  0.9118800E+02  0.7816164E-02  0.1184000E+00
        -11   -1    0    0    0    0  0.00000000000E+00  0.00000000000E+00  0.45593999997E+02  0.45594000000E+02  0.51100000000E-03 0.  1.
         11   -1    0    0    0    0 -0.00000000000E+00 -0.00000000000E+00 -0.45593999997E+02  0.45594000000E+02  0.51100000000E-03 0. -1.
         23    2    1    2    0    0  0.00000000000E+00  0.00000000000E+00  0.35527136788E-14  0.91188000000E+02  0.91188000000E+02 0.  0.
    9900012    2    3    3    0    0  0.23279168968E+02 -0.18712271162E+02 -0.21533956051E+02  0.54367081175E+02  0.39999993155E+02 0.  0.
        -12    1    3    3    0    0 -0.23279168968E+02  0.18712271162E+02  0.21533956051E+02  0.36820918825E+02  0.00000000000E+00 0.  1.
         11    1    4    4    0    0  0.18150452621E+02 -0.15437575287E+02 -0.20374524598E+02  0.31350899731E+02  0.51100000000E-03 0. -1.
        -11    1    4    4    0    0  0.76275564511E+01 -0.27346396595E+00  0.91948567901E+01  0.11949886678E+02  0.51100000000E-03 0.  1.
        -12    1    4    4    0    0 -0.24988401044E+01 -0.30012319094E+01 -0.10354288243E+02  0.11066294766E+02  0.00000000000E+00 0.  1.
</event>
<event>
 8    1  0.2512298E-006  0.9118800E+02  0.7816164E-02  0.1184000E+00
        -11   -1    0    0    0    0  0.00000000000E+00  0.00000000000E+00  0.45593999997E+02  0.45594000000E+02  0.51100000000E-03 0. -1.
         11   -1    0    0    0    0 -0.00000000000E+00 -0.00000000000E+00 -0.45593999997E+02  0.45594000000E+02  0.51100000000E-03 0.  1.
         23    2    1    2    0    0 -0.13322676296E-14 -0.71054273576E-14 -0.17763568394E-14  0.91188000000E+02  0.91188000000E+02 0.  0.
    9900012    2    3    3    0    0  0.38847386546E+01  0.34158370936E+02  0.13186853291E+02  0.54367101054E+02  0.40000038474E+02 0.  0.
        -12    1    3    3    0    0 -0.38847386546E+01 -0.34158370936E+02 -0.13186853291E+02  0.36820898946E+02  0.00000000000E+00 0.  1.
         11    1    4    4    0    0  0.68470111268E+01  0.19114204441E+02  0.18549678671E+02  0.27501362727E+02  0.51100000000E-03 0. -1.
        -11    1    4    4    0    0  0.89825679959E+01  0.86406051428E+01 -0.46194664713E+01  0.13292330713E+02  0.51100000000E-03 0.  1.
        -12    1    4    4    0    0 -0.11944840468E+02  0.64035613528E+01 -0.74335890857E+00  0.13573407615E+02  0.00000000000E+00 0.  1.
</event>
<event>
 8    1  0.2512298E-006  0.9118800E+02  0.7816164E-02  0.1184000E+00
        -11   -1    0    0    0    0  0.00000000000E+00  0.00000000000E+00  0.45593999997E+02  0.45594000000E+02  0.51100000000E-03 0. -1.
         11   -1    0    0    0    0 -0.00000000000E+00 -0.00000000000E+00 -0.45593999997E+02  0.45594000000E+02  0.51100000000E-03 0.  1.
         23    2    1    2    0    0  0.00000000000E+00 -0.17763568394E-14  0.00000000000E+00  0.91188000000E+02  0.91188000000E+02 0.  0.
    9900012    2    3    3    0    0 -0.33072827417E+02  0.14605207749E+02 -0.69753847713E+01  0.54367082040E+02  0.39999995126E+02 0.  0.
         12    1    3    3    0    0  0.33072827417E+02 -0.14605207749E+02  0.69753847713E+01  0.36820917960E+02  0.00000000000E+00 0. -1.
         11    1    4    4    0    0  0.23965885834E+01 -0.49724457017E+01 -0.37498396673E+00  0.55325822479E+01  0.51100000000E-03 0. -1.
        -11    1    4    4    0    0  0.29829466524E+01 -0.23045195322E+01 -0.22222131807E+01  0.43757299605E+01  0.51100000000E-03 0.  1.
        -12    1    4    4    0    0 -0.38452362653E+02  0.21882172983E+02 -0.43781876238E+01  0.44458769831E+02  0.00000000000E+00 0.  1.
</event>
<event>
 8    1  0.2512298E-006  0.9118800E+02  0.7816164E-02  0.1184000E+00
        -11   -1    0    0    0    0  0.00000000000E+00  0.00000000000E+00  0.45593999997E+02  0.45594000000E+02  0.51100000000E-03 0. -1.
         11   -1    0    0    0    0 -0.00000000000E+00 -0.00000000000E+00 -0.45593999997E+02  0.45594000000E+02  0.51100000000E-03 0.  1.
         23    2    1    2    0    0  0.44408920985E-15  0.00000000000E+00  0.00000000000E+00  0.91188000000E+02  0.91188000000E+02 0.  0.
    9900012    2    3    3    0    0  0.25552643862E+01 -0.36573361696E+02 -0.34115565593E+01  0.54367097241E+02  0.40000029780E+02 0.  0.
         12    1    3    3    0    0 -0.25552643862E+01  0.36573361696E+02  0.34115565593E+01  0.36820902759E+02  0.00000000000E+00 0. -1.
         11    1    4    4    0    0 -0.39563812583E+01  0.63055642173E+00 -0.70355853297E+01  0.80962963913E+01  0.51100000000E-03 0. -1.
        -11    1    4    4    0    0 -0.10528463634E+01 -0.23716155338E+02 -0.99058295105E+01  0.25723335088E+02  0.51100000000E-03 0.  1.
        -12    1    4    4    0    0  0.75644920079E+01 -0.13487762780E+02  0.13529858281E+02  0.20547465762E+02  0.00000000000E+00 0.  1.
</event>
<event>
 8    1  0.2512298E-006  0.9118800E+02  0.7816164E-02  0.1184000E+00
        -11   -1    0    0    0    0  0.00000000000E+00  0.00000000000E+00  0.45593999997E+02  0.45594000000E+02  0.51100000000E-03 0.  1.
         11   -1    0    0    0    0 -0.00000000000E+00 -0.00000000000E+00 -0.45593999997E+02  0.45594000000E+02  0.51100000000E-03 0. -1.
         23    2    1    2    0    0  0.00000000000E+00 -0.17763568394E-14  0.00000000000E+00  0.91188000000E+02  0.91188000000E+02 0.  0.
    9900012    2    3    3    0    0  0.23035585138E+02 -0.68706974852E+00 -0.28717054953E+02  0.54367088921E+02  0.40000010814E+02 0.  0.
        -12    1    3    3    0    0 -0.23035585138E+02  0.68706974852E+00  0.28717054953E+02  0.36820911079E+02  0.00000000000E+00 0.  1.
         11    1    4    4    0    0  0.22437281161E+02  0.75555262184E+01 -0.17726180181E+02  0.29575919705E+02  0.51100000000E-03 0. -1.
        -11    1    4    4    0    0 -0.64317120930E+01 -0.12302399107E+02 -0.85923145182E+01  0.16326169584E+02  0.51100000000E-03 0.  1.
        -12    1    4    4    0    0  0.70300160701E+01  0.40598031405E+01 -0.23985602536E+01  0.84649996323E+01  0.00000000000E+00 0.  1.
</event>
<event>
 8    1  0.2512298E-006  0.9118800E+02  0.7816164E-02  0.1184000E+00
        -11   -1    0    0    0    0  0.00000000000E+00  0.00000000000E+00  0.45593999997E+02  0.45594000000E+02  0.51100000000E-03 0.  1.
         11   -1    0    0    0    0 -0.00000000000E+00 -0.00000000000E+00 -0.45593999997E+02  0.45594000000E+02  0.51100000000E-03 0. -1.
         23    2    1    2    0    0 -0.17763568394E-14  0.35527136788E-14  0.00000000000E+00  0.91188000000E+02  0.91188000000E+02 0.  0.
    9900012    2    3    3    0    0  0.11506313350E+02 -0.23435903231E+02  0.25964267679E+02  0.54367081988E+02  0.39999995009E+02 0.  0.
         12    1    3    3    0    0 -0.11506313350E+02  0.23435903231E+02 -0.25964267679E+02  0.36820918012E+02  0.00000000000E+00 0. -1.
         11    1    4    4    0    0 -0.31143426803E+01 -0.68494245845E+01 -0.57899949974E+01  0.94940923632E+01  0.51100000000E-03 0. -1.
        -11    1    4    4    0    0  0.13990558345E+02 -0.21961285125E+02  0.28280300407E+02  0.38442283472E+02  0.51100000000E-03 0.  1.
         12    1    4    4    0    0  0.63009768541E+00  0.53748064793E+01  0.34739622691E+01  0.64307061533E+01  0.00000000000E+00 0. -1.
</event>
<event>
 8    1  0.2512298E-006  0.9118800E+02  0.7816164E-02  0.1184000E+00
        -11   -1    0    0    0    0  0.00000000000E+00  0.00000000000E+00  0.45593999997E+02  0.45594000000E+02  0.51100000000E-03 0.  1.
         11   -1    0    0    0    0 -0.00000000000E+00 -0.00000000000E+00 -0.45593999997E+02  0.45594000000E+02  0.51100000000E-03 0. -1.
         23    2    1    2    0    0  0.00000000000E+00  0.35527136788E-14  0.00000000000E+00  0.91188000000E+02  0.91188000000E+02 0.  0.
    9900012    2    3    3    0    0 -0.15528710996E+02  0.27148681602E+02 -0.19431611208E+02  0.54367091645E+02  0.40000017023E+02 0.  0.
        -12    1    3    3    0    0  0.15528710996E+02 -0.27148681602E+02  0.19431611208E+02  0.36820908355E+02  0.00000000000E+00 0.  1.
         11    1    4    4    0    0 -0.83728371295E+01  0.14748764963E+02 -0.12100936645E+02  0.20834181949E+02  0.51100000000E-03 0. -1.
        -11    1    4    4    0    0 -0.67891496947E+01  0.21280871456E+02 -0.53464032009E+00  0.22343989886E+02  0.51100000000E-03 0.  1.
        -12    1    4    4    0    0 -0.36672417184E+00 -0.88809548169E+01 -0.67960342426E+01  0.11188919810E+02  0.00000000000E+00 0.  1.
</event>
<event>
 8    1  0.2512298E-006  0.9118800E+02  0.7816164E-02  0.1184000E+00
        -11   -1    0    0    0    0  0.00000000000E+00  0.00000000000E+00  0.45593999997E+02  0.45594000000E+02  0.51100000000E-03 0. -1.
         11   -1    0    0    0    0 -0.00000000000E+00 -0.00000000000E+00 -0.45593999997E+02  0.45594000000E+02  0.51100000000E-03 0.  1.
         23    2    1    2    0    0  0.35527136788E-14  0.00000000000E+00  0.00000000000E+00  0.91188000000E+02  0.91188000000E+02 0.  0.
    9900012    2    3    3    0    0 -0.22712885711E+02 -0.27208625457E+02  0.99796035563E+01  0.54367123262E+02  0.40000089101E+02 0.  0.
         12    1    3    3    0    0  0.22712885711E+02  0.27208625457E+02 -0.99796035563E+01  0.36820876738E+02  0.00000000000E+00 0. -1.
         11    1    4    4    0    0  0.19340125493E+01  0.43555900833E+01 -0.54377112979E+00  0.47965880392E+01  0.51100000000E-03 0. -1.
        -11    1    4    4    0    0 -0.16101184530E+02 -0.34843501447E+02  0.12177006148E+02  0.40269060274E+02  0.51100000000E-03 0.  1.
        -12    1    4    4    0    0 -0.85457137306E+01  0.32792859066E+01 -0.16536314616E+01  0.93014749493E+01  0.00000000000E+00 0.  1.
</event>
<event>
 8    1  0.2512298E-006  0.9118800E+02  0.7816164E-02  0.1184000E+00
        -11   -1    0    0    0    0  0.00000000000E+00  0.00000000000E+00  0.45593999997E+02  0.45594000000E+02  0.51100000000E-03 0.  1.
         11   -1    0    0    0    0 -0.00000000000E+00 -0.00000000000E+00 -0.45593999997E+02  0.45594000000E+02  0.51100000000E-03 0. -1.
         23    2    1    2    0    0  0.88817841970E-15 -0.35527136788E-14  0.00000000000E+00  0.91188000000E+02  0.91188000000E+02 0.  0.
    9900012    2    3    3    0    0  0.16056858358E+01  0.24505924596E+02  0.27434681246E+02  0.54367077926E+02  0.39999985748E+02 0.  0.
         12    1    3    3    0    0 -0.16056858358E+01 -0.24505924596E+02 -0.27434681246E+02  0.36820922074E+02  0.00000000000E+00 0. -1.
         11    1    4    4    0    0 -0.89685495192E+01  0.11074393228E+02 -0.79450277662E+00  0.14272641688E+02  0.51100000000E-03 0. -1.
        -11    1    4    4    0    0  0.32934641294E+01  0.18637254265E+02  0.22777987892E+02  0.29614707244E+02  0.51100000000E-03 0.  1.
         12    1    4    4    0    0  0.72807712256E+01 -0.52057228964E+01  0.54511961311E+01  0.10479728993E+02  0.00000000000E+00 0. -1.
</event>
<event>
 8    1  0.2512298E-006  0.9118800E+02  0.7816164E-02  0.1184000E+00
        -11   -1    0    0    0    0  0.00000000000E+00  0.00000000000E+00  0.45593999997E+02  0.45594000000E+02  0.51100000000E-03 0. -1.
         11   -1    0    0    0    0 -0.00000000000E+00 -0.00000000000E+00 -0.45593999997E+02  0.45594000000E+02  0.51100000000E-03 0.  1.
         23    2    1    2    0    0  0.35527136788E-14  0.00000000000E+00 -0.44408920985E-15  0.91188000000E+02  0.91188000000E+02 0.  0.
    9900012    2    3    3    0    0 -0.17514875066E+02 -0.32383425012E+02 -0.56828825357E+00  0.54367081820E+02  0.39999994624E+02 0.  0.
         12    1    3    3    0    0  0.17514875066E+02  0.32383425012E+02  0.56828825357E+00  0.36820918180E+02  0.00000000000E+00 0. -1.
         11    1    4    4    0    0 -0.69842835100E+01 -0.84774718188E+00 -0.92657047296E+01  0.11634095402E+02  0.51100000000E-03 0. -1.
        -11    1    4    4    0    0  0.48980392659E+01 -0.12102406223E+01  0.70488717145E+01  0.86684522103E+01  0.51100000000E-03 0.  1.
        -12    1    4    4    0    0 -0.15428630822E+02 -0.30325437208E+02  0.16485447616E+01  0.34064534207E+02  0.00000000000E+00 0.  1.
</event>
<event>
 8    1  0.2512298E-006  0.9118800E+02  0.7816164E-02  0.1184000E+00
        -11   -1    0    0    0    0  0.00000000000E+00  0.00000000000E+00  0.45593999997E+02  0.45594000000E+02  0.51100000000E-03 0. -1.
         11   -1    0    0    0    0 -0.00000000000E+00 -0.00000000000E+00 -0.45593999997E+02  0.45594000000E+02  0.51100000000E-03 0.  1.
         23    2    1    2    0    0 -0.17763568394E-14 -0.35527136788E-14 -0.35527136788E-14  0.91188000000E+02  0.91188000000E+02 0.  0.
    9900012    2    3    3    0    0  0.10292524900E+02  0.26362857067E+02  0.23555107662E+02  0.54367090200E+02  0.40000013729E+02 0.  0.
        -12    1    3    3    0    0 -0.10292524900E+02 -0.26362857067E+02 -0.23555107662E+02  0.36820909800E+02  0.00000000000E+00 0.  1.
         11    1    4    4    0    0  0.12844983431E+01  0.25750398731E+02  0.38046567489E+01  0.26061626657E+02  0.51100000000E-03 0. -1.
        -11    1    4    4    0    0  0.84332163034E+01 -0.73469816067E+01  0.15913258557E+02  0.19450683127E+02  0.51100000000E-03 0.  1.
        -12    1    4    4    0    0  0.57481025325E+00  0.79594399428E+01  0.38371923564E+01  0.88547804156E+01  0.00000000000E+00 0.  1.
</event>
<event>
 8    1  0.2512298E-006  0.9118800E+02  0.7816164E-02  0.1184000E+00
        -11   -1    0    0    0    0  0.00000000000E+00  0.00000000000E+00  0.45593999997E+02  0.45594000000E+02  0.51100000000E-03 0.  1.
         11   -1    0    0    0    0 -0.00000000000E+00 -0.00000000000E+00 -0.45593999997E+02  0.45594000000E+02  0.51100000000E-03 0. -1.
         23    2    1    2    0    0 -0.14988010832E-14  0.17763568394E-14  0.71054273576E-14  0.91188000000E+02  0.91188000000E+02 0.  0.
    9900012    2    3    3    0    0 -0.45109222179E+00  0.12241594568E+02  0.34723474588E+02  0.54367084623E+02  0.40000001015E+02 0.  0.
         12    1    3    3    0    0  0.45109222179E+00 -0.12241594568E+02 -0.34723474588E+02  0.36820915377E+02  0.00000000000E+00 0. -1.
         11    1    4    4    0    0 -0.17226521284E+02  0.55762233075E+01  0.29651892353E+02  0.34743085964E+02  0.51100000000E-03 0.  1.
        -11    1    4    4    0    0  0.59885118942E+01  0.34727661597E+00 -0.32610505401E+00  0.60074304426E+01  0.51100000000E-03 0. -1.
        -12    1    4    4    0    0  0.10786917168E+02  0.63180946447E+01  0.53976872888E+01  0.13616568216E+02  0.00000000000E+00 0.  1.
</event>
<event>
 8    1  0.2512298E-006  0.9118800E+02  0.7816164E-02  0.1184000E+00
        -11   -1    0    0    0    0  0.00000000000E+00  0.00000000000E+00  0.45593999997E+02  0.45594000000E+02  0.51100000000E-03 0. -1.
         11   -1    0    0    0    0 -0.00000000000E+00 -0.00000000000E+00 -0.45593999997E+02  0.45594000000E+02  0.51100000000E-03 0.  1.
         23    2    1    2    0    0  0.00000000000E+00  0.00000000000E+00  0.00000000000E+00  0.91188000000E+02  0.91188000000E+02 0.  0.
    9900012    2    3    3    0    0 -0.32997209587E+02  0.14143974266E+02  0.81799963894E+01  0.54367079459E+02  0.39999989243E+02 0.  0.
         12    1    3    3    0    0  0.32997209587E+02 -0.14143974266E+02 -0.81799963894E+01  0.36820920541E+02  0.00000000000E+00 0. -1.
         11    1    4    4    0    0 -0.16987148052E+02  0.78108905094E+01  0.48681223786E+01  0.19320243923E+02  0.51100000000E-03 0. -1.
        -11    1    4    4    0    0 -0.19297576734E+02  0.10586158201E+02 -0.72681621468E+01  0.23179503759E+02  0.51100000000E-03 0.  1.
         12    1    4    4    0    0  0.32875151991E+01 -0.42530744447E+01  0.10580036158E+02  0.11867331777E+02  0.00000000000E+00 0. -1.
</event>
<event>
 8    1  0.2512298E-006  0.9118800E+02  0.7816164E-02  0.1184000E+00
        -11   -1    0    0    0    0  0.00000000000E+00  0.00000000000E+00  0.45593999997E+02  0.45594000000E+02  0.51100000000E-03 0. -1.
         11   -1    0    0    0    0 -0.00000000000E+00 -0.00000000000E+00 -0.45593999997E+02  0.45594000000E+02  0.51100000000E-03 0.  1.
         23    2    1    2    0    0 -0.35527136788E-14  0.00000000000E+00  0.00000000000E+00  0.91188000000E+02  0.91188000000E+02 0.  0.
    9900012    2    3    3    0    0  0.22904131528E+02 -0.17505795451E+02 -0.22906941624E+02  0.54367080810E+02  0.39999992322E+02 0.  0.
         12    1    3    3    0    0 -0.22904131528E+02  0.17505795451E+02  0.22906941624E+02  0.36820919190E+02  0.00000000000E+00 0. -1.
         11    1    4    4    0    0 -0.55868733183E+01  0.32794560165E+00 -0.69710530405E+01  0.89395907371E+01  0.51100000000E-03 0. -1.
        -11    1    4    4    0    0  0.12176961571E+02  0.18572358076E+00 -0.17214184641E+02  0.21086513213E+02  0.51100000000E-03 0.  1.
         12    1    4    4    0    0  0.16314043276E+02 -0.18019464633E+02  0.12782960582E+01  0.24340976860E+02  0.00000000000E+00 0. -1.
</event>
<event>
 8    1  0.2512298E-006  0.9118800E+02  0.7816164E-02  0.1184000E+00
        -11   -1    0    0    0    0  0.00000000000E+00  0.00000000000E+00  0.45593999997E+02  0.45594000000E+02  0.51100000000E-03 0.  1.
         11   -1    0    0    0    0 -0.00000000000E+00 -0.00000000000E+00 -0.45593999997E+02  0.45594000000E+02  0.51100000000E-03 0. -1.
         23    2    1    2    0    0  0.00000000000E+00  0.00000000000E+00  0.00000000000E+00  0.91188000000E+02  0.91188000000E+02 0.  0.
    9900012    2    3    3    0    0  0.18322583430E+02  0.92735878695E+01 -0.30562429237E+02  0.54367101364E+02  0.40000039178E+02 0.  0.
        -12    1    3    3    0    0 -0.18322583430E+02 -0.92735878695E+01  0.30562429237E+02  0.36820898636E+02  0.00000000000E+00 0.  1.
         11    1    4    4    0    0  0.61721783694E+01  0.11638209002E+02 -0.17964156300E+02  0.22276772801E+02  0.51100000000E-03 0. -1.
        -11    1    4    4    0    0  0.62491914832E+01  0.88416264976E+01 -0.15680763648E+02  0.19055526814E+02  0.51100000000E-03 0.  1.
        -12    1    4    4    0    0  0.59012135769E+01 -0.11206247631E+02  0.30824907103E+01  0.13034801748E+02  0.00000000000E+00 0.  1.
</event>
<event>
 8    1  0.2512298E-006  0.9118800E+02  0.7816164E-02  0.1184000E+00
        -11   -1    0    0    0    0  0.00000000000E+00  0.00000000000E+00  0.45593999997E+02  0.45594000000E+02  0.51100000000E-03 0.  1.
         11   -1    0    0    0    0 -0.00000000000E+00 -0.00000000000E+00 -0.45593999997E+02  0.45594000000E+02  0.51100000000E-03 0. -1.
         23    2    1    2    0    0  0.00000000000E+00 -0.17763568394E-14  0.35527136788E-14  0.91188000000E+02  0.91188000000E+02 0.  0.
    9900012    2    3    3    0    0 -0.11452877707E+02  0.15750771252E+02  0.31249386120E+02  0.54367091053E+02  0.40000015674E+02 0.  0.
         12    1    3    3    0    0  0.11452877707E+02 -0.15750771252E+02 -0.31249386120E+02  0.36820908947E+02  0.00000000000E+00 0. -1.
         11    1    4    4    0    0  0.15240596947E+01 -0.40328151857E+01  0.18226806544E+01  0.46806539398E+01  0.51100000000E-03 0. -1.
        -11    1    4    4    0    0  0.10107351047E+02  0.61831078685E+01  0.33842044748E+01  0.12322427045E+02  0.51100000000E-03 0.  1.
        -12    1    4    4    0    0 -0.23084288449E+02  0.13600478569E+02  0.26042500991E+02  0.37364010068E+02  0.00000000000E+00 0.  1.
</event>
<event>
 8    1  0.2512298E-006  0.9118800E+02  0.7816164E-02  0.1184000E+00
        -11   -1    0    0    0    0  0.00000000000E+00  0.00000000000E+00  0.45593999997E+02  0.45594000000E+02  0.51100000000E-03 0.  1.
         11   -1    0    0    0    0 -0.00000000000E+00 -0.00000000000E+00 -0.45593999997E+02  0.45594000000E+02  0.51100000000E-03 0. -1.
         23    2    1    2    0    0 -0.88817841970E-15  0.00000000000E+00  0.00000000000E+00  0.91188000000E+02  0.91188000000E+02 0.  0.
    9900012    2    3    3    0    0 -0.24998234162E+01  0.35618182165E+02  0.89931370230E+01  0.54367074817E+02  0.39999978660E+02 0.  0.
        -12    1    3    3    0    0  0.24998234162E+01 -0.35618182165E+02 -0.89931370230E+01  0.36820925183E+02  0.00000000000E+00 0.  1.
         11    1    4    4    0    0 -0.12272738111E+02  0.22578981716E+02 -0.11906172579E+01  0.25726408334E+02  0.51100000000E-03 0. -1.
        -11    1    4    4    0    0  0.13675890960E+02  0.68426945533E+00  0.38816892855E+01  0.14232558807E+02  0.51100000000E-03 0.  1.
        -12    1    4    4    0    0 -0.39029762651E+01  0.12354930994E+02  0.63020649954E+01  0.14408107676E+02  0.00000000000E+00 0.  1.
</event>
<event>
 8    1  0.2512298E-006  0.9118800E+02  0.7816164E-02  0.1184000E+00
        -11   -1    0    0    0    0  0.00000000000E+00  0.00000000000E+00  0.45593999997E+02  0.45594000000E+02  0.51100000000E-03 0.  1.
         11   -1    0    0    0    0 -0.00000000000E+00 -0.00000000000E+00 -0.45593999997E+02  0.45594000000E+02  0.51100000000E-03 0. -1.
         23    2    1    2    0    0  0.71054273576E-14  0.22204460493E-15  0.17763568394E-14  0.91188000000E+02  0.91188000000E+02 0.  0.
    9900012    2    3    3    0    0  0.34443795392E+02  0.92949824583E+00  0.12982299637E+02  0.54367094092E+02  0.40000022602E+02 0.  0.
         12    1    3    3    0    0 -0.34443795392E+02 -0.92949824583E+00 -0.12982299637E+02  0.36820905908E+02  0.00000000000E+00 0. -1.
         11    1    4    4    0    0  0.50061609627E+01 -0.12837278046E+02  0.69994111030E+00  0.13796639918E+02  0.51100000000E-03 0. -1.
        -11    1    4    4    0    0  0.19800943421E+01 -0.21193425422E+01 -0.39785506665E+01  0.49235406043E+01  0.51100000000E-03 0.  1.
        -12    1    4    4    0    0  0.27457540088E+02  0.15886118834E+02  0.16260909193E+02  0.35646913570E+02  0.00000000000E+00 0.  1.
</event>
<event>
 8    1  0.2512298E-006  0.9118800E+02  0.7816164E-02  0.1184000E+00
        -11   -1    0    0    0    0  0.00000000000E+00  0.00000000000E+00  0.45593999997E+02  0.45594000000E+02  0.51100000000E-03 0. -1.
         11   -1    0    0    0    0 -0.00000000000E+00 -0.00000000000E+00 -0.45593999997E+02  0.45594000000E+02  0.51100000000E-03 0.  1.
         23    2    1    2    0    0  0.00000000000E+00  0.35527136788E-14  0.00000000000E+00  0.91188000000E+02  0.91188000000E+02 0.  0.
    9900012    2    3    3    0    0 -0.25278768250E+02  0.22701066588E+02  0.14192433655E+02  0.54367085814E+02  0.40000003730E+02 0.  0.
        -12    1    3    3    0    0  0.25278768250E+02 -0.22701066588E+02 -0.14192433655E+02  0.36820914186E+02  0.00000000000E+00 0.  1.
         11    1    4    4    0    0 -0.92214420419E+01  0.60550731019E+01 -0.11479396488E+01  0.11091287991E+02  0.51100000000E-03 0.  1.
        -11    1    4    4    0    0 -0.15798400692E+02  0.24937937971E+02  0.17985511863E+02  0.34568321508E+02  0.51100000000E-03 0. -1.
         12    1    4    4    0    0 -0.25892551631E+00 -0.82919444851E+01 -0.26451385594E+01  0.87074763144E+01  0.00000000000E+00 0. -1.
</event>
<event>
 8    1  0.2512298E-006  0.9118800E+02  0.7816164E-02  0.1184000E+00
        -11   -1    0    0    0    0  0.00000000000E+00  0.00000000000E+00  0.45593999997E+02  0.45594000000E+02  0.51100000000E-03 0.  1.
         11   -1    0    0    0    0 -0.00000000000E+00 -0.00000000000E+00 -0.45593999997E+02  0.45594000000E+02  0.51100000000E-03 0. -1.
         23    2    1    2    0    0  0.00000000000E+00  0.00000000000E+00  0.00000000000E+00  0.91188000000E+02  0.91188000000E+02 0.  0.
    9900012    2    3    3    0    0  0.87018037150E+01  0.56227968437E+01  0.35333295952E+02  0.54367095135E+02  0.40000024979E+02 0.  0.
         12    1    3    3    0    0 -0.87018037150E+01 -0.56227968437E+01 -0.35333295952E+02  0.36820904865E+02  0.00000000000E+00 0. -1.
         11    1    4    4    0    0  0.61419136594E+01 -0.13061904006E+02  0.59214592732E+01  0.15601285840E+02  0.51100000000E-03 0. -1.
        -11    1    4    4    0    0  0.77992423479E+01  0.14592957697E+02  0.27052962811E+02  0.31711912472E+02  0.51100000000E-03 0.  1.
        -12    1    4    4    0    0 -0.52393522923E+01  0.40917431522E+01  0.23588738682E+01  0.70538968232E+01  0.00000000000E+00 0.  1.
</event>
<event>
 8    1  0.2512298E-006  0.9118800E+02  0.7816164E-02  0.1184000E+00
        -11   -1    0    0    0    0  0.00000000000E+00  0.00000000000E+00  0.45593999997E+02  0.45594000000E+02  0.51100000000E-03 0.  1.
         11   -1    0    0    0    0 -0.00000000000E+00 -0.00000000000E+00 -0.45593999997E+02  0.45594000000E+02  0.51100000000E-03 0. -1.
         23    2    1    2    0    0 -0.44408920985E-15  0.00000000000E+00 -0.35527136788E-14  0.91188000000E+02  0.91188000000E+02 0.  0.
    9900012    2    3    3    0    0  0.10847500836E+01 -0.25921720738E+02 -0.26127935308E+02  0.54367064485E+02  0.39999955107E+02 0.  0.
         12    1    3    3    0    0 -0.10847500836E+01  0.25921720738E+02  0.26127935308E+02  0.36820935515E+02  0.00000000000E+00 0. -1.
         11    1    4    4    0    0 -0.31388471423E+01 -0.57744794798E+01 -0.84442825605E+01  0.10700601986E+02  0.51100000000E-03 0. -1.
        -11    1    4    4    0    0  0.14976637406E+02  0.21889354845E+01 -0.67189299299E+01  0.16560046081E+02  0.51100000000E-03 0.  1.
        -12    1    4    4    0    0 -0.10753040180E+02 -0.22336176742E+02 -0.10964722817E+02  0.27106416418E+02  0.00000000000E+00 0.  1.
</event>
<event>
 8    1  0.2512298E-006  0.9118800E+02  0.7816164E-02  0.1184000E+00
        -11   -1    0    0    0    0  0.00000000000E+00  0.00000000000E+00  0.45593999997E+02  0.45594000000E+02  0.51100000000E-03 0.  1.
         11   -1    0    0    0    0 -0.00000000000E+00 -0.00000000000E+00 -0.45593999997E+02  0.45594000000E+02  0.51100000000E-03 0. -1.
         23    2    1    2    0    0  0.00000000000E+00  0.35527136788E-14 -0.17763568394E-14  0.91188000000E+02  0.91188000000E+02 0.  0.
    9900012    2    3    3    0    0  0.29056913446E+02 -0.21002979938E+02 -0.83886422452E+01  0.54366828047E+02  0.39999416094E+02 0.  0.
        -12    1    3    3    0    0 -0.29056913446E+02  0.21002979938E+02  0.83886422452E+01  0.36821171953E+02  0.00000000000E+00 0.  1.
         11    1    4    4    0    0  0.11055275375E+02 -0.87805528234E+01 -0.10601690015E+02  0.17655397275E+02  0.51100000000E-03 0. -1.
        -11    1    4    4    0    0  0.24940058200E+01 -0.15196114268E+02  0.10731687247E+02  0.18769951127E+02  0.51100000000E-03 0.  1.
        -12    1    4    4    0    0  0.15507632251E+02  0.29736871533E+01 -0.85186394777E+01  0.17941479646E+02  0.00000000000E+00 0.  1.
</event>
<event>
 8    1  0.2512298E-006  0.9118800E+02  0.7816164E-02  0.1184000E+00
        -11   -1    0    0    0    0  0.00000000000E+00  0.00000000000E+00  0.45593999997E+02  0.45594000000E+02  0.51100000000E-03 0.  1.
         11   -1    0    0    0    0 -0.00000000000E+00 -0.00000000000E+00 -0.45593999997E+02  0.45594000000E+02  0.51100000000E-03 0. -1.
         23    2    1    2    0    0  0.35527136788E-14  0.00000000000E+00  0.00000000000E+00  0.91188000000E+02  0.91188000000E+02 0.  0.
    9900012    2    3    3    0    0 -0.21146902880E+02  0.11338569234E+02  0.27928950506E+02  0.54367069403E+02  0.39999966318E+02 0.  0.
         12    1    3    3    0    0  0.21146902880E+02 -0.11338569234E+02 -0.27928950506E+02  0.36820930597E+02  0.00000000000E+00 0. -1.
         11    1    4    4    0    0 -0.13274918201E+02 -0.75752865542E+01  0.23556938540E+02  0.28080914751E+02  0.51100000000E-03 0. -1.
        -11    1    4    4    0    0 -0.79362851793E+01  0.14055991612E+02  0.98928311064E+01  0.18932079394E+02  0.51100000000E-03 0.  1.
         12    1    4    4    0    0  0.64300500315E-01  0.48578641761E+01 -0.55208191405E+01  0.73540752573E+01  0.00000000000E+00 0. -1.
</event>
<event>
 8    1  0.2512298E-006  0.9118800E+02  0.7816164E-02  0.1184000E+00
        -11   -1    0    0    0    0  0.00000000000E+00  0.00000000000E+00  0.45593999997E+02  0.45594000000E+02  0.51100000000E-03 0. -1.
         11   -1    0    0    0    0 -0.00000000000E+00 -0.00000000000E+00 -0.45593999997E+02  0.45594000000E+02  0.51100000000E-03 0.  1.
         23    2    1    2    0    0 -0.71054273576E-14  0.17763568394E-14  0.17763568394E-14  0.91188000000E+02  0.91188000000E+02 0.  0.
    9900012    2    3    3    0    0 -0.34080456424E+02 -0.12763483101E+02 -0.56031930627E+01  0.54367084973E+02  0.40000001813E+02 0.  0.
         12    1    3    3    0    0  0.34080456424E+02  0.12763483101E+02  0.56031930627E+01  0.36820915027E+02  0.00000000000E+00 0. -1.
         11    1    4    4    0    0  0.38380051257E+01 -0.91282118552E+00  0.32355433300E+01  0.51021825490E+01  0.51100000000E-03 0. -1.
        -11    1    4    4    0    0 -0.10016922809E+02  0.88078835881E+01  0.38272216972E+00  0.13344063564E+02  0.51100000000E-03 0.  1.
        -12    1    4    4    0    0 -0.27901538740E+02 -0.20658545504E+02 -0.92214585624E+01  0.35920838860E+02  0.00000000000E+00 0.  1.
</event>
<event>
 8    1  0.2512298E-006  0.9118800E+02  0.7816164E-02  0.1184000E+00
        -11   -1    0    0    0    0  0.00000000000E+00  0.00000000000E+00  0.45593999997E+02  0.45594000000E+02  0.51100000000E-03 0.  1.
         11   -1    0    0    0    0 -0.00000000000E+00 -0.00000000000E+00 -0.45593999997E+02  0.45594000000E+02  0.51100000000E-03 0. -1.
         23    2    1    2    0    0  0.17763568394E-14  0.00000000000E+00  0.44408920985E-15  0.91188000000E+02  0.91188000000E+02 0.  0.
    9900012    2    3    3    0    0 -0.10415576750E+02  0.35212581689E+02 -0.27147009832E+01  0.54367085431E+02  0.40000002857E+02 0.  0.
        -12    1    3    3    0    0  0.10415576750E+02 -0.35212581689E+02  0.27147009832E+01  0.36820914569E+02  0.00000000000E+00 0.  1.
         11    1    4    4    0    0  0.38918031917E+01  0.23070537187E+02  0.32811688608E+01  0.23625449997E+02  0.51100000000E-03 0. -1.
        -11    1    4    4    0    0 -0.56363036873E+01  0.15124108278E+02  0.45475867345E+01  0.16768634883E+02  0.51100000000E-03 0.  1.
         12    1    4    4    0    0 -0.86710762546E+01 -0.29820637766E+01 -0.10543456578E+02  0.13973000551E+02  0.00000000000E+00 0. -1.
</event>
<event>
 8    1  0.2512298E-006  0.9118800E+02  0.7816164E-02  0.1184000E+00
        -11   -1    0    0    0    0  0.00000000000E+00  0.00000000000E+00  0.45593999997E+02  0.45594000000E+02  0.51100000000E-03 0. -1.
         11   -1    0    0    0    0 -0.00000000000E+00 -0.00000000000E+00 -0.45593999997E+02  0.45594000000E+02  0.51100000000E-03 0.  1.
         23    2    1    2    0    0  0.00000000000E+00  0.35527136788E-14  0.00000000000E+00  0.91188000000E+02  0.91188000000E+02 0.  0.
    9900012    2    3    3    0    0 -0.31407275227E+02  0.17359135026E+02  0.82476319112E+01  0.54367082872E+02  0.39999997022E+02 0.  0.
        -12    1    3    3    0    0  0.31407275227E+02 -0.17359135026E+02 -0.82476319112E+01  0.36820917128E+02  0.00000000000E+00 0.  1.
         11    1    4    4    0    0 -0.88198095326E+01  0.28287358546E+01 -0.77905084299E+01  0.12103008245E+02  0.51100000000E-03 0. -1.
        -11    1    4    4    0    0  0.17873958223E+00  0.57298597005E+01 -0.67610002350E+01  0.88642182094E+01  0.51100000000E-03 0.  1.
         12    1    4    4    0    0 -0.22766205276E+02  0.88005394714E+01  0.22799140576E+02  0.33399856417E+02  0.00000000000E+00 0. -1.
</event>
<event>
 8    1  0.2512298E-006  0.9118800E+02  0.7816164E-02  0.1184000E+00
        -11   -1    0    0    0    0  0.00000000000E+00  0.00000000000E+00  0.45593999997E+02  0.45594000000E+02  0.51100000000E-03 0.  1.
         11   -1    0    0    0    0 -0.00000000000E+00 -0.00000000000E+00 -0.45593999997E+02  0.45594000000E+02  0.51100000000E-03 0. -1.
         23    2    1    2    0    0  0.00000000000E+00  0.88817841970E-15  0.00000000000E+00  0.91188000000E+02  0.91188000000E+02 0.  0.
    9900012    2    3    3    0    0  0.24924214443E+02  0.45794190253E+01 -0.26713165582E+02  0.54367071717E+02  0.39999971593E+02 0.  0.
        -12    1    3    3    0    0 -0.24924214443E+02 -0.45794190253E+01  0.26713165582E+02  0.36820928283E+02  0.00000000000E+00 0.  1.
         11    1    4    4    0    0  0.10888810357E+02  0.85756869985E+01 -0.27096386376E+02  0.30435550814E+02  0.51100000000E-03 0. -1.
        -11    1    4    4    0    0  0.16656101740E+02 -0.50906795927E+00 -0.46211989078E+01  0.17292783321E+02  0.51100000000E-03 0.  1.
        -12    1    4    4    0    0 -0.26206976545E+01 -0.34872000139E+01  0.50044197014E+01  0.66387375819E+01  0.00000000000E+00 0.  1.
</event>
<event>
 8    1  0.2512298E-006  0.9118800E+02  0.7816164E-02  0.1184000E+00
        -11   -1    0    0    0    0  0.00000000000E+00  0.00000000000E+00  0.45593999997E+02  0.45594000000E+02  0.51100000000E-03 0.  1.
         11   -1    0    0    0    0 -0.00000000000E+00 -0.00000000000E+00 -0.45593999997E+02  0.45594000000E+02  0.51100000000E-03 0. -1.
         23    2    1    2    0    0  0.66613381478E-15  0.35527136788E-14  0.00000000000E+00  0.91188000000E+02  0.91188000000E+02 0.  0.
    9900012    2    3    3    0    0  0.14719245962E+01 -0.29119671375E+02  0.22486827629E+02  0.54367092355E+02  0.40000018641E+02 0.  0.
         12    1    3    3    0    0 -0.14719245962E+01  0.29119671375E+02 -0.22486827629E+02  0.36820907645E+02  0.00000000000E+00 0. -1.
         11    1    4    4    0    0  0.80542495101E+01  0.16506074391E+01  0.27095769681E+01  0.86566302737E+01  0.51100000000E-03 0. -1.
        -11    1    4    4    0    0 -0.68400559674E+01 -0.34610613946E+02  0.21688143277E+02  0.41413240907E+02  0.51100000000E-03 0.  1.
         12    1    4    4    0    0  0.25773105354E+00  0.38403351326E+01 -0.19108926157E+01  0.42972211737E+01  0.00000000000E+00 0. -1.
</event>
<event>
 8    1  0.2512298E-006  0.9118800E+02  0.7816164E-02  0.1184000E+00
        -11   -1    0    0    0    0  0.00000000000E+00  0.00000000000E+00  0.45593999997E+02  0.45594000000E+02  0.51100000000E-03 0. -1.
         11   -1    0    0    0    0 -0.00000000000E+00 -0.00000000000E+00 -0.45593999997E+02  0.45594000000E+02  0.51100000000E-03 0.  1.
         23    2    1    2    0    0  0.00000000000E+00  0.00000000000E+00  0.00000000000E+00  0.91188000000E+02  0.91188000000E+02 0.  0.
    9900012    2    3    3    0    0 -0.10752695607E+02 -0.66530240387E+01  0.34581731162E+02  0.54367091241E+02  0.40000016102E+02 0.  0.
        -12    1    3    3    0    0  0.10752695607E+02  0.66530240387E+01 -0.34581731162E+02  0.36820908759E+02  0.00000000000E+00 0.  1.
         11    1    4    4    0    0 -0.21795776400E+02  0.65891482037E+01  0.13313575961E+02  0.26376581432E+02  0.51100000000E-03 0.  1.
        -11    1    4    4    0    0  0.10764989086E+02 -0.10978980180E+02  0.20411049686E+02  0.25554528862E+02  0.51100000000E-03 0. -1.
        -12    1    4    4    0    0  0.27809170722E+00 -0.22631920626E+01  0.85710551542E+00  0.24359809470E+01  0.00000000000E+00 0.  1.
</event>
<event>
 8    1  0.2512298E-006  0.9118800E+02  0.7816164E-02  0.1184000E+00
        -11   -1    0    0    0    0  0.00000000000E+00  0.00000000000E+00  0.45593999997E+02  0.45594000000E+02  0.51100000000E-03 0.  1.
         11   -1    0    0    0    0 -0.00000000000E+00 -0.00000000000E+00 -0.45593999997E+02  0.45594000000E+02  0.51100000000E-03 0. -1.
         23    2    1    2    0    0 -0.17763568394E-14  0.17763568394E-14  0.00000000000E+00  0.91188000000E+02  0.91188000000E+02 0.  0.
    9900012    2    3    3    0    0 -0.13362442957E+02  0.13563082273E+02 -0.31516141560E+02  0.54367092062E+02  0.40000017974E+02 0.  0.
        -12    1    3    3    0    0  0.13362442957E+02 -0.13563082273E+02  0.31516141560E+02  0.36820907938E+02  0.00000000000E+00 0.  1.
         11    1    4    4    0    0 -0.53727616073E+01  0.40525761796E+00 -0.29605667460E+02  0.30091964825E+02  0.51100000000E-03 0. -1.
        -11    1    4    4    0    0  0.52600033052E+01  0.56987274607E+01 -0.43248749291E+01  0.88796212112E+01  0.51100000000E-03 0.  1.
        -12    1    4    4    0    0 -0.13249684655E+02  0.74590971946E+01  0.24144008290E+01  0.15395506026E+02  0.00000000000E+00 0.  1.
</event>
<event>
 8    1  0.2512298E-006  0.9118800E+02  0.7816164E-02  0.1184000E+00
        -11   -1    0    0    0    0  0.00000000000E+00  0.00000000000E+00  0.45593999997E+02  0.45594000000E+02  0.51100000000E-03 0. -1.
         11   -1    0    0    0    0 -0.00000000000E+00 -0.00000000000E+00 -0.45593999997E+02  0.45594000000E+02  0.51100000000E-03 0.  1.
         23    2    1    2    0    0 -0.35527136788E-14  0.17763568394E-14  0.35527136788E-14  0.91188000000E+02  0.91188000000E+02 0.  0.
    9900012    2    3    3    0    0 -0.27306205319E+02 -0.97036263693E+01  0.22715438289E+02  0.54367077275E+02  0.39999984265E+02 0.  0.
        -12    1    3    3    0    0  0.27306205319E+02  0.97036263693E+01 -0.22715438289E+02  0.36820922725E+02  0.00000000000E+00 0.  1.
         11    1    4    4    0    0 -0.22507289892E+02 -0.43967623286E+00  0.20304321978E+01  0.22602965926E+02  0.51100000000E-03 0. -1.
        -11    1    4    4    0    0 -0.64895741438E+01  0.13161248522E+01  0.19955012214E+02  0.21024967775E+02  0.51100000000E-03 0.  1.
        -12    1    4    4    0    0  0.16906587168E+01 -0.10580074989E+02  0.72999387688E+00  0.10739143575E+02  0.00000000000E+00 0.  1.
</event>
<event>
 8    1  0.2512298E-006  0.9118800E+02  0.7816164E-02  0.1184000E+00
        -11   -1    0    0    0    0  0.00000000000E+00  0.00000000000E+00  0.45593999997E+02  0.45594000000E+02  0.51100000000E-03 0. -1.
         11   -1    0    0    0    0 -0.00000000000E+00 -0.00000000000E+00 -0.45593999997E+02  0.45594000000E+02  0.51100000000E-03 0.  1.
         23    2    1    2    0    0  0.00000000000E+00  0.00000000000E+00 -0.35527136788E-14  0.91188000000E+02  0.91188000000E+02 0.  0.
    9900012    2    3    3    0    0  0.11068774967E+02 -0.30791237139E+02 -0.16886727813E+02  0.54367086920E+02  0.40000006251E+02 0.  0.
         12    1    3    3    0    0 -0.11068774967E+02  0.30791237139E+02  0.16886727813E+02  0.36820913080E+02  0.00000000000E+00 0. -1.
         11    1    4    4    0    0 -0.53053826087E+01  0.32684873895E+01 -0.80679702464E+00  0.62833920887E+01  0.51100000000E-03 0. -1.
        -11    1    4    4    0    0 -0.25166151480E+01 -0.23267481769E+02 -0.10322348448E+02  0.25578505379E+02  0.51100000000E-03 0.  1.
         12    1    4    4    0    0  0.18890772723E+02 -0.10792242760E+02 -0.57575823408E+01  0.22505189452E+02  0.00000000000E+00 0. -1.
</event>
<event>
 8    1  0.2512298E-006  0.9118800E+02  0.7816164E-02  0.1184000E+00
        -11   -1    0    0    0    0  0.00000000000E+00  0.00000000000E+00  0.45593999997E+02  0.45594000000E+02  0.51100000000E-03 0. -1.
         11   -1    0    0    0    0 -0.00000000000E+00 -0.00000000000E+00 -0.45593999997E+02  0.45594000000E+02  0.51100000000E-03 0.  1.
         23    2    1    2    0    0  0.00000000000E+00  0.35527136788E-14  0.00000000000E+00  0.91188000000E+02  0.91188000000E+02 0.  0.
    9900012    2    3    3    0    0 -0.24638078467E+02 -0.24808669050E+02 -0.11544466858E+02  0.54367086301E+02  0.40000004841E+02 0.  0.
        -12    1    3    3    0    0  0.24638078467E+02  0.24808669050E+02  0.11544466858E+02  0.36820913699E+02  0.00000000000E+00 0.  1.
         11    1    4    4    0    0 -0.60157790378E+01  0.29198202316E+01  0.24592635591E+01  0.71248105330E+01  0.51100000000E-03 0. -1.
        -11    1    4    4    0    0 -0.29384318759E+01  0.12513234043E+01 -0.13929052497E+02  0.14290510694E+02  0.51100000000E-03 0.  1.
         12    1    4    4    0    0 -0.15683867553E+02 -0.28979812686E+02 -0.74677919907E-01  0.32951765074E+02  0.00000000000E+00 0. -1.
</event>
<event>
 8    1  0.2512298E-006  0.9118800E+02  0.7816164E-02  0.1184000E+00
        -11   -1    0    0    0    0  0.00000000000E+00  0.00000000000E+00  0.45593999997E+02  0.45594000000E+02  0.51100000000E-03 0. -1.
         11   -1    0    0    0    0 -0.00000000000E+00 -0.00000000000E+00 -0.45593999997E+02  0.45594000000E+02  0.51100000000E-03 0.  1.
         23    2    1    2    0    0 -0.71054273576E-14 -0.13322676296E-14  0.88817841970E-15  0.91188000000E+02  0.91188000000E+02 0.  0.
    9900012    2    3    3    0    0 -0.35940596970E+02  0.33552514795E+01  0.72660758161E+01  0.54367080935E+02  0.39999992608E+02 0.  0.
        -12    1    3    3    0    0  0.35940596970E+02 -0.33552514795E+01 -0.72660758161E+01  0.36820919065E+02  0.00000000000E+00 0.  1.
         11    1    4    4    0    0 -0.23277076030E+01 -0.12800635646E+02  0.85861503709E+01  0.15588344174E+02  0.51100000000E-03 0. -1.
        -11    1    4    4    0    0 -0.98739313922E+01  0.29611859258E+01 -0.48472186144E+01  0.11391166393E+02  0.51100000000E-03 0.  1.
         12    1    4    4    0    0 -0.23738957974E+02  0.13194701200E+02  0.35271440597E+01  0.27387570368E+02  0.00000000000E+00 0. -1.
</event>
<event>
 8    1  0.2512298E-006  0.9118800E+02  0.7816164E-02  0.1184000E+00
        -11   -1    0    0    0    0  0.00000000000E+00  0.00000000000E+00  0.45593999997E+02  0.45594000000E+02  0.51100000000E-03 0.  1.
         11   -1    0    0    0    0 -0.00000000000E+00 -0.00000000000E+00 -0.45593999997E+02  0.45594000000E+02  0.51100000000E-03 0. -1.
         23    2    1    2    0    0  0.00000000000E+00  0.35527136788E-14 -0.88817841970E-15  0.91188000000E+02  0.91188000000E+02 0.  0.
    9900012    2    3    3    0    0 -0.31861099290E+02 -0.17831738427E+02  0.47635472154E+01  0.54366920095E+02  0.39999625939E+02 0.  0.
        -12    1    3    3    0    0  0.31861099290E+02  0.17831738427E+02 -0.47635472154E+01  0.36821079905E+02  0.00000000000E+00 0.  1.
         11    1    4    4    0    0 -0.23430139245E+02 -0.54798867252E+01  0.10525263769E+01  0.24085439494E+02  0.51100000000E-03 0. -1.
        -11    1    4    4    0    0 -0.14267270760E+02  0.20302337609E+01  0.43059226500E+00  0.14417429522E+02  0.51100000000E-03 0.  1.
         12    1    4    4    0    0  0.58363107153E+01 -0.14382085463E+02  0.32804285735E+01  0.15864051079E+02  0.00000000000E+00 0. -1.
</event>
<event>
 8    1  0.2512298E-006  0.9118800E+02  0.7816164E-02  0.1184000E+00
        -11   -1    0    0    0    0  0.00000000000E+00  0.00000000000E+00  0.45593999997E+02  0.45594000000E+02  0.51100000000E-03 0. -1.
         11   -1    0    0    0    0 -0.00000000000E+00 -0.00000000000E+00 -0.45593999997E+02  0.45594000000E+02  0.51100000000E-03 0.  1.
         23    2    1    2    0    0  0.00000000000E+00  0.17763568394E-14  0.35527136788E-14  0.91188000000E+02  0.91188000000E+02 0.  0.
    9900012    2    3    3    0    0  0.21258463587E+02  0.60945712640E+01 -0.29440041400E+02  0.54367053372E+02  0.39999929771E+02 0.  0.
         12    1    3    3    0    0 -0.21258463587E+02 -0.60945712640E+01  0.29440041400E+02  0.36820946628E+02  0.00000000000E+00 0. -1.
         11    1    4    4    0    0  0.76153081935E+01  0.12554927496E+02 -0.55025247788E+01  0.15681100169E+02  0.51100000000E-03 0. -1.
        -11    1    4    4    0    0  0.11839595867E+02  0.85864425690E+01 -0.15622642482E+02  0.21400233285E+02  0.51100000000E-03 0.  1.
        -12    1    4    4    0    0  0.18035595272E+01 -0.15046798801E+02 -0.83148741388E+01  0.17285719917E+02  0.00000000000E+00 0.  1.
</event>
<event>
 8    1  0.2512298E-006  0.9118800E+02  0.7816164E-02  0.1184000E+00
        -11   -1    0    0    0    0  0.00000000000E+00  0.00000000000E+00  0.45593999997E+02  0.45594000000E+02  0.51100000000E-03 0.  1.
         11   -1    0    0    0    0 -0.00000000000E+00 -0.00000000000E+00 -0.45593999997E+02  0.45594000000E+02  0.51100000000E-03 0. -1.
         23    2    1    2    0    0  0.17763568394E-14  0.35527136788E-14  0.00000000000E+00  0.91188000000E+02  0.91188000000E+02 0.  0.
    9900012    2    3    3    0    0  0.14175859493E+02  0.24235796391E+02 -0.23821227617E+02  0.54367086048E+02  0.40000004264E+02 0.  0.
        -12    1    3    3    0    0 -0.14175859493E+02 -0.24235796391E+02  0.23821227617E+02  0.36820913952E+02  0.00000000000E+00 0.  1.
         11    1    4    4    0    0 -0.55451794807E+01 -0.57810704383E+01  0.11872269528E+01  0.80981046538E+01  0.51100000000E-03 0. -1.
        -11    1    4    4    0    0  0.15633179899E+02  0.26139877079E+02 -0.13219755784E+02  0.33203184045E+02  0.51100000000E-03 0.  1.
         12    1    4    4    0    0  0.40878590742E+01  0.38769897508E+01 -0.11788698785E+02  0.13065797350E+02  0.00000000000E+00 0. -1.
</event>
<event>
 8    1  0.2512298E-006  0.9118800E+02  0.7816164E-02  0.1184000E+00
        -11   -1    0    0    0    0  0.00000000000E+00  0.00000000000E+00  0.45593999997E+02  0.45594000000E+02  0.51100000000E-03 0. -1.
         11   -1    0    0    0    0 -0.00000000000E+00 -0.00000000000E+00 -0.45593999997E+02  0.45594000000E+02  0.51100000000E-03 0.  1.
         23    2    1    2    0    0  0.35527136788E-14  0.00000000000E+00  0.00000000000E+00  0.91188000000E+02  0.91188000000E+02 0.  0.
    9900012    2    3    3    0    0 -0.19026212390E+02 -0.26396278128E+02 -0.17234270586E+02  0.54367077421E+02  0.39999984596E+02 0.  0.
         12    1    3    3    0    0  0.19026212390E+02  0.26396278128E+02  0.17234270586E+02  0.36820922579E+02  0.00000000000E+00 0. -1.
         11    1    4    4    0    0  0.56968887680E+01 -0.10217899525E+02  0.63164963302E+01  0.13295041877E+02  0.51100000000E-03 0. -1.
        -11    1    4    4    0    0  0.42979261685E+00  0.19562909338E+01 -0.38344186788E+01  0.43260331455E+01  0.51100000000E-03 0.  1.
         12    1    4    4    0    0 -0.25152893775E+02 -0.18134669537E+02 -0.19716348238E+02  0.36746002399E+02  0.00000000000E+00 0. -1.
</event>
<event>
 8    1  0.2512298E-006  0.9118800E+02  0.7816164E-02  0.1184000E+00
        -11   -1    0    0    0    0  0.00000000000E+00  0.00000000000E+00  0.45593999997E+02  0.45594000000E+02  0.51100000000E-03 0.  1.
         11   -1    0    0    0    0 -0.00000000000E+00 -0.00000000000E+00 -0.45593999997E+02  0.45594000000E+02  0.51100000000E-03 0. -1.
         23    2    1    2    0    0  0.71054273576E-14  0.35527136788E-14  0.88817841970E-15  0.91188000000E+02  0.91188000000E+02 0.  0.
    9900012    2    3    3    0    0  0.31174759778E+02  0.18985303045E+02 -0.48437099227E+01  0.54367232697E+02  0.40000338578E+02 0.  0.
         12    1    3    3    0    0 -0.31174759778E+02 -0.18985303045E+02  0.48437099227E+01  0.36820767303E+02  0.00000000000E+00 0. -1.
         11    1    4    4    0    0  0.43845587139E+01 -0.77318438974E+01 -0.10345286209E+01  0.89485202630E+01  0.51100000000E-03 0. -1.
        -11    1    4    4    0    0  0.51763678039E+01  0.10380078260E+02  0.97215913865E+01  0.15134402785E+02  0.51100000000E-03 0.  1.
         12    1    4    4    0    0  0.21613833261E+02  0.16337068683E+02 -0.13530772688E+02  0.30284309649E+02  0.00000000000E+00 0. -1.
</event>
<event>
 8    1  0.2512298E-006  0.9118800E+02  0.7816164E-02  0.1184000E+00
        -11   -1    0    0    0    0  0.00000000000E+00  0.00000000000E+00  0.45593999997E+02  0.45594000000E+02  0.51100000000E-03 0.  1.
         11   -1    0    0    0    0 -0.00000000000E+00 -0.00000000000E+00 -0.45593999997E+02  0.45594000000E+02  0.51100000000E-03 0. -1.
         23    2    1    2    0    0  0.00000000000E+00  0.35527136788E-14  0.00000000000E+00  0.91188000000E+02  0.91188000000E+02 0.  0.
    9900012    2    3    3    0    0  0.13805987377E+02 -0.29968746720E+02 -0.16341589901E+02  0.54367100664E+02  0.40000037584E+02 0.  0.
        -12    1    3    3    0    0 -0.13805987377E+02  0.29968746720E+02  0.16341589901E+02  0.36820899336E+02  0.00000000000E+00 0.  1.
         11    1    4    4    0    0  0.81911364382E+01 -0.27614578689E+01  0.42091545641E+01  0.96144343628E+01  0.51100000000E-03 0. -1.
        -11    1    4    4    0    0 -0.41343605856E+01 -0.15691889905E+02 -0.24286496553E+02  0.29208941462E+02  0.51100000000E-03 0.  1.
        -12    1    4    4    0    0  0.97492115247E+01 -0.11515398946E+02  0.37357520873E+01  0.15543724840E+02  0.00000000000E+00 0.  1.
</event>
<event>
 8    1  0.2512298E-006  0.9118800E+02  0.7816164E-02  0.1184000E+00
        -11   -1    0    0    0    0  0.00000000000E+00  0.00000000000E+00  0.45593999997E+02  0.45594000000E+02  0.51100000000E-03 0.  1.
         11   -1    0    0    0    0 -0.00000000000E+00 -0.00000000000E+00 -0.45593999997E+02  0.45594000000E+02  0.51100000000E-03 0. -1.
         23    2    1    2    0    0  0.00000000000E+00  0.00000000000E+00  0.71054273576E-14  0.91188000000E+02  0.91188000000E+02 0.  0.
    9900012    2    3    3    0    0  0.14541493861E+02 -0.93330181687E+01 -0.32514875908E+02  0.54367116969E+02  0.40000074754E+02 0.  0.
        -12    1    3    3    0    0 -0.14541493861E+02  0.93330181687E+01  0.32514875908E+02  0.36820883031E+02  0.00000000000E+00 0.  1.
         11    1    4    4    0    0  0.74501252213E+01 -0.42851663605E+01 -0.94091632616E+01  0.12743601143E+02  0.51100000000E-03 0. -1.
        -11    1    4    4    0    0  0.19544396727E+02 -0.34281103450E+01 -0.66583334872E+01  0.20930092906E+02  0.51100000000E-03 0.  1.
        -12    1    4    4    0    0 -0.12453028087E+02 -0.16197414632E+01 -0.16447379159E+02  0.20693422920E+02  0.00000000000E+00 0.  1.
</event>
<event>
 8    1  0.2512298E-006  0.9118800E+02  0.7816164E-02  0.1184000E+00
        -11   -1    0    0    0    0  0.00000000000E+00  0.00000000000E+00  0.45593999997E+02  0.45594000000E+02  0.51100000000E-03 0. -1.
         11   -1    0    0    0    0 -0.00000000000E+00 -0.00000000000E+00 -0.45593999997E+02  0.45594000000E+02  0.51100000000E-03 0.  1.
         23    2    1    2    0    0  0.00000000000E+00 -0.17763568394E-14  0.71054273576E-14  0.91188000000E+02  0.91188000000E+02 0.  0.
    9900012    2    3    3    0    0 -0.36330711426E+01  0.10901590574E+02 -0.34981941902E+02  0.54367080101E+02  0.39999990707E+02 0.  0.
         12    1    3    3    0    0  0.36330711426E+01 -0.10901590574E+02  0.34981941902E+02  0.36820919899E+02  0.00000000000E+00 0. -1.
         11    1    4    4    0    0  0.78430546526E+01 -0.34894312021E+01 -0.82036936956E+01  0.11873930559E+02  0.51100000000E-03 0. -1.
        -11    1    4    4    0    0 -0.38024778131E+01  0.89000014288E+01 -0.30763642722E+02  0.32250125221E+02  0.51100000000E-03 0.  1.
         12    1    4    4    0    0 -0.76736479821E+01  0.54910203472E+01  0.39853945160E+01  0.10243024322E+02  0.00000000000E+00 0. -1.
</event>
<event>
 8    1  0.2512298E-006  0.9118800E+02  0.7816164E-02  0.1184000E+00
        -11   -1    0    0    0    0  0.00000000000E+00  0.00000000000E+00  0.45593999997E+02  0.45594000000E+02  0.51100000000E-03 0. -1.
         11   -1    0    0    0    0 -0.00000000000E+00 -0.00000000000E+00 -0.45593999997E+02  0.45594000000E+02  0.51100000000E-03 0.  1.
         23    2    1    2    0    0  0.00000000000E+00  0.00000000000E+00  0.17763568394E-14  0.91188000000E+02  0.91188000000E+02 0.  0.
    9900012    2    3    3    0    0  0.27030634259E+02 -0.21436631691E+02  0.12868362998E+02  0.54367093806E+02  0.40000021949E+02 0.  0.
        -12    1    3    3    0    0 -0.27030634259E+02  0.21436631691E+02 -0.12868362998E+02  0.36820906194E+02  0.00000000000E+00 0.  1.
         11    1    4    4    0    0  0.22452398828E+02 -0.18395595486E+02  0.14538523904E+02  0.32463469069E+02  0.51100000000E-03 0. -1.
        -11    1    4    4    0    0  0.74861862069E+01  0.48075909483E+01 -0.75549651765E+01  0.11671907031E+02  0.51100000000E-03 0.  1.
        -12    1    4    4    0    0 -0.29079507765E+01 -0.78486271541E+01  0.58848042709E+01  0.10231717707E+02  0.00000000000E+00 0.  1.
</event>
<event>
 8    1  0.2512298E-006  0.9118800E+02  0.7816164E-02  0.1184000E+00
        -11   -1    0    0    0    0  0.00000000000E+00  0.00000000000E+00  0.45593999997E+02  0.45594000000E+02  0.51100000000E-03 0.  1.
         11   -1    0    0    0    0 -0.00000000000E+00 -0.00000000000E+00 -0.45593999997E+02  0.45594000000E+02  0.51100000000E-03 0. -1.
         23    2    1    2    0    0  0.00000000000E+00  0.17763568394E-14  0.00000000000E+00  0.91188000000E+02  0.91188000000E+02 0.  0.
    9900012    2    3    3    0    0 -0.24860007073E+02  0.11749344941E+02 -0.24489126784E+02  0.54367022434E+02  0.39999859244E+02 0.  0.
        -12    1    3    3    0    0  0.24860007073E+02 -0.11749344941E+02  0.24489126784E+02  0.36820977566E+02  0.00000000000E+00 0.  1.
         11    1    4    4    0    0 -0.10414920650E+01  0.28136501058E+01 -0.33074639854E+01  0.44654955957E+01  0.51100000000E-03 0. -1.
        -11    1    4    4    0    0 -0.80044527336E+01  0.14619050688E+02 -0.27327122353E+02  0.32008741352E+02  0.51100000000E-03 0.  1.
        -12    1    4    4    0    0 -0.15814062274E+02 -0.56833558525E+01  0.61454595535E+01  0.17892785487E+02  0.00000000000E+00 0.  1.
</event>
<event>
 8    1  0.2512298E-006  0.9118800E+02  0.7816164E-02  0.1184000E+00
        -11   -1    0    0    0    0  0.00000000000E+00  0.00000000000E+00  0.45593999997E+02  0.45594000000E+02  0.51100000000E-03 0.  1.
         11   -1    0    0    0    0 -0.00000000000E+00 -0.00000000000E+00 -0.45593999997E+02  0.45594000000E+02  0.51100000000E-03 0. -1.
         23    2    1    2    0    0  0.35527136788E-14 -0.17763568394E-14 -0.35527136788E-14  0.91188000000E+02  0.91188000000E+02 0.  0.
    9900012    2    3    3    0    0  0.19556051959E+02  0.13065451072E+02 -0.28330708477E+02  0.54367160482E+02  0.40000173951E+02 0.  0.
        -12    1    3    3    0    0 -0.19556051959E+02 -0.13065451072E+02  0.28330708477E+02  0.36820839518E+02  0.00000000000E+00 0.  1.
         11    1    4    4    0    0  0.25867681999E+02  0.12080060521E+02 -0.34322512414E+02  0.44644145113E+02  0.51100000000E-03 0. -1.
        -11    1    4    4    0    0 -0.70907274904E+00 -0.11618471773E+01  0.23167754070E+01  0.26870283911E+01  0.51100000000E-03 0.  1.
         12    1    4    4    0    0 -0.56025572914E+01  0.21472377285E+01  0.36750285294E+01  0.70359869782E+01  0.00000000000E+00 0. -1.
</event>
<event>
 8    1  0.2512298E-006  0.9118800E+02  0.7816164E-02  0.1184000E+00
        -11   -1    0    0    0    0  0.00000000000E+00  0.00000000000E+00  0.45593999997E+02  0.45594000000E+02  0.51100000000E-03 0.  1.
         11   -1    0    0    0    0 -0.00000000000E+00 -0.00000000000E+00 -0.45593999997E+02  0.45594000000E+02  0.51100000000E-03 0. -1.
         23    2    1    2    0    0  0.55511151231E-15  0.00000000000E+00  0.00000000000E+00  0.91188000000E+02  0.91188000000E+02 0.  0.
    9900012    2    3    3    0    0 -0.46288549957E+00  0.12764484958E+02  0.34534525879E+02  0.54367084519E+02  0.40000000777E+02 0.  0.
         12    1    3    3    0    0  0.46288549957E+00 -0.12764484958E+02 -0.34534525879E+02  0.36820915481E+02  0.00000000000E+00 0. -1.
         11    1    4    4    0    0  0.66255188809E+01  0.41851579613E+01 -0.50398279418E+01  0.93173447691E+01  0.51100000000E-03 0. -1.
        -11    1    4    4    0    0  0.13069734355E+01  0.10872979975E+02  0.30809695916E+02  0.32698122817E+02  0.51100000000E-03 0.  1.
        -12    1    4    4    0    0 -0.83953778160E+01 -0.22936529779E+01  0.87646579045E+01  0.12351616932E+02  0.00000000000E+00 0.  1.
</event>
<event>
 8    1  0.2512298E-006  0.9118800E+02  0.7816164E-02  0.1184000E+00
        -11   -1    0    0    0    0  0.00000000000E+00  0.00000000000E+00  0.45593999997E+02  0.45594000000E+02  0.51100000000E-03 0.  1.
         11   -1    0    0    0    0 -0.00000000000E+00 -0.00000000000E+00 -0.45593999997E+02  0.45594000000E+02  0.51100000000E-03 0. -1.
         23    2    1    2    0    0  0.17763568394E-14  0.00000000000E+00  0.00000000000E+00  0.91188000000E+02  0.91188000000E+02 0.  0.
    9900012    2    3    3    0    0  0.13967106718E+02  0.53612861406E+01 -0.33644547762E+02  0.54367094888E+02  0.40000024416E+02 0.  0.
        -12    1    3    3    0    0 -0.13967106718E+02 -0.53612861406E+01  0.33644547762E+02  0.36820905112E+02  0.00000000000E+00 0.  1.
         11    1    4    4    0    0  0.96115776085E+01 -0.65670964944E+00 -0.17117747426E+01  0.97848793921E+01  0.51100000000E-03 0. -1.
        -11    1    4    4    0    0  0.36020830605E+01  0.16689248712E+02 -0.28721117017E+02  0.33412700997E+02  0.51100000000E-03 0.  1.
         12    1    4    4    0    0  0.75344604863E+00 -0.10671252922E+02 -0.32116560025E+01  0.11169514499E+02  0.00000000000E+00 0. -1.
</event>
<event>
 8    1  0.2512298E-006  0.9118800E+02  0.7816164E-02  0.1184000E+00
        -11   -1    0    0    0    0  0.00000000000E+00  0.00000000000E+00  0.45593999997E+02  0.45594000000E+02  0.51100000000E-03 0. -1.
         11   -1    0    0    0    0 -0.00000000000E+00 -0.00000000000E+00 -0.45593999997E+02  0.45594000000E+02  0.51100000000E-03 0.  1.
         23    2    1    2    0    0  0.00000000000E+00 -0.17763568394E-14 -0.35527136788E-14  0.91188000000E+02  0.91188000000E+02 0.  0.
    9900012    2    3    3    0    0  0.21333476015E+02  0.73233961882E+01  0.29103789755E+02  0.54367083271E+02  0.39999997934E+02 0.  0.
        -12    1    3    3    0    0 -0.21333476015E+02 -0.73233961882E+01 -0.29103789755E+02  0.36820916729E+02  0.00000000000E+00 0.  1.
         11    1    4    4    0    0 -0.26749450426E+01  0.91564986636E+00  0.29674944823E+01  0.40987521787E+01  0.51100000000E-03 0. -1.
        -11    1    4    4    0    0 -0.14163491146E+01 -0.64676664499E+01 -0.48212043603E+01  0.81902848465E+01  0.51100000000E-03 0.  1.
         12    1    4    4    0    0  0.25424770172E+02  0.12875412772E+02  0.30957499633E+02  0.42078046246E+02  0.00000000000E+00 0. -1.
</event>
<event>
 8    1  0.2512298E-006  0.9118800E+02  0.7816164E-02  0.1184000E+00
        -11   -1    0    0    0    0  0.00000000000E+00  0.00000000000E+00  0.45593999997E+02  0.45594000000E+02  0.51100000000E-03 0.  1.
         11   -1    0    0    0    0 -0.00000000000E+00 -0.00000000000E+00 -0.45593999997E+02  0.45594000000E+02  0.51100000000E-03 0. -1.
         23    2    1    2    0    0  0.38857805862E-15  0.00000000000E+00  0.00000000000E+00  0.91188000000E+02  0.91188000000E+02 0.  0.
    9900012    2    3    3    0    0  0.13252469523E+00 -0.26467527738E+02  0.25597674191E+02  0.54366966455E+02  0.39999731626E+02 0.  0.
         12    1    3    3    0    0 -0.13252469523E+00  0.26467527738E+02 -0.25597674191E+02  0.36821033545E+02  0.00000000000E+00 0. -1.
         11    1    4    4    0    0  0.79609859275E+01 -0.61381521193E+01  0.65577082572E+01  0.12002405852E+02  0.51100000000E-03 0.  1.
        -11    1    4    4    0    0 -0.63485955115E+01 -0.27478876126E+02  0.83381744958E+01  0.29409495955E+02  0.51100000000E-03 0. -1.
         12    1    4    4    0    0 -0.14798657208E+01  0.71495005074E+01  0.10701791438E+02  0.12955064648E+02  0.00000000000E+00 0. -1.
</event>
<event>
 8    1  0.2512298E-006  0.9118800E+02  0.7816164E-02  0.1184000E+00
        -11   -1    0    0    0    0  0.00000000000E+00  0.00000000000E+00  0.45593999997E+02  0.45594000000E+02  0.51100000000E-03 0. -1.
         11   -1    0    0    0    0 -0.00000000000E+00 -0.00000000000E+00 -0.45593999997E+02  0.45594000000E+02  0.51100000000E-03 0.  1.
         23    2    1    2    0    0  0.35527136788E-14  0.71054273576E-14 -0.17763568394E-14  0.91188000000E+02  0.91188000000E+02 0.  0.
    9900012    2    3    3    0    0 -0.48793562607E+01  0.35494995107E+02 -0.84897611536E+01  0.54367097789E+02  0.40000031029E+02 0.  0.
         12    1    3    3    0    0  0.48793562607E+01 -0.35494995107E+02  0.84897611536E+01  0.36820902211E+02  0.00000000000E+00 0. -1.
         11    1    4    4    0    0  0.14662670647E+02  0.20559517279E+02  0.31981954155E+01  0.25454196420E+02  0.51100000000E-03 0. -1.
        -11    1    4    4    0    0 -0.20553235123E+02  0.13456668301E+02 -0.10264514181E+02  0.26624756289E+02  0.51100000000E-03 0.  1.
        -12    1    4    4    0    0  0.10112082155E+01  0.14788095277E+01 -0.14234423882E+01  0.22881450799E+01  0.00000000000E+00 0.  1.
</event>
<event>
 8    1  0.2512298E-006  0.9118800E+02  0.7816164E-02  0.1184000E+00
        -11   -1    0    0    0    0  0.00000000000E+00  0.00000000000E+00  0.45593999997E+02  0.45594000000E+02  0.51100000000E-03 0.  1.
         11   -1    0    0    0    0 -0.00000000000E+00 -0.00000000000E+00 -0.45593999997E+02  0.45594000000E+02  0.51100000000E-03 0. -1.
         23    2    1    2    0    0 -0.79103390505E-15  0.35527136788E-14  0.35527136788E-14  0.91188000000E+02  0.91188000000E+02 0.  0.
    9900012    2    3    3    0    0 -0.39098094536E-01 -0.18291316784E+02 -0.31956279792E+02  0.54367114398E+02  0.40000068893E+02 0.  0.
        -12    1    3    3    0    0  0.39098094536E-01  0.18291316784E+02  0.31956279792E+02  0.36820885602E+02  0.00000000000E+00 0.  1.
         11    1    4    4    0    0 -0.37082062619E+01 -0.96514523278E+01  0.27153505396E+00  0.10342874710E+02  0.51100000000E-03 0. -1.
        -11    1    4    4    0    0 -0.37285644785E+01 -0.11660990919E+02 -0.15708179007E+01  0.12342948247E+02  0.51100000000E-03 0.  1.
         12    1    4    4    0    0  0.73976726459E+01  0.30211264630E+01 -0.30656996946E+02  0.31681291441E+02  0.00000000000E+00 0. -1.
</event>
<event>
 8    1  0.2512298E-006  0.9118800E+02  0.7816164E-02  0.1184000E+00
        -11   -1    0    0    0    0  0.00000000000E+00  0.00000000000E+00  0.45593999997E+02  0.45594000000E+02  0.51100000000E-03 0. -1.
         11   -1    0    0    0    0 -0.00000000000E+00 -0.00000000000E+00 -0.45593999997E+02  0.45594000000E+02  0.51100000000E-03 0.  1.
         23    2    1    2    0    0 -0.10658141036E-13  0.00000000000E+00  0.00000000000E+00  0.91188000000E+02  0.91188000000E+02 0.  0.
    9900012    2    3    3    0    0 -0.31386424257E+02 -0.12589997201E+02  0.14565883642E+02  0.54367073566E+02  0.39999975808E+02 0.  0.
        -12    1    3    3    0    0  0.31386424257E+02  0.12589997201E+02 -0.14565883642E+02  0.36820926434E+02  0.00000000000E+00 0.  1.
         11    1    4    4    0    0 -0.86966569729E+01 -0.49784033072E+01  0.52461102101E+01  0.11310968773E+02  0.51100000000E-03 0. -1.
        -11    1    4    4    0    0  0.11643742205E+01 -0.74332634148E+01  0.16508040319E+02  0.18141790643E+02  0.51100000000E-03 0.  1.
        -12    1    4    4    0    0 -0.23854141505E+02 -0.17833047921E+00 -0.71882668870E+01  0.24914314150E+02  0.00000000000E+00 0.  1.
</event>
<event>
 8    1  0.2512298E-006  0.9118800E+02  0.7816164E-02  0.1184000E+00
        -11   -1    0    0    0    0  0.00000000000E+00  0.00000000000E+00  0.45593999997E+02  0.45594000000E+02  0.51100000000E-03 0. -1.
         11   -1    0    0    0    0 -0.00000000000E+00 -0.00000000000E+00 -0.45593999997E+02  0.45594000000E+02  0.51100000000E-03 0.  1.
         23    2    1    2    0    0  0.00000000000E+00 -0.17763568394E-14  0.17763568394E-14  0.91188000000E+02  0.91188000000E+02 0.  0.
    9900012    2    3    3    0    0  0.32821037291E+02 -0.13313268885E+02  0.10065693632E+02  0.54367057514E+02  0.39999939214E+02 0.  0.
         12    1    3    3    0    0 -0.32821037291E+02  0.13313268885E+02 -0.10065693632E+02  0.36820942486E+02  0.00000000000E+00 0. -1.
         11    1    4    4    0    0  0.38308933337E+01 -0.12444933213E+02  0.23468880635E+01  0.13231023779E+02  0.51100000000E-03 0. -1.
        -11    1    4    4    0    0  0.30115372837E+02 -0.76207212540E+01  0.33394099976E+00  0.31066422234E+02  0.51100000000E-03 0.  1.
         12    1    4    4    0    0 -0.11252288798E+01  0.67523855815E+01  0.73848645688E+01  0.10069611501E+02  0.00000000000E+00 0. -1.
</event>
<event>
 8    1  0.2512298E-006  0.9118800E+02  0.7816164E-02  0.1184000E+00
        -11   -1    0    0    0    0  0.00000000000E+00  0.00000000000E+00  0.45593999997E+02  0.45594000000E+02  0.51100000000E-03 0.  1.
         11   -1    0    0    0    0 -0.00000000000E+00 -0.00000000000E+00 -0.45593999997E+02  0.45594000000E+02  0.51100000000E-03 0. -1.
         23    2    1    2    0    0 -0.88817841970E-15  0.00000000000E+00 -0.35527136788E-14  0.91188000000E+02  0.91188000000E+02 0.  0.
    9900012    2    3    3    0    0  0.67067146326E+01  0.22320933593E+02  0.28505743176E+02  0.54367061777E+02  0.39999948932E+02 0.  0.
         12    1    3    3    0    0 -0.67067146326E+01 -0.22320933593E+02 -0.28505743176E+02  0.36820938223E+02  0.00000000000E+00 0. -1.
         11    1    4    4    0    0 -0.61087847535E+01 -0.28365334223E+01 -0.62148415785E+01  0.91644655670E+01  0.51100000000E-03 0. -1.
        -11    1    4    4    0    0  0.19642572063E+01  0.10339637365E+02  0.11346628700E+02  0.15476187849E+02  0.51100000000E-03 0.  1.
         12    1    4    4    0    0  0.10851242180E+02  0.14817829650E+02  0.23373956055E+02  0.29726408361E+02  0.00000000000E+00 0. -1.
</event>
<event>
 8    1  0.2512298E-006  0.9118800E+02  0.7816164E-02  0.1184000E+00
        -11   -1    0    0    0    0  0.00000000000E+00  0.00000000000E+00  0.45593999997E+02  0.45594000000E+02  0.51100000000E-03 0. -1.
         11   -1    0    0    0    0 -0.00000000000E+00 -0.00000000000E+00 -0.45593999997E+02  0.45594000000E+02  0.51100000000E-03 0.  1.
         23    2    1    2    0    0  0.35527136788E-14  0.00000000000E+00  0.00000000000E+00  0.91188000000E+02  0.91188000000E+02 0.  0.
    9900012    2    3    3    0    0  0.14690590700E+02  0.53116407615E+01  0.33342918228E+02  0.54367120344E+02  0.40000082447E+02 0.  0.
        -12    1    3    3    0    0 -0.14690590700E+02 -0.53116407615E+01 -0.33342918228E+02  0.36820879656E+02  0.00000000000E+00 0.  1.
         11    1    4    4    0    0 -0.51269573746E+01  0.43946287481E+01 -0.22665423478E+01  0.71228974603E+01  0.51100000000E-03 0. -1.
        -11    1    4    4    0    0  0.38187864963E+01  0.17985247095E+01 -0.31739445349E+01  0.52812636373E+01  0.51100000000E-03 0.  1.
         12    1    4    4    0    0  0.15998761578E+02 -0.88151269611E+00  0.38783405111E+02  0.41962959246E+02  0.00000000000E+00 0. -1.
</event>
<event>
 8    1  0.2512298E-006  0.9118800E+02  0.7816164E-02  0.1184000E+00
        -11   -1    0    0    0    0  0.00000000000E+00  0.00000000000E+00  0.45593999997E+02  0.45594000000E+02  0.51100000000E-03 0. -1.
         11   -1    0    0    0    0 -0.00000000000E+00 -0.00000000000E+00 -0.45593999997E+02  0.45594000000E+02  0.51100000000E-03 0.  1.
         23    2    1    2    0    0  0.71054273576E-14 -0.17763568394E-14 -0.17763568394E-14  0.91188000000E+02  0.91188000000E+02 0.  0.
    9900012    2    3    3    0    0 -0.32562921751E+02  0.10655985798E+02  0.13486517288E+02  0.54367081287E+02  0.39999993410E+02 0.  0.
        -12    1    3    3    0    0  0.32562921751E+02 -0.10655985798E+02 -0.13486517288E+02  0.36820918713E+02  0.00000000000E+00 0.  1.
         11    1    4    4    0    0 -0.16107334313E+02 -0.12369316675E+01  0.77753949110E+01  0.17928552226E+02  0.51100000000E-03 0. -1.
        -11    1    4    4    0    0 -0.14566711502E+02  0.20026938946E+02 -0.22947010282E+01  0.24870324095E+02  0.51100000000E-03 0.  1.
        -12    1    4    4    0    0 -0.18888759362E+01 -0.81340214802E+01  0.80058234057E+01  0.11568204966E+02  0.00000000000E+00 0.  1.
</event>
<event>
 8    1  0.2512298E-006  0.9118800E+02  0.7816164E-02  0.1184000E+00
        -11   -1    0    0    0    0  0.00000000000E+00  0.00000000000E+00  0.45593999997E+02  0.45594000000E+02  0.51100000000E-03 0. -1.
         11   -1    0    0    0    0 -0.00000000000E+00 -0.00000000000E+00 -0.45593999997E+02  0.45594000000E+02  0.51100000000E-03 0.  1.
         23    2    1    2    0    0  0.35527136788E-14  0.35527136788E-14  0.00000000000E+00  0.91188000000E+02  0.91188000000E+02 0.  0.
    9900012    2    3    3    0    0  0.19851769184E+02 -0.30863208079E+02 -0.30248812573E+01  0.54367078512E+02  0.39999987083E+02 0.  0.
         12    1    3    3    0    0 -0.19851769184E+02  0.30863208079E+02  0.30248812573E+01  0.36820921488E+02  0.00000000000E+00 0. -1.
         11    1    4    4    0    0 -0.27738566935E+01 -0.13380894000E+02  0.11071762771E+02  0.17587681380E+02  0.51100000000E-03 0. -1.
        -11    1    4    4    0    0  0.18373358892E+01 -0.20451976419E+01 -0.10237449172E+02  0.10600188789E+02  0.51100000000E-03 0.  1.
         12    1    4    4    0    0  0.20788289988E+02 -0.15437116437E+02 -0.38591948566E+01  0.26179208343E+02  0.00000000000E+00 0. -1.
</event>
<event>
 8    1  0.2512298E-006  0.9118800E+02  0.7816164E-02  0.1184000E+00
        -11   -1    0    0    0    0  0.00000000000E+00  0.00000000000E+00  0.45593999997E+02  0.45594000000E+02  0.51100000000E-03 0.  1.
         11   -1    0    0    0    0 -0.00000000000E+00 -0.00000000000E+00 -0.45593999997E+02  0.45594000000E+02  0.51100000000E-03 0. -1.
         23    2    1    2    0    0 -0.20261570199E-14  0.00000000000E+00  0.71054273576E-14  0.91188000000E+02  0.91188000000E+02 0.  0.
    9900012    2    3    3    0    0  0.11058937746E+00  0.85216176326E+01 -0.35821073004E+02  0.54367089253E+02  0.40000011570E+02 0.  0.
        -12    1    3    3    0    0 -0.11058937746E+00 -0.85216176326E+01  0.35821073004E+02  0.36820910747E+02  0.00000000000E+00 0.  1.
         11    1    4    4    0    0  0.90439012430E+00  0.10232283125E+02 -0.19025254971E+02  0.21621236468E+02  0.51100000000E-03 0. -1.
        -11    1    4    4    0    0  0.12875908262E+02 -0.23226292146E+01 -0.13226888776E+02  0.18604682394E+02  0.51100000000E-03 0.  1.
        -12    1    4    4    0    0 -0.13669709008E+02  0.61196372192E+00 -0.35689292569E+01  0.14141170391E+02  0.00000000000E+00 0.  1.
</event>
<event>
 8    1  0.2512298E-006  0.9118800E+02  0.7816164E-02  0.1184000E+00
        -11   -1    0    0    0    0  0.00000000000E+00  0.00000000000E+00  0.45593999997E+02  0.45594000000E+02  0.51100000000E-03 0. -1.
         11   -1    0    0    0    0 -0.00000000000E+00 -0.00000000000E+00 -0.45593999997E+02  0.45594000000E+02  0.51100000000E-03 0.  1.
         23    2    1    2    0    0  0.00000000000E+00 -0.22204460493E-14  0.44408920985E-15  0.91188000000E+02  0.91188000000E+02 0.  0.
    9900012    2    3    3    0    0  0.36775310484E+02  0.12951442135E+01  0.12963880034E+01  0.54367061913E+02  0.39999949243E+02 0.  0.
        -12    1    3    3    0    0 -0.36775310484E+02 -0.12951442135E+01 -0.12963880034E+01  0.36820938087E+02  0.00000000000E+00 0.  1.
         11    1    4    4    0    0  0.36753528044E+02 -0.11144111501E+02  0.39313365865E+01  0.38606585610E+02  0.51100000000E-03 0. -1.
        -11    1    4    4    0    0 -0.40375670297E+01  0.54993996088E+01 -0.35112712758E+01  0.76729635611E+01  0.51100000000E-03 0.  1.
         12    1    4    4    0    0  0.40593494700E+01  0.69398561060E+01  0.87632269265E+00  0.80875127421E+01  0.00000000000E+00 0. -1.
</event>
<event>
 8    1  0.2512298E-006  0.9118800E+02  0.7816164E-02  0.1184000E+00
        -11   -1    0    0    0    0  0.00000000000E+00  0.00000000000E+00  0.45593999997E+02  0.45594000000E+02  0.51100000000E-03 0. -1.
         11   -1    0    0    0    0 -0.00000000000E+00 -0.00000000000E+00 -0.45593999997E+02  0.45594000000E+02  0.51100000000E-03 0.  1.
         23    2    1    2    0    0  0.17763568394E-14  0.35527136788E-14  0.14210854715E-13  0.91188000000E+02  0.91188000000E+02 0.  0.
    9900012    2    3    3    0    0  0.15244528953E+02  0.10983270241E+02  0.31666251265E+02  0.54367090759E+02  0.40000015003E+02 0.  0.
        -12    1    3    3    0    0 -0.15244528953E+02 -0.10983270241E+02 -0.31666251265E+02  0.36820909241E+02  0.00000000000E+00 0.  1.
         11    1    4    4    0    0  0.27170368101E+01  0.61374614740E+01 -0.40463700244E+01  0.78373358361E+01  0.51100000000E-03 0. -1.
        -11    1    4    4    0    0 -0.42215625073E+01  0.32494019195E+01 -0.16306191619E+01  0.55712765099E+01  0.51100000000E-03 0.  1.
         12    1    4    4    0    0  0.16749054650E+02  0.15964068476E+01  0.37343240451E+02  0.40958478413E+02  0.00000000000E+00 0. -1.
</event>
<event>
 8    1  0.2512298E-006  0.9118800E+02  0.7816164E-02  0.1184000E+00
        -11   -1    0    0    0    0  0.00000000000E+00  0.00000000000E+00  0.45593999997E+02  0.45594000000E+02  0.51100000000E-03 0.  1.
         11   -1    0    0    0    0 -0.00000000000E+00 -0.00000000000E+00 -0.45593999997E+02  0.45594000000E+02  0.51100000000E-03 0. -1.
         23    2    1    2    0    0  0.13322676296E-14  0.35527136788E-14 -0.35527136788E-14  0.91188000000E+02  0.91188000000E+02 0.  0.
    9900012    2    3    3    0    0 -0.27488767413E+01  0.29133551897E+02 -0.22348584945E+02  0.54367089928E+02  0.40000013109E+02 0.  0.
        -12    1    3    3    0    0  0.27488767413E+01 -0.29133551897E+02  0.22348584945E+02  0.36820910072E+02  0.00000000000E+00 0.  1.
         11    1    4    4    0    0 -0.13001639445E+02  0.11919948652E+02 -0.27050654766E+01  0.17845032464E+02  0.51100000000E-03 0. -1.
        -11    1    4    4    0    0 -0.30866712678E+01  0.11857504864E+02 -0.89519138377E-01  0.12252998615E+02  0.51100000000E-03 0.  1.
        -12    1    4    4    0    0  0.13339433972E+02  0.53560983805E+01 -0.19554000330E+02  0.24269058850E+02  0.00000000000E+00 0.  1.
</event>
<event>
 8    1  0.2512298E-006  0.9118800E+02  0.7816164E-02  0.1184000E+00
        -11   -1    0    0    0    0  0.00000000000E+00  0.00000000000E+00  0.45593999997E+02  0.45594000000E+02  0.51100000000E-03 0. -1.
         11   -1    0    0    0    0 -0.00000000000E+00 -0.00000000000E+00 -0.45593999997E+02  0.45594000000E+02  0.51100000000E-03 0.  1.
         23    2    1    2    0    0  0.00000000000E+00  0.00000000000E+00 -0.35527136788E-14  0.91188000000E+02  0.91188000000E+02 0.  0.
    9900012    2    3    3    0    0  0.21702537914E+02 -0.18238891279E+02  0.23497264591E+02  0.54367099003E+02  0.40000033796E+02 0.  0.
        -12    1    3    3    0    0 -0.21702537914E+02  0.18238891279E+02 -0.23497264591E+02  0.36820900997E+02  0.00000000000E+00 0.  1.
         11    1    4    4    0    0  0.22471145304E+02 -0.11400907510E+02  0.64138511912E+01  0.26001356709E+02  0.51100000000E-03 0. -1.
        -11    1    4    4    0    0 -0.55962935963E+01  0.62743052607E+01  0.85609793638E+01  0.11998990643E+02  0.51100000000E-03 0.  1.
         12    1    4    4    0    0  0.48276862060E+01 -0.13112289030E+02  0.85224340363E+01  0.16366751651E+02  0.00000000000E+00 0. -1.
</event>
<event>
 8    1  0.2512298E-006  0.9118800E+02  0.7816164E-02  0.1184000E+00
        -11   -1    0    0    0    0  0.00000000000E+00  0.00000000000E+00  0.45593999997E+02  0.45594000000E+02  0.51100000000E-03 0. -1.
         11   -1    0    0    0    0 -0.00000000000E+00 -0.00000000000E+00 -0.45593999997E+02  0.45594000000E+02  0.51100000000E-03 0.  1.
         23    2    1    2    0    0  0.00000000000E+00 -0.22204460493E-15  0.00000000000E+00  0.91188000000E+02  0.91188000000E+02 0.  0.
    9900012    2    3    3    0    0  0.80892799383E+01 -0.13522494506E+01  0.35895764448E+02  0.54367205145E+02  0.40000275767E+02 0.  0.
        -12    1    3    3    0    0 -0.80892799383E+01  0.13522494506E+01 -0.35895764448E+02  0.36820794855E+02  0.00000000000E+00 0.  1.
         11    1    4    4    0    0 -0.33656056348E+01  0.50180679849E+01  0.36790190387E+02  0.37283058036E+02  0.51100000000E-03 0. -1.
        -11    1    4    4    0    0  0.11381619808E+02 -0.86190589290E+01  0.75118258790E+00  0.14296633234E+02  0.51100000000E-03 0.  1.
         12    1    4    4    0    0  0.73265765177E-01  0.22487414935E+01 -0.16456085271E+01  0.27875138747E+01  0.00000000000E+00 0. -1.
</event>
<event>
 8    1  0.2512298E-006  0.9118800E+02  0.7816164E-02  0.1184000E+00
        -11   -1    0    0    0    0  0.00000000000E+00  0.00000000000E+00  0.45593999997E+02  0.45594000000E+02  0.51100000000E-03 0. -1.
         11   -1    0    0    0    0 -0.00000000000E+00 -0.00000000000E+00 -0.45593999997E+02  0.45594000000E+02  0.51100000000E-03 0.  1.
         23    2    1    2    0    0  0.00000000000E+00  0.00000000000E+00  0.10658141036E-13  0.91188000000E+02  0.91188000000E+02 0.  0.
    9900012    2    3    3    0    0 -0.14894405714E+02 -0.14104547266E+02  0.30577747104E+02  0.54367079410E+02  0.39999989130E+02 0.  0.
         12    1    3    3    0    0  0.14894405714E+02  0.14104547266E+02 -0.30577747104E+02  0.36820920590E+02  0.00000000000E+00 0. -1.
         11    1    4    4    0    0 -0.10124178991E+02 -0.23940333589E+01  0.37418440949E+01  0.11055848834E+02  0.51100000000E-03 0. -1.
        -11    1    4    4    0    0  0.29671670484E+01  0.32529891815E+01 -0.53829404298E+01  0.69542840638E+01  0.51100000000E-03 0.  1.
         12    1    4    4    0    0 -0.77373937715E+01 -0.14963503089E+02  0.32218843439E+02  0.36356946511E+02  0.00000000000E+00 0. -1.
</event>
<event>
 8    1  0.2512298E-006  0.9118800E+02  0.7816164E-02  0.1184000E+00
        -11   -1    0    0    0    0  0.00000000000E+00  0.00000000000E+00  0.45593999997E+02  0.45594000000E+02  0.51100000000E-03 0.  1.
         11   -1    0    0    0    0 -0.00000000000E+00 -0.00000000000E+00 -0.45593999997E+02  0.45594000000E+02  0.51100000000E-03 0. -1.
         23    2    1    2    0    0  0.44408920985E-15  0.00000000000E+00 -0.35527136788E-14  0.91188000000E+02  0.91188000000E+02 0.  0.
    9900012    2    3    3    0    0 -0.19212274802E+01  0.32665603681E+02 -0.16883235926E+02  0.54367130452E+02  0.40000105492E+02 0.  0.
        -12    1    3    3    0    0  0.19212274802E+01 -0.32665603681E+02  0.16883235926E+02  0.36820869548E+02  0.00000000000E+00 0.  1.
         11    1    4    4    0    0 -0.55801368136E+01  0.38985461345E+02 -0.95870041794E+01  0.40532885076E+02  0.51100000000E-03 0. -1.
        -11    1    4    4    0    0  0.44429483182E+01  0.63544752174E+00 -0.14561790973E+01  0.47184786887E+01  0.51100000000E-03 0.  1.
         12    1    4    4    0    0 -0.78403898477E+00 -0.69553051856E+01 -0.58400526499E+01  0.91157666879E+01  0.00000000000E+00 0. -1.
</event>
<event>
 8    1  0.2512298E-006  0.9118800E+02  0.7816164E-02  0.1184000E+00
        -11   -1    0    0    0    0  0.00000000000E+00  0.00000000000E+00  0.45593999997E+02  0.45594000000E+02  0.51100000000E-03 0.  1.
         11   -1    0    0    0    0 -0.00000000000E+00 -0.00000000000E+00 -0.45593999997E+02  0.45594000000E+02  0.51100000000E-03 0. -1.
         23    2    1    2    0    0  0.00000000000E+00 -0.17763568394E-14  0.00000000000E+00  0.91188000000E+02  0.91188000000E+02 0.  0.
    9900012    2    3    3    0    0  0.69117074870E+01  0.13097773851E+02  0.33711372052E+02  0.54367082224E+02  0.39999995547E+02 0.  0.
         12    1    3    3    0    0 -0.69117074870E+01 -0.13097773851E+02 -0.33711372052E+02  0.36820917776E+02  0.00000000000E+00 0. -1.
         11    1    4    4    0    0  0.13684215281E+02 -0.43172298080E+01  0.13401941023E+02  0.19634363868E+02  0.51100000000E-03 0. -1.
        -11    1    4    4    0    0  0.29820838201E+01  0.17734549839E+02  0.15972802925E+02  0.24052806810E+02  0.51100000000E-03 0.  1.
         12    1    4    4    0    0 -0.97545916142E+01 -0.31954618005E+00  0.43366281040E+01  0.10679911546E+02  0.00000000000E+00 0. -1.
</event>
<event>
 8    1  0.2512298E-006  0.9118800E+02  0.7816164E-02  0.1184000E+00
        -11   -1    0    0    0    0  0.00000000000E+00  0.00000000000E+00  0.45593999997E+02  0.45594000000E+02  0.51100000000E-03 0. -1.
         11   -1    0    0    0    0 -0.00000000000E+00 -0.00000000000E+00 -0.45593999997E+02  0.45594000000E+02  0.51100000000E-03 0.  1.
         23    2    1    2    0    0 -0.17763568394E-14  0.00000000000E+00  0.00000000000E+00  0.91188000000E+02  0.91188000000E+02 0.  0.
    9900012    2    3    3    0    0  0.13132952133E+02 -0.12322829645E+02 -0.32116249174E+02  0.54367081717E+02  0.39999994390E+02 0.  0.
         12    1    3    3    0    0 -0.13132952133E+02  0.12322829645E+02  0.32116249174E+02  0.36820918283E+02  0.00000000000E+00 0. -1.
         11    1    4    4    0    0  0.31059113272E+01 -0.64175479346E+01 -0.65491736950E+01  0.96810786079E+01  0.51100000000E-03 0. -1.
        -11    1    4    4    0    0  0.30233447562E+01 -0.20037794350E+02 -0.10289208519E+02  0.22727112183E+02  0.51100000000E-03 0.  1.
         12    1    4    4    0    0  0.70036960492E+01  0.14132512640E+02 -0.15277866960E+02  0.21958890926E+02  0.00000000000E+00 0. -1.
</event>
<event>
 8    1  0.2512298E-006  0.9118800E+02  0.7816164E-02  0.1184000E+00
        -11   -1    0    0    0    0  0.00000000000E+00  0.00000000000E+00  0.45593999997E+02  0.45594000000E+02  0.51100000000E-03 0.  1.
         11   -1    0    0    0    0 -0.00000000000E+00 -0.00000000000E+00 -0.45593999997E+02  0.45594000000E+02  0.51100000000E-03 0. -1.
         23    2    1    2    0    0  0.00000000000E+00  0.35527136788E-14  0.00000000000E+00  0.91188000000E+02  0.91188000000E+02 0.  0.
    9900012    2    3    3    0    0  0.28413153535E+02  0.21333991769E+02 -0.96608223365E+01  0.54367109370E+02  0.40000057430E+02 0.  0.
         12    1    3    3    0    0 -0.28413153535E+02 -0.21333991769E+02  0.96608223365E+01  0.36820890630E+02  0.00000000000E+00 0. -1.
         11    1    4    4    0    0 -0.52737738129E+01  0.21014009267E+01 -0.90157549623E+01  0.10654220473E+02  0.51100000000E-03 0. -1.
        -11    1    4    4    0    0  0.84912410588E+01  0.81176621569E+00 -0.79475460891E+01  0.11658628916E+02  0.51100000000E-03 0.  1.
        -12    1    4    4    0    0  0.25195686289E+02  0.18420824627E+02  0.73024787149E+01  0.32054259980E+02  0.00000000000E+00 0.  1.
</event>
<event>
 8    1  0.2512298E-006  0.9118800E+02  0.7816164E-02  0.1184000E+00
        -11   -1    0    0    0    0  0.00000000000E+00  0.00000000000E+00  0.45593999997E+02  0.45594000000E+02  0.51100000000E-03 0.  1.
         11   -1    0    0    0    0 -0.00000000000E+00 -0.00000000000E+00 -0.45593999997E+02  0.45594000000E+02  0.51100000000E-03 0. -1.
         23    2    1    2    0    0  0.00000000000E+00  0.00000000000E+00  0.00000000000E+00  0.91188000000E+02  0.91188000000E+02 0.  0.
    9900012    2    3    3    0    0  0.24867763469E+02  0.45345269228E+01 -0.26773310595E+02  0.54367112523E+02  0.40000064619E+02 0.  0.
        -12    1    3    3    0    0 -0.24867763469E+02 -0.45345269228E+01  0.26773310595E+02  0.36820887477E+02  0.00000000000E+00 0.  1.
         11    1    4    4    0    0 -0.53774922816E+00  0.12343516337E+01 -0.20442803022E+02  0.20487093348E+02  0.51100000000E-03 0. -1.
        -11    1    4    4    0    0  0.23660583145E+02 -0.40307996027E+01 -0.93546952105E+01  0.25760063333E+02  0.51100000000E-03 0.  1.
         12    1    4    4    0    0  0.17449295525E+01  0.73309748918E+01  0.30241876375E+01  0.81199558419E+01  0.00000000000E+00 0. -1.
</event>
<event>
 8    1  0.2512298E-006  0.9118800E+02  0.7816164E-02  0.1184000E+00
        -11   -1    0    0    0    0  0.00000000000E+00  0.00000000000E+00  0.45593999997E+02  0.45594000000E+02  0.51100000000E-03 0.  1.
         11   -1    0    0    0    0 -0.00000000000E+00 -0.00000000000E+00 -0.45593999997E+02  0.45594000000E+02  0.51100000000E-03 0. -1.
         23    2    1    2    0    0  0.00000000000E+00  0.00000000000E+00  0.00000000000E+00  0.91188000000E+02  0.91188000000E+02 0.  0.
    9900012    2    3    3    0    0  0.26878776297E+02 -0.24343668399E+02  0.63793588703E+01  0.54367095259E+02  0.40000025261E+02 0.  0.
        -12    1    3    3    0    0 -0.26878776297E+02  0.24343668399E+02 -0.63793588703E+01  0.36820904741E+02  0.00000000000E+00 0.  1.
         11    1    4    4    0    0  0.24623838326E+02  0.12147365320E+01 -0.11825997671E+01  0.24682129997E+02  0.51100000000E-03 0. -1.
        -11    1    4    4    0    0 -0.30514301937E+01 -0.13316699237E+02  0.88543676016E+01  0.16280219000E+02  0.51100000000E-03 0.  1.
         12    1    4    4    0    0  0.53063681651E+01 -0.12241705695E+02 -0.12924089641E+01  0.13404746262E+02  0.00000000000E+00 0. -1.
</event>
<event>
 8    1  0.2512298E-006  0.9118800E+02  0.7816164E-02  0.1184000E+00
        -11   -1    0    0    0    0  0.00000000000E+00  0.00000000000E+00  0.45593999997E+02  0.45594000000E+02  0.51100000000E-03 0.  1.
         11   -1    0    0    0    0 -0.00000000000E+00 -0.00000000000E+00 -0.45593999997E+02  0.45594000000E+02  0.51100000000E-03 0. -1.
         23    2    1    2    0    0  0.00000000000E+00  0.35527136788E-14  0.00000000000E+00  0.91188000000E+02  0.91188000000E+02 0.  0.
    9900012    2    3    3    0    0 -0.14704789731E+02  0.90676535523E+01 -0.32516293276E+02  0.54367319528E+02  0.40000536525E+02 0.  0.
        -12    1    3    3    0    0  0.14704789731E+02 -0.90676535523E+01  0.32516293276E+02  0.36820680472E+02  0.00000000000E+00 0.  1.
         11    1    4    4    0    0 -0.43777735812E+01  0.64404874581E+00 -0.30192016286E+02  0.30514546498E+02  0.51100000000E-03 0. -1.
        -11    1    4    4    0    0 -0.68592017089E+01 -0.56917263527E+01 -0.26990991390E+01  0.93128692346E+01  0.51100000000E-03 0.  1.
        -12    1    4    4    0    0 -0.34678144411E+01  0.14115331159E+02  0.37482214875E+00  0.14539903795E+02  0.00000000000E+00 0.  1.
</event>
<event>
 8    1  0.2512298E-006  0.9118800E+02  0.7816164E-02  0.1184000E+00
        -11   -1    0    0    0    0  0.00000000000E+00  0.00000000000E+00  0.45593999997E+02  0.45594000000E+02  0.51100000000E-03 0.  1.
         11   -1    0    0    0    0 -0.00000000000E+00 -0.00000000000E+00 -0.45593999997E+02  0.45594000000E+02  0.51100000000E-03 0. -1.
         23    2    1    2    0    0  0.35527136788E-14 -0.35527136788E-14 -0.35527136788E-14  0.91188000000E+02  0.91188000000E+02 0.  0.
    9900012    2    3    3    0    0 -0.13955403398E+02 -0.27713993581E+02  0.19823244474E+02  0.54367085485E+02  0.40000002981E+02 0.  0.
         12    1    3    3    0    0  0.13955403398E+02  0.27713993581E+02 -0.19823244474E+02  0.36820914515E+02  0.00000000000E+00 0. -1.
         11    1    4    4    0    0 -0.17516527999E+02 -0.22128111407E+01  0.54154456536E+01  0.18467602394E+02  0.51100000000E-03 0. -1.
        -11    1    4    4    0    0  0.72817315664E+01 -0.18556490286E+00  0.35584695006E+01  0.81068338078E+01  0.51100000000E-03 0.  1.
        -12    1    4    4    0    0 -0.37206069655E+01 -0.25315617538E+02  0.10849329319E+02  0.27792649283E+02  0.00000000000E+00 0.  1.
</event>
<event>
 8    1  0.2512298E-006  0.9118800E+02  0.7816164E-02  0.1184000E+00
        -11   -1    0    0    0    0  0.00000000000E+00  0.00000000000E+00  0.45593999997E+02  0.45594000000E+02  0.51100000000E-03 0.  1.
         11   -1    0    0    0    0 -0.00000000000E+00 -0.00000000000E+00 -0.45593999997E+02  0.45594000000E+02  0.51100000000E-03 0. -1.
         23    2    1    2    0    0  0.00000000000E+00  0.00000000000E+00  0.00000000000E+00  0.91188000000E+02  0.91188000000E+02 0.  0.
    9900012    2    3    3    0    0 -0.19144163636E+02  0.22164518345E+02 -0.22316269954E+02  0.54367071447E+02  0.39999970979E+02 0.  0.
        -12    1    3    3    0    0  0.19144163636E+02 -0.22164518345E+02  0.22316269954E+02  0.36820928553E+02  0.00000000000E+00 0.  1.
         11    1    4    4    0    0 -0.11756671197E+02  0.63920838424E+00 -0.19605578971E+02  0.22869338251E+02  0.51100000000E-03 0. -1.
        -11    1    4    4    0    0  0.10715580134E+01 -0.18964174638E+01 -0.59960914817E+01  0.63794787476E+01  0.51100000000E-03 0.  1.
         12    1    4    4    0    0 -0.84590504517E+01  0.23421727425E+02  0.32854004981E+01  0.25118254449E+02  0.00000000000E+00 0. -1.
</event>
<event>
 8    1  0.2512298E-006  0.9118800E+02  0.7816164E-02  0.1184000E+00
        -11   -1    0    0    0    0  0.00000000000E+00  0.00000000000E+00  0.45593999997E+02  0.45594000000E+02  0.51100000000E-03 0.  1.
         11   -1    0    0    0    0 -0.00000000000E+00 -0.00000000000E+00 -0.45593999997E+02  0.45594000000E+02  0.51100000000E-03 0. -1.
         23    2    1    2    0    0  0.00000000000E+00  0.00000000000E+00  0.00000000000E+00  0.91188000000E+02  0.91188000000E+02 0.  0.
    9900012    2    3    3    0    0 -0.12086624271E+02 -0.84127859340E+01 -0.33747871488E+02  0.54367078183E+02  0.39999986335E+02 0.  0.
        -12    1    3    3    0    0  0.12086624271E+02  0.84127859340E+01  0.33747871488E+02  0.36820921817E+02  0.00000000000E+00 0.  1.
         11    1    4    4    0    0  0.55355188750E+00 -0.29225896252E+01 -0.88205394189E+01  0.93085909627E+01  0.51100000000E-03 0. -1.
        -11    1    4    4    0    0  0.26981302494E+01  0.71967056408E+01 -0.23923597121E+02  0.25127892438E+02  0.51100000000E-03 0.  1.
        -12    1    4    4    0    0 -0.15338306408E+02 -0.12686901950E+02 -0.10037349484E+01  0.19930594783E+02  0.00000000000E+00 0.  1.
</event>
<event>
 8    1  0.2512298E-006  0.9118800E+02  0.7816164E-02  0.1184000E+00
        -11   -1    0    0    0    0  0.00000000000E+00  0.00000000000E+00  0.45593999997E+02  0.45594000000E+02  0.51100000000E-03 0. -1.
         11   -1    0    0    0    0 -0.00000000000E+00 -0.00000000000E+00 -0.45593999997E+02  0.45594000000E+02  0.51100000000E-03 0.  1.
         23    2    1    2    0    0  0.00000000000E+00  0.00000000000E+00  0.00000000000E+00  0.91188000000E+02  0.91188000000E+02 0.  0.
    9900012    2    3    3    0    0 -0.11351748186E+02  0.29984330096E+02 -0.18107120942E+02  0.54366945330E+02  0.39999683469E+02 0.  0.
        -12    1    3    3    0    0  0.11351748186E+02 -0.29984330096E+02  0.18107120942E+02  0.36821054670E+02  0.00000000000E+00 0.  1.
         11    1    4    4    0    0 -0.66735956862E+01  0.35031646314E+02 -0.19205905468E+01  0.35713327920E+02  0.51100000000E-03 0. -1.
        -11    1    4    4    0    0 -0.54351149362E+01 -0.20473496274E+01 -0.12859721838E+02  0.14110441555E+02  0.51100000000E-03 0.  1.
         12    1    4    4    0    0  0.75696243662E+00 -0.29999665905E+01 -0.33268085570E+01  0.45431758550E+01  0.00000000000E+00 0. -1.
</event>
<event>
 8    1  0.2512298E-006  0.9118800E+02  0.7816164E-02  0.1184000E+00
        -11   -1    0    0    0    0  0.00000000000E+00  0.00000000000E+00  0.45593999997E+02  0.45594000000E+02  0.51100000000E-03 0.  1.
         11   -1    0    0    0    0 -0.00000000000E+00 -0.00000000000E+00 -0.45593999997E+02  0.45594000000E+02  0.51100000000E-03 0. -1.
         23    2    1    2    0    0 -0.35527136788E-14  0.00000000000E+00 -0.21094237468E-14  0.91188000000E+02  0.91188000000E+02 0.  0.
    9900012    2    3    3    0    0  0.23855205501E+02  0.28040865902E+02  0.64532441729E+00  0.54367116881E+02  0.40000074554E+02 0.  0.
         12    1    3    3    0    0 -0.23855205501E+02 -0.28040865902E+02 -0.64532441729E+00  0.36820883119E+02  0.00000000000E+00 0. -1.
         11    1    4    4    0    0  0.56938743621E+01 -0.24791230281E+00 -0.11185969804E+02  0.12554186014E+02  0.51100000000E-03 0. -1.
        -11    1    4    4    0    0  0.68583120659E+01  0.17499941756E+02  0.17011558117E+02  0.25351085098E+02  0.51100000000E-03 0.  1.
        -12    1    4    4    0    0  0.11303019073E+02  0.10788836449E+02 -0.51802638957E+01  0.16461845769E+02  0.00000000000E+00 0.  1.
</event>
<event>
 8    1  0.2512298E-006  0.9118800E+02  0.7816164E-02  0.1184000E+00
        -11   -1    0    0    0    0  0.00000000000E+00  0.00000000000E+00  0.45593999997E+02  0.45594000000E+02  0.51100000000E-03 0.  1.
         11   -1    0    0    0    0 -0.00000000000E+00 -0.00000000000E+00 -0.45593999997E+02  0.45594000000E+02  0.51100000000E-03 0. -1.
         23    2    1    2    0    0 -0.35527136788E-14  0.00000000000E+00  0.00000000000E+00  0.91188000000E+02  0.91188000000E+02 0.  0.
    9900012    2    3    3    0    0 -0.21839773455E+02 -0.19960763152E+02  0.21917354068E+02  0.54367106753E+02  0.40000051465E+02 0.  0.
        -12    1    3    3    0    0  0.21839773455E+02  0.19960763152E+02 -0.21917354068E+02  0.36820893247E+02  0.00000000000E+00 0.  1.
         11    1    4    4    0    0 -0.96423888934E+01 -0.95180703830E+01 -0.15391479314E+01  0.13635919624E+02  0.51100000000E-03 0. -1.
        -11    1    4    4    0    0 -0.50968300145E+00 -0.18819083409E+02  0.14802449385E+02  0.23948490249E+02  0.51100000000E-03 0.  1.
         12    1    4    4    0    0 -0.11687701560E+02  0.83763906406E+01  0.86540526146E+01  0.16782696880E+02  0.00000000000E+00 0. -1.
</event>
<event>
 8    1  0.2512298E-006  0.9118800E+02  0.7816164E-02  0.1184000E+00
        -11   -1    0    0    0    0  0.00000000000E+00  0.00000000000E+00  0.45593999997E+02  0.45594000000E+02  0.51100000000E-03 0.  1.
         11   -1    0    0    0    0 -0.00000000000E+00 -0.00000000000E+00 -0.45593999997E+02  0.45594000000E+02  0.51100000000E-03 0. -1.
         23    2    1    2    0    0  0.00000000000E+00  0.17763568394E-14 -0.35527136788E-14  0.91188000000E+02  0.91188000000E+02 0.  0.
    9900012    2    3    3    0    0  0.27967701425E+02 -0.13734755183E+02  0.19620074258E+02  0.54367039436E+02  0.39999898003E+02 0.  0.
         12    1    3    3    0    0 -0.27967701425E+02  0.13734755183E+02 -0.19620074258E+02  0.36820960564E+02  0.00000000000E+00 0. -1.
         11    1    4    4    0    0  0.15110374210E+02  0.18190192738E+01  0.12448542862E+02  0.19662107200E+02  0.51100000000E-03 0. -1.
        -11    1    4    4    0    0 -0.70911046073E+00 -0.18473162873E+01  0.14081055288E+02  0.14219406928E+02  0.51100000000E-03 0.  1.
        -12    1    4    4    0    0  0.13566437676E+02 -0.13706458169E+02 -0.69095238914E+01  0.20485525308E+02  0.00000000000E+00 0.  1.
</event>
<event>
 8    1  0.2512298E-006  0.9118800E+02  0.7816164E-02  0.1184000E+00
        -11   -1    0    0    0    0  0.00000000000E+00  0.00000000000E+00  0.45593999997E+02  0.45594000000E+02  0.51100000000E-03 0.  1.
         11   -1    0    0    0    0 -0.00000000000E+00 -0.00000000000E+00 -0.45593999997E+02  0.45594000000E+02  0.51100000000E-03 0. -1.
         23    2    1    2    0    0 -0.35527136788E-14  0.00000000000E+00  0.88817841970E-15  0.91188000000E+02  0.91188000000E+02 0.  0.
    9900012    2    3    3    0    0  0.30488777712E+02 -0.19287791988E+02 -0.73618112600E+01  0.54367071831E+02  0.39999971854E+02 0.  0.
        -12    1    3    3    0    0 -0.30488777712E+02  0.19287791988E+02  0.73618112600E+01  0.36820928169E+02  0.00000000000E+00 0.  1.
         11    1    4    4    0    0  0.26401516782E+02 -0.87268459648E+01 -0.16626376533E+02  0.32398060525E+02  0.51100000000E-03 0. -1.
        -11    1    4    4    0    0  0.78773464111E+01 -0.12570975314E+02  0.95926576768E+01  0.17666383002E+02  0.51100000000E-03 0.  1.
         12    1    4    4    0    0 -0.37900854809E+01  0.20100292903E+01 -0.32809240356E+00  0.43026283043E+01  0.00000000000E+00 0. -1.
</event>
<event>
 8    1  0.2512298E-006  0.9118800E+02  0.7816164E-02  0.1184000E+00
        -11   -1    0    0    0    0  0.00000000000E+00  0.00000000000E+00  0.45593999997E+02  0.45594000000E+02  0.51100000000E-03 0.  1.
         11   -1    0    0    0    0 -0.00000000000E+00 -0.00000000000E+00 -0.45593999997E+02  0.45594000000E+02  0.51100000000E-03 0. -1.
         23    2    1    2    0    0  0.00000000000E+00 -0.17763568394E-14  0.17763568394E-14  0.91188000000E+02  0.91188000000E+02 0.  0.
    9900012    2    3    3    0    0 -0.31383594238E+02  0.13072839973E+02  0.14140235251E+02  0.54367144698E+02  0.40000137967E+02 0.  0.
         12    1    3    3    0    0  0.31383594238E+02 -0.13072839973E+02 -0.14140235251E+02  0.36820855302E+02  0.00000000000E+00 0. -1.
         11    1    4    4    0    0 -0.20697998805E+01  0.15825977787E+02  0.58274830356E+01  0.16991327295E+02  0.51100000000E-03 0. -1.
        -11    1    4    4    0    0 -0.54078582906E+01 -0.99059607259E+01  0.79072175562E+00  0.11313630290E+02  0.51100000000E-03 0.  1.
         12    1    4    4    0    0 -0.23905936067E+02  0.71528229120E+01  0.75220304601E+01  0.26062187112E+02  0.00000000000E+00 0. -1.
</event>
<event>
 8    1  0.2512298E-006  0.9118800E+02  0.7816164E-02  0.1184000E+00
        -11   -1    0    0    0    0  0.00000000000E+00  0.00000000000E+00  0.45593999997E+02  0.45594000000E+02  0.51100000000E-03 0.  1.
         11   -1    0    0    0    0 -0.00000000000E+00 -0.00000000000E+00 -0.45593999997E+02  0.45594000000E+02  0.51100000000E-03 0. -1.
         23    2    1    2    0    0 -0.88817841970E-15  0.00000000000E+00  0.00000000000E+00  0.91188000000E+02  0.91188000000E+02 0.  0.
    9900012    2    3    3    0    0  0.40998953927E+01  0.24189846715E+02 -0.27455850781E+02  0.54367060734E+02  0.39999946554E+02 0.  0.
        -12    1    3    3    0    0 -0.40998953927E+01 -0.24189846715E+02  0.27455850781E+02  0.36820939266E+02  0.00000000000E+00 0.  1.
         11    1    4    4    0    0  0.41628608613E+01 -0.10727450879E+01  0.44473982932E+00  0.43218035993E+01  0.51100000000E-03 0.  1.
        -11    1    4    4    0    0 -0.32963638539E+01  0.16648460166E+02  0.34962039755E+01  0.17328031713E+02  0.51100000000E-03 0. -1.
        -12    1    4    4    0    0  0.32333983852E+01  0.86141316374E+01 -0.31396794586E+02  0.32717225421E+02  0.00000000000E+00 0.  1.
</event>
<event>
 8    1  0.2512298E-006  0.9118800E+02  0.7816164E-02  0.1184000E+00
        -11   -1    0    0    0    0  0.00000000000E+00  0.00000000000E+00  0.45593999997E+02  0.45594000000E+02  0.51100000000E-03 0. -1.
         11   -1    0    0    0    0 -0.00000000000E+00 -0.00000000000E+00 -0.45593999997E+02  0.45594000000E+02  0.51100000000E-03 0.  1.
         23    2    1    2    0    0  0.00000000000E+00  0.00000000000E+00 -0.17763568394E-14  0.91188000000E+02  0.91188000000E+02 0.  0.
    9900012    2    3    3    0    0 -0.11055966224E+02  0.33561627210E+02 -0.10351944093E+02  0.54367082621E+02  0.39999996451E+02 0.  0.
        -12    1    3    3    0    0  0.11055966224E+02 -0.33561627210E+02  0.10351944093E+02  0.36820917379E+02  0.00000000000E+00 0.  1.
         11    1    4    4    0    0 -0.10111903596E+02  0.11051278990E+02 -0.79760217658E+01  0.16970512224E+02  0.51100000000E-03 0. -1.
        -11    1    4    4    0    0 -0.54010351787E+01  0.13543723438E+02  0.12674444753E+02  0.19319554229E+02  0.51100000000E-03 0.  1.
        -12    1    4    4    0    0  0.44569725508E+01  0.89666247823E+01 -0.15050367080E+02  0.18077016168E+02  0.00000000000E+00 0.  1.
</event>
<event>
 8    1  0.2512298E-006  0.9118800E+02  0.7816164E-02  0.1184000E+00
        -11   -1    0    0    0    0  0.00000000000E+00  0.00000000000E+00  0.45593999997E+02  0.45594000000E+02  0.51100000000E-03 0. -1.
         11   -1    0    0    0    0 -0.00000000000E+00 -0.00000000000E+00 -0.45593999997E+02  0.45594000000E+02  0.51100000000E-03 0.  1.
         23    2    1    2    0    0 -0.35527136788E-14  0.00000000000E+00  0.00000000000E+00  0.91188000000E+02  0.91188000000E+02 0.  0.
    9900012    2    3    3    0    0  0.19249532287E+02  0.43891138536E+01  0.31080067774E+02  0.54367089819E+02  0.40000012861E+02 0.  0.
        -12    1    3    3    0    0 -0.19249532287E+02 -0.43891138536E+01 -0.31080067774E+02  0.36820910181E+02  0.00000000000E+00 0.  1.
         11    1    4    4    0    0  0.10137151165E+02  0.46808884098E+01  0.13724203744E+02  0.17692549809E+02  0.51100000000E-03 0. -1.
        -11    1    4    4    0    0  0.58540537097E+01 -0.13945075326E+02  0.10517577558E+01  0.15160516658E+02  0.51100000000E-03 0.  1.
        -12    1    4    4    0    0  0.32583274125E+01  0.13653300770E+02  0.16304106274E+02  0.21514023353E+02  0.00000000000E+00 0.  1.
</event>
<event>
 8    1  0.2512298E-006  0.9118800E+02  0.7816164E-02  0.1184000E+00
        -11   -1    0    0    0    0  0.00000000000E+00  0.00000000000E+00  0.45593999997E+02  0.45594000000E+02  0.51100000000E-03 0.  1.
         11   -1    0    0    0    0 -0.00000000000E+00 -0.00000000000E+00 -0.45593999997E+02  0.45594000000E+02  0.51100000000E-03 0. -1.
         23    2    1    2    0    0 -0.88817841970E-15  0.00000000000E+00 -0.35527136788E-14  0.91188000000E+02  0.91188000000E+02 0.  0.
    9900012    2    3    3    0    0 -0.38050626139E+01  0.26249326855E+02 -0.25539655313E+02  0.54367086712E+02  0.40000005778E+02 0.  0.
        -12    1    3    3    0    0  0.38050626139E+01 -0.26249326855E+02  0.25539655313E+02  0.36820913288E+02  0.00000000000E+00 0.  1.
         11    1    4    4    0    0 -0.17419828043E+01  0.25531747786E+02 -0.53421448519E+01  0.26142745858E+02  0.51100000000E-03 0. -1.
        -11    1    4    4    0    0 -0.49423031412E+01  0.18656033335E+00  0.23583050183E+01  0.54793035979E+01  0.51100000000E-03 0.  1.
        -12    1    4    4    0    0  0.28792233316E+01  0.53101873588E+00 -0.22555815479E+02  0.22745037257E+02  0.00000000000E+00 0.  1.
</event>
<event>
 8    1  0.2512298E-006  0.9118800E+02  0.7816164E-02  0.1184000E+00
        -11   -1    0    0    0    0  0.00000000000E+00  0.00000000000E+00  0.45593999997E+02  0.45594000000E+02  0.51100000000E-03 0.  1.
         11   -1    0    0    0    0 -0.00000000000E+00 -0.00000000000E+00 -0.45593999997E+02  0.45594000000E+02  0.51100000000E-03 0. -1.
         23    2    1    2    0    0 -0.35527136788E-14  0.00000000000E+00  0.00000000000E+00  0.91188000000E+02  0.91188000000E+02 0.  0.
    9900012    2    3    3    0    0  0.27968525525E+02 -0.13186097146E+02 -0.19991697520E+02  0.54367088174E+02  0.40000009110E+02 0.  0.
         12    1    3    3    0    0 -0.27968525525E+02  0.13186097146E+02  0.19991697520E+02  0.36820911826E+02  0.00000000000E+00 0. -1.
         11    1    4    4    0    0 -0.24379406278E+01 -0.71854127646E+01 -0.16539940084E+02  0.18197344019E+02  0.51100000000E-03 0. -1.
        -11    1    4    4    0    0  0.18756089207E+02 -0.49021740771E+01  0.68685702560E+01  0.20566950446E+02  0.51100000000E-03 0.  1.
         12    1    4    4    0    0  0.11650376946E+02 -0.10985103047E+01 -0.10320327692E+02  0.15602793710E+02  0.00000000000E+00 0. -1.
</event>
<event>
 8    1  0.2512298E-006  0.9118800E+02  0.7816164E-02  0.1184000E+00
        -11   -1    0    0    0    0  0.00000000000E+00  0.00000000000E+00  0.45593999997E+02  0.45594000000E+02  0.51100000000E-03 0.  1.
         11   -1    0    0    0    0 -0.00000000000E+00 -0.00000000000E+00 -0.45593999997E+02  0.45594000000E+02  0.51100000000E-03 0. -1.
         23    2    1    2    0    0 -0.17763568394E-14 -0.35527136788E-14  0.00000000000E+00  0.91188000000E+02  0.91188000000E+02 0.  0.
    9900012    2    3    3    0    0 -0.12503940561E+02  0.18724890317E+02 -0.29134322767E+02  0.54367098191E+02  0.40000031946E+02 0.  0.
        -12    1    3    3    0    0  0.12503940561E+02 -0.18724890317E+02  0.29134322767E+02  0.36820901809E+02  0.00000000000E+00 0.  1.
         11    1    4    4    0    0 -0.10146105810E+02  0.16546267390E+02 -0.21434409865E+02  0.28916368274E+02  0.51100000000E-03 0. -1.
        -11    1    4    4    0    0 -0.10590132222E+02 -0.63868858761E+01 -0.35474351467E+01  0.12865749416E+02  0.51100000000E-03 0.  1.
        -12    1    4    4    0    0  0.82322974703E+01  0.85655088027E+01 -0.41524777556E+01  0.12584980501E+02  0.00000000000E+00 0.  1.
</event>
<event>
 8    1  0.2512298E-006  0.9118800E+02  0.7816164E-02  0.1184000E+00
        -11   -1    0    0    0    0  0.00000000000E+00  0.00000000000E+00  0.45593999997E+02  0.45594000000E+02  0.51100000000E-03 0.  1.
         11   -1    0    0    0    0 -0.00000000000E+00 -0.00000000000E+00 -0.45593999997E+02  0.45594000000E+02  0.51100000000E-03 0. -1.
         23    2    1    2    0    0  0.11102230246E-14 -0.71054273576E-14  0.17763568394E-14  0.91188000000E+02  0.91188000000E+02 0.  0.
    9900012    2    3    3    0    0  0.12484969270E+01  0.33339328931E+02 -0.15579179875E+02  0.54367076007E+02  0.39999981373E+02 0.  0.
         12    1    3    3    0    0 -0.12484969270E+01 -0.33339328931E+02  0.15579179875E+02  0.36820923993E+02  0.00000000000E+00 0. -1.
         11    1    4    4    0    0  0.26206147940E+01 -0.37147282140E+01  0.14129296138E+00  0.45482734707E+01  0.51100000000E-03 0. -1.
        -11    1    4    4    0    0  0.11767987123E+02  0.10291576296E+02  0.94669029303E+00  0.15662001352E+02  0.51100000000E-03 0.  1.
         12    1    4    4    0    0 -0.13140104990E+02  0.26762480849E+02 -0.16667163129E+02  0.34156801184E+02  0.00000000000E+00 0. -1.
</event>
<event>
 8    1  0.2512298E-006  0.9118800E+02  0.7816164E-02  0.1184000E+00
        -11   -1    0    0    0    0  0.00000000000E+00  0.00000000000E+00  0.45593999997E+02  0.45594000000E+02  0.51100000000E-03 0.  1.
         11   -1    0    0    0    0 -0.00000000000E+00 -0.00000000000E+00 -0.45593999997E+02  0.45594000000E+02  0.51100000000E-03 0. -1.
         23    2    1    2    0    0  0.00000000000E+00 -0.19984014443E-14  0.35527136788E-14  0.91188000000E+02  0.91188000000E+02 0.  0.
    9900012    2    3    3    0    0 -0.20932399036E+02  0.58983992878E+00  0.30286388039E+02  0.54367101844E+02  0.40000040273E+02 0.  0.
         12    1    3    3    0    0  0.20932399036E+02 -0.58983992878E+00 -0.30286388039E+02  0.36820898156E+02  0.00000000000E+00 0. -1.
         11    1    4    4    0    0 -0.40884063523E+01 -0.14119124533E+02  0.21254199212E+01  0.14852008422E+02  0.51100000000E-03 0. -1.
        -11    1    4    4    0    0 -0.12941491375E+02  0.75369195068E+00  0.10585796133E+02  0.16736467088E+02  0.51100000000E-03 0.  1.
         12    1    4    4    0    0 -0.39025013093E+01  0.13955272511E+02  0.17575171986E+02  0.22778626334E+02  0.00000000000E+00 0. -1.
</event>
<event>
 8    1  0.2512298E-006  0.9118800E+02  0.7816164E-02  0.1184000E+00
        -11   -1    0    0    0    0  0.00000000000E+00  0.00000000000E+00  0.45593999997E+02  0.45594000000E+02  0.51100000000E-03 0.  1.
         11   -1    0    0    0    0 -0.00000000000E+00 -0.00000000000E+00 -0.45593999997E+02  0.45594000000E+02  0.51100000000E-03 0. -1.
         23    2    1    2    0    0 -0.35527136788E-14  0.35527136788E-14  0.00000000000E+00  0.91188000000E+02  0.91188000000E+02 0.  0.
    9900012    2    3    3    0    0  0.23473555927E+02  0.25188359715E+02  0.13050637027E+02  0.54367076331E+02  0.39999982112E+02 0.  0.
        -12    1    3    3    0    0 -0.23473555927E+02 -0.25188359715E+02 -0.13050637027E+02  0.36820923669E+02  0.00000000000E+00 0.  1.
         11    1    4    4    0    0  0.70867937028E+01 -0.99355094683E+00 -0.30316214355E+01  0.77717769692E+01  0.51100000000E-03 0. -1.
        -11    1    4    4    0    0 -0.86682432930E+01  0.89378988205E+01  0.90081706202E+01  0.15367876083E+02  0.51100000000E-03 0.  1.
         12    1    4    4    0    0  0.25055005517E+02  0.17244011842E+02  0.70740878427E+01  0.31227423279E+02  0.00000000000E+00 0. -1.
</event>
<event>
 8    1  0.2512298E-006  0.9118800E+02  0.7816164E-02  0.1184000E+00
        -11   -1    0    0    0    0  0.00000000000E+00  0.00000000000E+00  0.45593999997E+02  0.45594000000E+02  0.51100000000E-03 0.  1.
         11   -1    0    0    0    0 -0.00000000000E+00 -0.00000000000E+00 -0.45593999997E+02  0.45594000000E+02  0.51100000000E-03 0. -1.
         23    2    1    2    0    0  0.35527136788E-14  0.00000000000E+00  0.00000000000E+00  0.91188000000E+02  0.91188000000E+02 0.  0.
    9900012    2    3    3    0    0 -0.25883658221E+02  0.23026334623E+02 -0.12474281394E+02  0.54367033889E+02  0.39999885357E+02 0.  0.
        -12    1    3    3    0    0  0.25883658221E+02 -0.23026334623E+02  0.12474281394E+02  0.36820966111E+02  0.00000000000E+00 0.  1.
         11    1    4    4    0    0 -0.23789154993E+02  0.17418269302E+01 -0.23953047246E+01  0.23972804202E+02  0.51100000000E-03 0. -1.
        -11    1    4    4    0    0  0.73749525782E+01  0.14852983894E+02 -0.90733455929E+01  0.18903085902E+02  0.51100000000E-03 0.  1.
        -12    1    4    4    0    0 -0.94694558062E+01  0.64315237985E+01 -0.10056310762E+01  0.11491143785E+02  0.00000000000E+00 0.  1.
</event>
<event>
 8    1  0.2512298E-006  0.9118800E+02  0.7816164E-02  0.1184000E+00
        -11   -1    0    0    0    0  0.00000000000E+00  0.00000000000E+00  0.45593999997E+02  0.45594000000E+02  0.51100000000E-03 0.  1.
         11   -1    0    0    0    0 -0.00000000000E+00 -0.00000000000E+00 -0.45593999997E+02  0.45594000000E+02  0.51100000000E-03 0. -1.
         23    2    1    2    0    0  0.11102230246E-14  0.35527136788E-14 -0.35527136788E-14  0.91188000000E+02  0.91188000000E+02 0.  0.
    9900012    2    3    3    0    0 -0.11717332759E+01  0.24141707363E+02  0.27777439026E+02  0.54367066930E+02  0.39999960681E+02 0.  0.
         12    1    3    3    0    0  0.11717332759E+01 -0.24141707363E+02 -0.27777439026E+02  0.36820933070E+02  0.00000000000E+00 0. -1.
         11    1    4    4    0    0 -0.11641834137E+02  0.20817910904E+00 -0.24047657738E+01  0.11889429730E+02  0.51100000000E-03 0. -1.
        -11    1    4    4    0    0  0.14148944002E+02  0.19651617646E+02  0.25191400973E+02  0.34942601158E+02  0.51100000000E-03 0.  1.
         12    1    4    4    0    0 -0.36788431411E+01  0.42819106083E+01  0.49908038271E+01  0.75350360421E+01  0.00000000000E+00 0. -1.
</event>
<event>
 8    1  0.2512298E-006  0.9118800E+02  0.7816164E-02  0.1184000E+00
        -11   -1    0    0    0    0  0.00000000000E+00  0.00000000000E+00  0.45593999997E+02  0.45594000000E+02  0.51100000000E-03 0.  1.
         11   -1    0    0    0    0 -0.00000000000E+00 -0.00000000000E+00 -0.45593999997E+02  0.45594000000E+02  0.51100000000E-03 0. -1.
         23    2    1    2    0    0  0.22204460493E-15  0.17763568394E-14  0.00000000000E+00  0.91188000000E+02  0.91188000000E+02 0.  0.
    9900012    2    3    3    0    0  0.15536254161E+01  0.59425130396E+01  0.36305016779E+02  0.54367062254E+02  0.39999950021E+02 0.  0.
         12    1    3    3    0    0 -0.15536254161E+01 -0.59425130396E+01 -0.36305016779E+02  0.36820937746E+02  0.00000000000E+00 0. -1.
         11    1    4    4    0    0 -0.11163889012E+02 -0.96125915263E+01  0.10302975216E+02  0.17977364442E+02  0.51100000000E-03 0. -1.
        -11    1    4    4    0    0 -0.11358435327E+01 -0.21377643181E+01  0.53400653231E+01  0.58631454636E+01  0.51100000000E-03 0.  1.
        -12    1    4    4    0    0  0.13853357961E+02  0.17692868884E+02  0.20661976240E+02  0.30526552348E+02  0.00000000000E+00 0.  1.
</event>
<event>
 8    1  0.2512298E-006  0.9118800E+02  0.7816164E-02  0.1184000E+00
        -11   -1    0    0    0    0  0.00000000000E+00  0.00000000000E+00  0.45593999997E+02  0.45594000000E+02  0.51100000000E-03 0.  1.
         11   -1    0    0    0    0 -0.00000000000E+00 -0.00000000000E+00 -0.45593999997E+02  0.45594000000E+02  0.51100000000E-03 0. -1.
         23    2    1    2    0    0  0.35527136788E-14  0.00000000000E+00 -0.35527136788E-14  0.91188000000E+02  0.91188000000E+02 0.  0.
    9900012    2    3    3    0    0 -0.28900739384E+02  0.89618553960E+01  0.20981238828E+02  0.54367082415E+02  0.39999995980E+02 0.  0.
         12    1    3    3    0    0  0.28900739384E+02 -0.89618553960E+01 -0.20981238828E+02  0.36820917585E+02  0.00000000000E+00 0. -1.
         11    1    4    4    0    0 -0.10708646419E+02 -0.74330953655E+01 -0.59419919579E+01  0.14325965361E+02  0.51100000000E-03 0. -1.
        -11    1    4    4    0    0 -0.18996127118E+02  0.14727102183E+02  0.15798585928E+02  0.28763443844E+02  0.51100000000E-03 0.  1.
        -12    1    4    4    0    0  0.80403415328E+00  0.16678485789E+01  0.11124644858E+02  0.11277673209E+02  0.00000000000E+00 0.  1.
</event>
<event>
 8    1  0.2512298E-006  0.9118800E+02  0.7816164E-02  0.1184000E+00
        -11   -1    0    0    0    0  0.00000000000E+00  0.00000000000E+00  0.45593999997E+02  0.45594000000E+02  0.51100000000E-03 0. -1.
         11   -1    0    0    0    0 -0.00000000000E+00 -0.00000000000E+00 -0.45593999997E+02  0.45594000000E+02  0.51100000000E-03 0.  1.
         23    2    1    2    0    0  0.35527136788E-14  0.35527136788E-14  0.17763568394E-14  0.91188000000E+02  0.91188000000E+02 0.  0.
    9900012    2    3    3    0    0  0.29547671465E+02  0.20751764763E+02  0.72165854615E+01  0.54367085624E+02  0.40000003296E+02 0.  0.
        -12    1    3    3    0    0 -0.29547671465E+02 -0.20751764763E+02 -0.72165854615E+01  0.36820914376E+02  0.00000000000E+00 0.  1.
         11    1    4    4    0    0  0.20984187774E+02  0.18975124374E+01  0.18364445055E+02  0.27949768021E+02  0.51100000000E-03 0. -1.
        -11    1    4    4    0    0 -0.29766932051E+01  0.57395079964E+01 -0.34335215109E+01  0.73206369057E+01  0.51100000000E-03 0.  1.
        -12    1    4    4    0    0  0.11540176896E+02  0.13114744329E+02 -0.77143380820E+01  0.19096680697E+02  0.00000000000E+00 0.  1.
</event>
<event>
 8    1  0.2512298E-006  0.9118800E+02  0.7816164E-02  0.1184000E+00
        -11   -1    0    0    0    0  0.00000000000E+00  0.00000000000E+00  0.45593999997E+02  0.45594000000E+02  0.51100000000E-03 0.  1.
         11   -1    0    0    0    0 -0.00000000000E+00 -0.00000000000E+00 -0.45593999997E+02  0.45594000000E+02  0.51100000000E-03 0. -1.
         23    2    1    2    0    0 -0.17763568394E-14  0.00000000000E+00 -0.88817841970E-15  0.91188000000E+02  0.91188000000E+02 0.  0.
    9900012    2    3    3    0    0  0.13948742913E+02  0.33813393293E+02 -0.42270937849E+01  0.54367064153E+02  0.39999954349E+02 0.  0.
         12    1    3    3    0    0 -0.13948742913E+02 -0.33813393293E+02  0.42270937849E+01  0.36820935847E+02  0.00000000000E+00 0. -1.
         11    1    4    4    0    0  0.15528661908E+02  0.24698522600E+02 -0.17873564736E+02  0.34214334363E+02  0.51100000000E-03 0. -1.
        -11    1    4    4    0    0 -0.58172841580E+01  0.45731878646E+01  0.33384503426E+01  0.81178872357E+01  0.51100000000E-03 0.  1.
         12    1    4    4    0    0  0.42373651630E+01  0.45416828277E+01  0.10308020608E+02  0.12034842554E+02  0.00000000000E+00 0. -1.
</event>
<event>
 8    1  0.2512298E-006  0.9118800E+02  0.7816164E-02  0.1184000E+00
        -11   -1    0    0    0    0  0.00000000000E+00  0.00000000000E+00  0.45593999997E+02  0.45594000000E+02  0.51100000000E-03 0.  1.
         11   -1    0    0    0    0 -0.00000000000E+00 -0.00000000000E+00 -0.45593999997E+02  0.45594000000E+02  0.51100000000E-03 0. -1.
         23    2    1    2    0    0  0.17763568394E-14  0.00000000000E+00  0.35527136788E-14  0.91188000000E+02  0.91188000000E+02 0.  0.
    9900012    2    3    3    0    0  0.14400301313E+02 -0.16927739101E+02  0.29357472711E+02  0.54367106028E+02  0.40000049811E+02 0.  0.
         12    1    3    3    0    0 -0.14400301313E+02  0.16927739101E+02 -0.29357472711E+02  0.36820893972E+02  0.00000000000E+00 0. -1.
         11    1    4    4    0    0  0.18281770446E+02 -0.10638178884E+02  0.13904270090E+02  0.25312501014E+02  0.51100000000E-03 0. -1.
        -11    1    4    4    0    0  0.61649136861E+01 -0.77091934694E+00  0.16415544846E+02  0.17551939786E+02  0.51100000000E-03 0.  1.
        -12    1    4    4    0    0 -0.10046382819E+02 -0.55186408699E+01 -0.96234222449E+00  0.11502665228E+02  0.00000000000E+00 0.  1.
</event>
<event>
 8    1  0.2512298E-006  0.9118800E+02  0.7816164E-02  0.1184000E+00
        -11   -1    0    0    0    0  0.00000000000E+00  0.00000000000E+00  0.45593999997E+02  0.45594000000E+02  0.51100000000E-03 0.  1.
         11   -1    0    0    0    0 -0.00000000000E+00 -0.00000000000E+00 -0.45593999997E+02  0.45594000000E+02  0.51100000000E-03 0. -1.
         23    2    1    2    0    0  0.17763568394E-14  0.71054273576E-14  0.17763568394E-14  0.91188000000E+02  0.91188000000E+02 0.  0.
    9900012    2    3    3    0    0 -0.96019238248E+01 -0.34147118871E+02  0.98771592885E+01  0.54367069214E+02  0.39999965888E+02 0.  0.
         12    1    3    3    0    0  0.96019238248E+01  0.34147118871E+02 -0.98771592885E+01  0.36820930786E+02  0.00000000000E+00 0. -1.
         11    1    4    4    0    0 -0.13941712097E+02 -0.25064133020E+02 -0.88509430104E+01  0.30015350950E+02  0.51100000000E-03 0. -1.
        -11    1    4    4    0    0 -0.25851782384E+01 -0.50579189578E+01  0.24032987834E+01  0.61677820983E+01  0.51100000000E-03 0.  1.
        -12    1    4    4    0    0  0.69249665102E+01 -0.40250668932E+01  0.16324803515E+02  0.18183936166E+02  0.00000000000E+00 0.  1.
</event>
<event>
 8    1  0.2512298E-006  0.9118800E+02  0.7816164E-02  0.1184000E+00
        -11   -1    0    0    0    0  0.00000000000E+00  0.00000000000E+00  0.45593999997E+02  0.45594000000E+02  0.51100000000E-03 0.  1.
         11   -1    0    0    0    0 -0.00000000000E+00 -0.00000000000E+00 -0.45593999997E+02  0.45594000000E+02  0.51100000000E-03 0. -1.
         23    2    1    2    0    0 -0.35527136788E-14  0.00000000000E+00 -0.35527136788E-14  0.91188000000E+02  0.91188000000E+02 0.  0.
    9900012    2    3    3    0    0  0.27911777629E+02  0.15456212695E+02  0.18379849044E+02  0.54367072633E+02  0.39999973681E+02 0.  0.
         12    1    3    3    0    0 -0.27911777629E+02 -0.15456212695E+02 -0.18379849044E+02  0.36820927367E+02  0.00000000000E+00 0. -1.
         11    1    4    4    0    0  0.12431847665E+02  0.14367500846E+02 -0.59332087967E+01  0.19904242859E+02  0.51100000000E-03 0. -1.
        -11    1    4    4    0    0  0.84067107564E+01  0.79119672606E+00 -0.69462778699E+00  0.84723837275E+01  0.51100000000E-03 0.  1.
         12    1    4    4    0    0  0.70732192084E+01  0.29751512311E+00  0.25007685628E+02  0.25990446046E+02  0.00000000000E+00 0. -1.
</event>
<event>
 8    1  0.2512298E-006  0.9118800E+02  0.7816164E-02  0.1184000E+00
        -11   -1    0    0    0    0  0.00000000000E+00  0.00000000000E+00  0.45593999997E+02  0.45594000000E+02  0.51100000000E-03 0. -1.
         11   -1    0    0    0    0 -0.00000000000E+00 -0.00000000000E+00 -0.45593999997E+02  0.45594000000E+02  0.51100000000E-03 0.  1.
         23    2    1    2    0    0  0.00000000000E+00  0.88817841970E-15 -0.88817841970E-15  0.91188000000E+02  0.91188000000E+02 0.  0.
    9900012    2    3    3    0    0  0.35759593884E+02 -0.48876854446E+01 -0.72898432706E+01  0.54367084223E+02  0.40000000103E+02 0.  0.
        -12    1    3    3    0    0 -0.35759593884E+02  0.48876854446E+01  0.72898432706E+01  0.36820915777E+02  0.00000000000E+00 0.  1.
         11    1    4    4    0    0  0.33676009243E+02  0.17903758303E+01  0.38915129981E+01  0.33947355093E+02  0.51100000000E-03 0. -1.
        -11    1    4    4    0    0  0.16234938840E+01 -0.67807216675E+01  0.19814749812E+01  0.72484592905E+01  0.51100000000E-03 0.  1.
        -12    1    4    4    0    0  0.46009075663E+00  0.10266039263E+00 -0.13162831250E+02  0.13171269839E+02  0.00000000000E+00 0.  1.
</event>
<event>
 8    1  0.2512298E-006  0.9118800E+02  0.7816164E-02  0.1184000E+00
        -11   -1    0    0    0    0  0.00000000000E+00  0.00000000000E+00  0.45593999997E+02  0.45594000000E+02  0.51100000000E-03 0.  1.
         11   -1    0    0    0    0 -0.00000000000E+00 -0.00000000000E+00 -0.45593999997E+02  0.45594000000E+02  0.51100000000E-03 0. -1.
         23    2    1    2    0    0  0.00000000000E+00 -0.17763568394E-14  0.00000000000E+00  0.91188000000E+02  0.91188000000E+02 0.  0.
    9900012    2    3    3    0    0  0.32542312545E+02 -0.13030218662E+02 -0.11269052779E+02  0.54367078573E+02  0.39999987224E+02 0.  0.
         12    1    3    3    0    0 -0.32542312545E+02  0.13030218662E+02  0.11269052779E+02  0.36820921427E+02  0.00000000000E+00 0. -1.
         11    1    4    4    0    0 -0.39804186946E+01 -0.14634826477E+01 -0.99108677392E+01  0.10780111968E+02  0.51100000000E-03 0. -1.
        -11    1    4    4    0    0  0.12053832168E+02  0.53766759157E+01 -0.37711884013E+01  0.13726812305E+02  0.51100000000E-03 0.  1.
        -12    1    4    4    0    0  0.24468899071E+02 -0.16943411930E+02  0.24130033612E+01  0.29860154300E+02  0.00000000000E+00 0.  1.
</event>
<event>
 8    1  0.2512298E-006  0.9118800E+02  0.7816164E-02  0.1184000E+00
        -11   -1    0    0    0    0  0.00000000000E+00  0.00000000000E+00  0.45593999997E+02  0.45594000000E+02  0.51100000000E-03 0.  1.
         11   -1    0    0    0    0 -0.00000000000E+00 -0.00000000000E+00 -0.45593999997E+02  0.45594000000E+02  0.51100000000E-03 0. -1.
         23    2    1    2    0    0  0.00000000000E+00  0.17763568394E-14  0.00000000000E+00  0.91188000000E+02  0.91188000000E+02 0.  0.
    9900012    2    3    3    0    0  0.87931570259E+01 -0.68680097259E+01 -0.35089751275E+02  0.54367084577E+02  0.40000000910E+02 0.  0.
        -12    1    3    3    0    0 -0.87931570259E+01  0.68680097259E+01  0.35089751275E+02  0.36820915423E+02  0.00000000000E+00 0.  1.
         11    1    4    4    0    0  0.33000965679E+00 -0.54490511285E+01 -0.19293257330E+02  0.20050706801E+02  0.51100000000E-03 0. -1.
        -11    1    4    4    0    0  0.10647451936E+02  0.12142446158E+02 -0.51938576227E+01  0.16964179576E+02  0.51100000000E-03 0.  1.
        -12    1    4    4    0    0 -0.21843045667E+01 -0.13561404755E+02 -0.10602636322E+02  0.17352198200E+02  0.00000000000E+00 0.  1.
</event>
<event>
 8    1  0.2512298E-006  0.9118800E+02  0.7816164E-02  0.1184000E+00
        -11   -1    0    0    0    0  0.00000000000E+00  0.00000000000E+00  0.45593999997E+02  0.45594000000E+02  0.51100000000E-03 0. -1.
         11   -1    0    0    0    0 -0.00000000000E+00 -0.00000000000E+00 -0.45593999997E+02  0.45594000000E+02  0.51100000000E-03 0.  1.
         23    2    1    2    0    0 -0.44408920985E-15  0.00000000000E+00  0.35527136788E-14  0.91188000000E+02  0.91188000000E+02 0.  0.
    9900012    2    3    3    0    0  0.16145932445E+01 -0.18646458002E+02  0.31709293247E+02  0.54367128397E+02  0.40000100807E+02 0.  0.
        -12    1    3    3    0    0 -0.16145932445E+01  0.18646458002E+02 -0.31709293247E+02  0.36820871603E+02  0.00000000000E+00 0.  1.
         11    1    4    4    0    0  0.54164891528E+01 -0.98358948313E+01  0.31715507388E+02  0.33644562578E+02  0.51100000000E-03 0. -1.
        -11    1    4    4    0    0  0.63981656406E+00 -0.10330502233E+02 -0.68584603606E+01  0.12416405293E+02  0.51100000000E-03 0.  1.
        -12    1    4    4    0    0 -0.44417124724E+01  0.15199390624E+01  0.68522462192E+01  0.83061605263E+01  0.00000000000E+00 0.  1.
</event>
<event>
 8    1  0.2512298E-006  0.9118800E+02  0.7816164E-02  0.1184000E+00
        -11   -1    0    0    0    0  0.00000000000E+00  0.00000000000E+00  0.45593999997E+02  0.45594000000E+02  0.51100000000E-03 0. -1.
         11   -1    0    0    0    0 -0.00000000000E+00 -0.00000000000E+00 -0.45593999997E+02  0.45594000000E+02  0.51100000000E-03 0.  1.
         23    2    1    2    0    0  0.00000000000E+00  0.00000000000E+00  0.00000000000E+00  0.91188000000E+02  0.91188000000E+02 0.  0.
    9900012    2    3    3    0    0  0.15598492068E+01  0.26990683529E+02  0.24997010646E+02  0.54367072960E+02  0.39999974426E+02 0.  0.
        -12    1    3    3    0    0 -0.15598492068E+01 -0.26990683529E+02 -0.24997010646E+02  0.36820927040E+02  0.00000000000E+00 0.  1.
         11    1    4    4    0    0  0.19405786009E+00 -0.58759823674E+01  0.56802202113E+01  0.81749452075E+01  0.51100000000E-03 0. -1.
        -11    1    4    4    0    0 -0.96770945580E+01  0.40263694491E+01  0.84179165108E+01  0.13443181494E+02  0.51100000000E-03 0.  1.
         12    1    4    4    0    0  0.11042885905E+02  0.28840296447E+02  0.10898873924E+02  0.32748946259E+02  0.00000000000E+00 0. -1.
</event>
<event>
 8    1  0.2512298E-006  0.9118800E+02  0.7816164E-02  0.1184000E+00
        -11   -1    0    0    0    0  0.00000000000E+00  0.00000000000E+00  0.45593999997E+02  0.45594000000E+02  0.51100000000E-03 0.  1.
         11   -1    0    0    0    0 -0.00000000000E+00 -0.00000000000E+00 -0.45593999997E+02  0.45594000000E+02  0.51100000000E-03 0. -1.
         23    2    1    2    0    0  0.00000000000E+00  0.00000000000E+00 -0.13322676296E-14  0.91188000000E+02  0.91188000000E+02 0.  0.
    9900012    2    3    3    0    0  0.34785802569E+02  0.11457033858E+02 -0.38032137885E+01  0.54367080398E+02  0.39999991384E+02 0.  0.
         12    1    3    3    0    0 -0.34785802569E+02 -0.11457033858E+02  0.38032137885E+01  0.36820919602E+02  0.00000000000E+00 0. -1.
         11    1    4    4    0    0  0.33113757475E+02  0.12226231721E+01  0.21583247400E+00  0.33137023485E+02  0.51100000000E-03 0. -1.
        -11    1    4    4    0    0 -0.16943035652E+00  0.63745874879E+01  0.69647425938E+01  0.94430774616E+01  0.51100000000E-03 0.  1.
         12    1    4    4    0    0  0.18414754502E+01  0.38598231979E+01 -0.10983788856E+02  0.11786979452E+02  0.00000000000E+00 0. -1.
</event>
<event>
 8    1  0.2512298E-006  0.9118800E+02  0.7816164E-02  0.1184000E+00
        -11   -1    0    0    0    0  0.00000000000E+00  0.00000000000E+00  0.45593999997E+02  0.45594000000E+02  0.51100000000E-03 0.  1.
         11   -1    0    0    0    0 -0.00000000000E+00 -0.00000000000E+00 -0.45593999997E+02  0.45594000000E+02  0.51100000000E-03 0. -1.
         23    2    1    2    0    0  0.35527136788E-14  0.00000000000E+00 -0.88817841970E-15  0.91188000000E+02  0.91188000000E+02 0.  0.
    9900012    2    3    3    0    0 -0.31746139971E+02 -0.17667740469E+02  0.59842082219E+01  0.54367119995E+02  0.40000081652E+02 0.  0.
        -12    1    3    3    0    0  0.31746139971E+02  0.17667740469E+02 -0.59842082219E+01  0.36820880005E+02  0.00000000000E+00 0.  1.
         11    1    4    4    0    0  0.27109966389E+01 -0.70658768424E+01 -0.15839215134E+01  0.77320712587E+01  0.51100000000E-03 0. -1.
        -11    1    4    4    0    0 -0.28967480101E+02 -0.10863823367E+02  0.17309140796E+02  0.35450584154E+02  0.51100000000E-03 0.  1.
        -12    1    4    4    0    0 -0.54896565089E+01  0.26195974045E+00 -0.97410110606E+01  0.11184464581E+02  0.00000000000E+00 0.  1.
</event>
<event>
 8    1  0.2512298E-006  0.9118800E+02  0.7816164E-02  0.1184000E+00
        -11   -1    0    0    0    0  0.00000000000E+00  0.00000000000E+00  0.45593999997E+02  0.45594000000E+02  0.51100000000E-03 0. -1.
         11   -1    0    0    0    0 -0.00000000000E+00 -0.00000000000E+00 -0.45593999997E+02  0.45594000000E+02  0.51100000000E-03 0.  1.
         23    2    1    2    0    0  0.00000000000E+00 -0.35527136788E-14  0.17763568394E-14  0.91188000000E+02  0.91188000000E+02 0.  0.
    9900012    2    3    3    0    0  0.29830426667E+02  0.19163574463E+02 -0.99339202601E+01  0.54367085928E+02  0.40000003991E+02 0.  0.
         12    1    3    3    0    0 -0.29830426667E+02 -0.19163574463E+02  0.99339202601E+01  0.36820914072E+02  0.00000000000E+00 0. -1.
         11    1    4    4    0    0  0.19149073920E+02 -0.15099994225E+01  0.46755870669E+01  0.19769376443E+02  0.51100000000E-03 0. -1.
        -11    1    4    4    0    0  0.12719050899E+02  0.13055197390E+02 -0.26534521790E+00  0.18228627019E+02  0.51100000000E-03 0.  1.
        -12    1    4    4    0    0 -0.20376981518E+01  0.76183764955E+01 -0.14344162109E+02  0.16369082467E+02  0.00000000000E+00 0.  1.
</event>
<event>
 8    1  0.2512298E-006  0.9118800E+02  0.7816164E-02  0.1184000E+00
        -11   -1    0    0    0    0  0.00000000000E+00  0.00000000000E+00  0.45593999997E+02  0.45594000000E+02  0.51100000000E-03 0. -1.
         11   -1    0    0    0    0 -0.00000000000E+00 -0.00000000000E+00 -0.45593999997E+02  0.45594000000E+02  0.51100000000E-03 0.  1.
         23    2    1    2    0    0  0.00000000000E+00  0.00000000000E+00  0.00000000000E+00  0.91188000000E+02  0.91188000000E+02 0.  0.
    9900012    2    3    3    0    0 -0.27935343393E+02 -0.20633482189E+02 -0.12233442027E+02  0.54367067074E+02  0.39999961008E+02 0.  0.
        -12    1    3    3    0    0  0.27935343393E+02  0.20633482189E+02  0.12233442027E+02  0.36820932926E+02  0.00000000000E+00 0.  1.
         11    1    4    4    0    0  0.23661311762E+01  0.25287376307E+00  0.15770305046E+01  0.28547412066E+01  0.51100000000E-03 0. -1.
        -11    1    4    4    0    0 -0.17618953076E+02  0.63704858890E+01 -0.99176891220E+01  0.21198376253E+02  0.51100000000E-03 0.  1.
        -12    1    4    4    0    0 -0.12682521493E+02 -0.27256841841E+02 -0.38927834093E+01  0.30313949614E+02  0.00000000000E+00 0.  1.
</event>
<event>
 8    1  0.2512298E-006  0.9118800E+02  0.7816164E-02  0.1184000E+00
        -11   -1    0    0    0    0  0.00000000000E+00  0.00000000000E+00  0.45593999997E+02  0.45594000000E+02  0.51100000000E-03 0. -1.
         11   -1    0    0    0    0 -0.00000000000E+00 -0.00000000000E+00 -0.45593999997E+02  0.45594000000E+02  0.51100000000E-03 0.  1.
         23    2    1    2    0    0  0.17763568394E-14  0.35527136788E-14 -0.35527136788E-14  0.91188000000E+02  0.91188000000E+02 0.  0.
    9900012    2    3    3    0    0  0.13795562942E+02  0.30323039485E+02 -0.15683588717E+02  0.54367092413E+02  0.40000018773E+02 0.  0.
         12    1    3    3    0    0 -0.13795562942E+02 -0.30323039485E+02  0.15683588717E+02  0.36820907587E+02  0.00000000000E+00 0. -1.
         11    1    4    4    0    0  0.26328860475E+01  0.37784710884E+01 -0.44562852118E+01  0.64083859790E+01  0.51100000000E-03 0. -1.
        -11    1    4    4    0    0  0.77494812337E+01 -0.15170051361E+01 -0.17325360576E+02  0.19040059961E+02  0.51100000000E-03 0.  1.
         12    1    4    4    0    0  0.34131956610E+01  0.28061573533E+02  0.60980570708E+01  0.28918646473E+02  0.00000000000E+00 0. -1.
</event>
<event>
 8    1  0.2512298E-006  0.9118800E+02  0.7816164E-02  0.1184000E+00
        -11   -1    0    0    0    0  0.00000000000E+00  0.00000000000E+00  0.45593999997E+02  0.45594000000E+02  0.51100000000E-03 0.  1.
         11   -1    0    0    0    0 -0.00000000000E+00 -0.00000000000E+00 -0.45593999997E+02  0.45594000000E+02  0.51100000000E-03 0. -1.
         23    2    1    2    0    0 -0.35527136788E-14 -0.35527136788E-14  0.35527136788E-14  0.91188000000E+02  0.91188000000E+02 0.  0.
    9900012    2    3    3    0    0 -0.20124857567E+02 -0.24224178696E+02  0.19077718311E+02  0.54367081197E+02  0.39999993204E+02 0.  0.
         12    1    3    3    0    0  0.20124857567E+02  0.24224178696E+02 -0.19077718311E+02  0.36820918803E+02  0.00000000000E+00 0. -1.
         11    1    4    4    0    0 -0.17076795124E+02 -0.23840652991E+02 -0.17017491655E+01  0.29374982846E+02  0.51100000000E-03 0. -1.
        -11    1    4    4    0    0 -0.82070270087E+01 -0.43750440992E+00  0.15861857481E+02  0.17864636169E+02  0.51100000000E-03 0.  1.
         12    1    4    4    0    0  0.51589645655E+01  0.53978704663E-01  0.49176099946E+01  0.71274621815E+01  0.00000000000E+00 0. -1.
</event>
<event>
 8    1  0.2512298E-006  0.9118800E+02  0.7816164E-02  0.1184000E+00
        -11   -1    0    0    0    0  0.00000000000E+00  0.00000000000E+00  0.45593999997E+02  0.45594000000E+02  0.51100000000E-03 0.  1.
         11   -1    0    0    0    0 -0.00000000000E+00 -0.00000000000E+00 -0.45593999997E+02  0.45594000000E+02  0.51100000000E-03 0. -1.
         23    2    1    2    0    0  0.35527136788E-14 -0.71054273576E-14  0.44408920985E-15  0.91188000000E+02  0.91188000000E+02 0.  0.
    9900012    2    3    3    0    0 -0.31975717498E+02  0.17941155962E+02 -0.33835028711E+01  0.54367086399E+02  0.40000005063E+02 0.  0.
         12    1    3    3    0    0  0.31975717498E+02 -0.17941155962E+02  0.33835028711E+01  0.36820913601E+02  0.00000000000E+00 0. -1.
         11    1    4    4    0    0 -0.96022975668E+01 -0.11199988667E+02 -0.32844984429E+01  0.15113960268E+02  0.51100000000E-03 0. -1.
        -11    1    4    4    0    0 -0.36893637439E+00 -0.39002963482E+00 -0.22978472969E+01  0.23597329563E+01  0.51100000000E-03 0.  1.
        -12    1    4    4    0    0 -0.22004483557E+02  0.29531174263E+02  0.21988428687E+01  0.36893393174E+02  0.00000000000E+00 0.  1.
</event>
<event>
 8    1  0.2512298E-006  0.9118800E+02  0.7816164E-02  0.1184000E+00
        -11   -1    0    0    0    0  0.00000000000E+00  0.00000000000E+00  0.45593999997E+02  0.45594000000E+02  0.51100000000E-03 0. -1.
         11   -1    0    0    0    0 -0.00000000000E+00 -0.00000000000E+00 -0.45593999997E+02  0.45594000000E+02  0.51100000000E-03 0.  1.
         23    2    1    2    0    0  0.00000000000E+00  0.00000000000E+00  0.00000000000E+00  0.91188000000E+02  0.91188000000E+02 0.  0.
    9900012    2    3    3    0    0  0.21759724596E+02  0.27083879272E+02  0.12196761279E+02  0.54367039711E+02  0.39999898629E+02 0.  0.
         12    1    3    3    0    0 -0.21759724596E+02 -0.27083879272E+02 -0.12196761279E+02  0.36820960289E+02  0.00000000000E+00 0. -1.
         11    1    4    4    0    0  0.12938826189E+02  0.15874864827E+02  0.21992473756E+02  0.30051513416E+02  0.51100000000E-03 0. -1.
        -11    1    4    4    0    0  0.49929565983E+01 -0.39859528119E+01 -0.43385924094E+01  0.77227469055E+01  0.51100000000E-03 0.  1.
         12    1    4    4    0    0  0.38279418091E+01  0.15194967257E+02 -0.54571200678E+01  0.16592779389E+02  0.00000000000E+00 0. -1.
</event>
<event>
 8    1  0.2512298E-006  0.9118800E+02  0.7816164E-02  0.1184000E+00
        -11   -1    0    0    0    0  0.00000000000E+00  0.00000000000E+00  0.45593999997E+02  0.45594000000E+02  0.51100000000E-03 0. -1.
         11   -1    0    0    0    0 -0.00000000000E+00 -0.00000000000E+00 -0.45593999997E+02  0.45594000000E+02  0.51100000000E-03 0.  1.
         23    2    1    2    0    0  0.00000000000E+00  0.00000000000E+00 -0.88817841970E-15  0.91188000000E+02  0.91188000000E+02 0.  0.
    9900012    2    3    3    0    0  0.13822858274E+02  0.33591183542E+02 -0.60283638407E+01  0.54367079409E+02  0.39999989128E+02 0.  0.
         12    1    3    3    0    0 -0.13822858274E+02 -0.33591183542E+02  0.60283638407E+01  0.36820920591E+02  0.00000000000E+00 0. -1.
         11    1    4    4    0    0  0.57030231154E+01  0.60110178479E+00  0.81059933583E+01  0.99293969906E+01  0.51100000000E-03 0. -1.
        -11    1    4    4    0    0  0.95594017582E-01  0.17906360338E+02  0.51899617759E+01  0.18643566779E+02  0.51100000000E-03 0.  1.
         12    1    4    4    0    0  0.80242411411E+01  0.15083721419E+02 -0.19324318975E+02  0.25794115639E+02  0.00000000000E+00 0. -1.
</event>
<event>
 8    1  0.2512298E-006  0.9118800E+02  0.7816164E-02  0.1184000E+00
        -11   -1    0    0    0    0  0.00000000000E+00  0.00000000000E+00  0.45593999997E+02  0.45594000000E+02  0.51100000000E-03 0.  1.
         11   -1    0    0    0    0 -0.00000000000E+00 -0.00000000000E+00 -0.45593999997E+02  0.45594000000E+02  0.51100000000E-03 0. -1.
         23    2    1    2    0    0 -0.19984014443E-14  0.00000000000E+00 -0.71054273576E-14  0.91188000000E+02  0.91188000000E+02 0.  0.
    9900012    2    3    3    0    0 -0.10872668267E+01 -0.86207830109E+01 -0.35780998494E+02  0.54367083362E+02  0.39999998140E+02 0.  0.
        -12    1    3    3    0    0  0.10872668267E+01  0.86207830109E+01  0.35780998494E+02  0.36820916638E+02  0.00000000000E+00 0.  1.
         11    1    4    4    0    0  0.12611985616E+02 -0.10989606088E+02 -0.32255068138E+02  0.36334873661E+02  0.51100000000E-03 0. -1.
        -11    1    4    4    0    0 -0.37303160711E+00  0.75276897270E-01  0.29955373231E+01  0.30196131054E+01  0.51100000000E-03 0.  1.
         12    1    4    4    0    0 -0.13326220836E+02  0.22935461793E+01 -0.65214676790E+01  0.15012596595E+02  0.00000000000E+00 0. -1.
</event>
<event>
 8    1  0.2512298E-006  0.9118800E+02  0.7816164E-02  0.1184000E+00
        -11   -1    0    0    0    0  0.00000000000E+00  0.00000000000E+00  0.45593999997E+02  0.45594000000E+02  0.51100000000E-03 0.  1.
         11   -1    0    0    0    0 -0.00000000000E+00 -0.00000000000E+00 -0.45593999997E+02  0.45594000000E+02  0.51100000000E-03 0. -1.
         23    2    1    2    0    0  0.00000000000E+00  0.35527136788E-14 -0.33306690739E-15  0.91188000000E+02  0.91188000000E+02 0.  0.
    9900012    2    3    3    0    0 -0.28420705786E+02  0.23399191660E+02  0.72198971008E+00  0.54367082618E+02  0.39999996444E+02 0.  0.
         12    1    3    3    0    0  0.28420705786E+02 -0.23399191660E+02 -0.72198971008E+00  0.36820917382E+02  0.00000000000E+00 0. -1.
         11    1    4    4    0    0 -0.16563386994E+02 -0.16687847375E+01 -0.93823880404E+01  0.19109155838E+02  0.51100000000E-03 0. -1.
        -11    1    4    4    0    0 -0.14993854139E+02  0.20780004688E+02  0.13489500660E+02  0.28958433747E+02  0.51100000000E-03 0.  1.
         12    1    4    4    0    0  0.31365353469E+01  0.42879717091E+01 -0.33851229092E+01  0.62994930328E+01  0.00000000000E+00 0. -1.
</event>
<event>
 8    1  0.2512298E-006  0.9118800E+02  0.7816164E-02  0.1184000E+00
        -11   -1    0    0    0    0  0.00000000000E+00  0.00000000000E+00  0.45593999997E+02  0.45594000000E+02  0.51100000000E-03 0. -1.
         11   -1    0    0    0    0 -0.00000000000E+00 -0.00000000000E+00 -0.45593999997E+02  0.45594000000E+02  0.51100000000E-03 0.  1.
         23    2    1    2    0    0  0.00000000000E+00  0.00000000000E+00  0.00000000000E+00  0.91188000000E+02  0.91188000000E+02 0.  0.
    9900012    2    3    3    0    0 -0.16505630087E+02 -0.10387464351E+02 -0.31232097842E+02  0.54367093224E+02  0.40000020622E+02 0.  0.
         12    1    3    3    0    0  0.16505630087E+02  0.10387464351E+02  0.31232097842E+02  0.36820906776E+02  0.00000000000E+00 0. -1.
         11    1    4    4    0    0 -0.47305894919E+01  0.10432300119E+02 -0.51224885515E+01  0.12547958079E+02  0.51100000000E-03 0. -1.
        -11    1    4    4    0    0 -0.10176606923E+02 -0.22336340522E+02 -0.11609300580E+02  0.27152371841E+02  0.51100000000E-03 0.  1.
        -12    1    4    4    0    0 -0.15984336722E+01  0.15165760515E+01 -0.14500308710E+02  0.14666763304E+02  0.00000000000E+00 0.  1.
</event>
<event>
 8    1  0.2512298E-006  0.9118800E+02  0.7816164E-02  0.1184000E+00
        -11   -1    0    0    0    0  0.00000000000E+00  0.00000000000E+00  0.45593999997E+02  0.45594000000E+02  0.51100000000E-03 0.  1.
         11   -1    0    0    0    0 -0.00000000000E+00 -0.00000000000E+00 -0.45593999997E+02  0.45594000000E+02  0.51100000000E-03 0. -1.
         23    2    1    2    0    0  0.10658141036E-13 -0.35527136788E-14  0.88817841970E-15  0.91188000000E+02  0.91188000000E+02 0.  0.
    9900012    2    3    3    0    0  0.29691141491E+02 -0.21505487372E+02  0.34248204690E+01  0.54367092007E+02  0.40000017849E+02 0.  0.
         12    1    3    3    0    0 -0.29691141491E+02  0.21505487372E+02 -0.34248204690E+01  0.36820907993E+02  0.00000000000E+00 0. -1.
         11    1    4    4    0    0 -0.16681818549E+00 -0.20509079748E+00  0.10872694027E+01  0.11189484159E+01  0.51100000000E-03 0. -1.
        -11    1    4    4    0    0 -0.83863993194E+01 -0.10067868406E+02 -0.15718018027E+01  0.13197129573E+02  0.51100000000E-03 0.  1.
         12    1    4    4    0    0  0.38244358996E+02 -0.11232528168E+02  0.39093528689E+01  0.40051014019E+02  0.00000000000E+00 0. -1.
</event>
<event>
 8    1  0.2512298E-006  0.9118800E+02  0.7816164E-02  0.1184000E+00
        -11   -1    0    0    0    0  0.00000000000E+00  0.00000000000E+00  0.45593999997E+02  0.45594000000E+02  0.51100000000E-03 0. -1.
         11   -1    0    0    0    0 -0.00000000000E+00 -0.00000000000E+00 -0.45593999997E+02  0.45594000000E+02  0.51100000000E-03 0.  1.
         23    2    1    2    0    0  0.00000000000E+00  0.00000000000E+00  0.00000000000E+00  0.91188000000E+02  0.91188000000E+02 0.  0.
    9900012    2    3    3    0    0 -0.19432891971E+02  0.86914473190E+01  0.30043322409E+02  0.54367085180E+02  0.40000002284E+02 0.  0.
        -12    1    3    3    0    0  0.19432891971E+02 -0.86914473190E+01 -0.30043322409E+02  0.36820914820E+02  0.00000000000E+00 0.  1.
         11    1    4    4    0    0 -0.99670643878E+01  0.20527931133E+02  0.18678901063E+02  0.29489653682E+02  0.51100000000E-03 0. -1.
        -11    1    4    4    0    0 -0.68631046868E+01  0.19811309354E+01  0.59819065557E+00  0.71683274233E+01  0.51100000000E-03 0.  1.
         12    1    4    4    0    0 -0.26027228969E+01 -0.13817614749E+02  0.10766230690E+02  0.17709104074E+02  0.00000000000E+00 0. -1.
</event>
<event>
 8    1  0.2512298E-006  0.9118800E+02  0.7816164E-02  0.1184000E+00
        -11   -1    0    0    0    0  0.00000000000E+00  0.00000000000E+00  0.45593999997E+02  0.45594000000E+02  0.51100000000E-03 0.  1.
         11   -1    0    0    0    0 -0.00000000000E+00 -0.00000000000E+00 -0.45593999997E+02  0.45594000000E+02  0.51100000000E-03 0. -1.
         23    2    1    2    0    0  0.00000000000E+00  0.66613381478E-15 -0.71054273576E-14  0.91188000000E+02  0.91188000000E+02 0.  0.
    9900012    2    3    3    0    0  0.11263527717E+02 -0.10944012667E+01  0.35038621393E+02  0.54367221085E+02  0.40000312107E+02 0.  0.
         12    1    3    3    0    0 -0.11263527717E+02  0.10944012667E+01 -0.35038621393E+02  0.36820778915E+02  0.00000000000E+00 0. -1.
         11    1    4    4    0    0  0.24196130771E+01 -0.45279232074E+01 -0.52451505265E+01  0.73394972799E+01  0.51100000000E-03 0. -1.
        -11    1    4    4    0    0  0.12848854516E+02 -0.14338147879E+01  0.10706427082E+02  0.16786198746E+02  0.51100000000E-03 0.  1.
        -12    1    4    4    0    0 -0.40049398768E+01  0.48673367286E+01  0.29577344838E+02  0.30241525059E+02  0.00000000000E+00 0.  1.
</event>
<event>
 8    1  0.2512298E-006  0.9118800E+02  0.7816164E-02  0.1184000E+00
        -11   -1    0    0    0    0  0.00000000000E+00  0.00000000000E+00  0.45593999997E+02  0.45594000000E+02  0.51100000000E-03 0.  1.
         11   -1    0    0    0    0 -0.00000000000E+00 -0.00000000000E+00 -0.45593999997E+02  0.45594000000E+02  0.51100000000E-03 0. -1.
         23    2    1    2    0    0  0.35527136788E-14  0.35527136788E-14 -0.88817841970E-15  0.91188000000E+02  0.91188000000E+02 0.  0.
    9900012    2    3    3    0    0  0.27335484416E+02  0.24464675946E+02  0.31670713532E+01  0.54367089930E+02  0.40000013114E+02 0.  0.
        -12    1    3    3    0    0 -0.27335484416E+02 -0.24464675946E+02 -0.31670713532E+01  0.36820910070E+02  0.00000000000E+00 0.  1.
         11    1    4    4    0    0  0.25335768045E+02  0.48319253261E+01 -0.10350944661E+01  0.25813176201E+02  0.51100000000E-03 0. -1.
        -11    1    4    4    0    0  0.23900532138E+01  0.80325457866E+00  0.88109760782E+01  0.91646534029E+01  0.51100000000E-03 0.  1.
        -12    1    4    4    0    0 -0.39033684187E+00  0.18829496041E+02 -0.46088102589E+01  0.19389260326E+02  0.00000000000E+00 0.  1.
</event>
<event>
 8    1  0.2512298E-006  0.9118800E+02  0.7816164E-02  0.1184000E+00
        -11   -1    0    0    0    0  0.00000000000E+00  0.00000000000E+00  0.45593999997E+02  0.45594000000E+02  0.51100000000E-03 0. -1.
         11   -1    0    0    0    0 -0.00000000000E+00 -0.00000000000E+00 -0.45593999997E+02  0.45594000000E+02  0.51100000000E-03 0.  1.
         23    2    1    2    0    0  0.35527136788E-14  0.44408920985E-15  0.35527136788E-14  0.91188000000E+02  0.91188000000E+02 0.  0.
    9900012    2    3    3    0    0 -0.26725932362E+02 -0.10520491604E+01  0.25306079792E+02  0.54367082813E+02  0.39999996889E+02 0.  0.
        -12    1    3    3    0    0  0.26725932362E+02  0.10520491604E+01 -0.25306079792E+02  0.36820917187E+02  0.00000000000E+00 0.  1.
         11    1    4    4    0    0 -0.60332199072E+00 -0.10797986827E+01  0.13682909646E+02  0.13738703696E+02  0.51100000000E-03 0. -1.
        -11    1    4    4    0    0 -0.21309677831E+02  0.10786504683E+02 -0.26820279929E+00  0.23885622988E+02  0.51100000000E-03 0.  1.
        -12    1    4    4    0    0 -0.48129325399E+01 -0.10758755161E+02  0.11891372946E+02  0.16742756129E+02  0.00000000000E+00 0.  1.
</event>
<event>
 8    1  0.2512298E-006  0.9118800E+02  0.7816164E-02  0.1184000E+00
        -11   -1    0    0    0    0  0.00000000000E+00  0.00000000000E+00  0.45593999997E+02  0.45594000000E+02  0.51100000000E-03 0.  1.
         11   -1    0    0    0    0 -0.00000000000E+00 -0.00000000000E+00 -0.45593999997E+02  0.45594000000E+02  0.51100000000E-03 0. -1.
         23    2    1    2    0    0 -0.35527136788E-14  0.00000000000E+00  0.88817841970E-15  0.91188000000E+02  0.91188000000E+02 0.  0.
    9900012    2    3    3    0    0 -0.19710291999E+02 -0.30870948886E+02  0.37773130705E+01  0.54367093033E+02  0.40000020188E+02 0.  0.
         12    1    3    3    0    0  0.19710291999E+02  0.30870948886E+02 -0.37773130705E+01  0.36820906967E+02  0.00000000000E+00 0. -1.
         11    1    4    4    0    0  0.57372724869E+01 -0.24562763100E+01 -0.62214486241E+01  0.88122648702E+01  0.51100000000E-03 0. -1.
        -11    1    4    4    0    0 -0.19759392410E+02 -0.13258076811E+02 -0.40290633753E+01  0.24133867098E+02  0.51100000000E-03 0.  1.
        -12    1    4    4    0    0 -0.56881720758E+01 -0.15156595766E+02  0.14027825070E+02  0.21420961065E+02  0.00000000000E+00 0.  1.
</event>
<event>
 8    1  0.2512298E-006  0.9118800E+02  0.7816164E-02  0.1184000E+00
        -11   -1    0    0    0    0  0.00000000000E+00  0.00000000000E+00  0.45593999997E+02  0.45594000000E+02  0.51100000000E-03 0. -1.
         11   -1    0    0    0    0 -0.00000000000E+00 -0.00000000000E+00 -0.45593999997E+02  0.45594000000E+02  0.51100000000E-03 0.  1.
         23    2    1    2    0    0  0.00000000000E+00  0.00000000000E+00 -0.35527136788E-14  0.91188000000E+02  0.91188000000E+02 0.  0.
    9900012    2    3    3    0    0 -0.21799146051E+02 -0.95789079676E+01 -0.28085967971E+02  0.54367084160E+02  0.39999999960E+02 0.  0.
         12    1    3    3    0    0  0.21799146051E+02  0.95789079676E+01  0.28085967971E+02  0.36820915840E+02  0.00000000000E+00 0. -1.
         11    1    4    4    0    0  0.33363820043E+01  0.16728388784E+01 -0.17608742470E+02  0.17999934623E+02  0.51100000000E-03 0. -1.
        -11    1    4    4    0    0 -0.21268145814E+02 -0.13691601359E+00 -0.12128017171E+02  0.24483495934E+02  0.51100000000E-03 0.  1.
        -12    1    4    4    0    0 -0.38673822410E+01 -0.11114830832E+02  0.16507916702E+01  0.11883653604E+02  0.00000000000E+00 0.  1.
</event>
<event>
 8    1  0.2512298E-006  0.9118800E+02  0.7816164E-02  0.1184000E+00
        -11   -1    0    0    0    0  0.00000000000E+00  0.00000000000E+00  0.45593999997E+02  0.45594000000E+02  0.51100000000E-03 0.  1.
         11   -1    0    0    0    0 -0.00000000000E+00 -0.00000000000E+00 -0.45593999997E+02  0.45594000000E+02  0.51100000000E-03 0. -1.
         23    2    1    2    0    0  0.17763568394E-14  0.00000000000E+00 -0.88817841970E-15  0.91188000000E+02  0.91188000000E+02 0.  0.
    9900012    2    3    3    0    0 -0.13451798278E+02  0.33864021540E+02  0.52970209956E+01  0.54367064879E+02  0.39999956004E+02 0.  0.
         12    1    3    3    0    0  0.13451798278E+02 -0.33864021540E+02 -0.52970209956E+01  0.36820935121E+02  0.00000000000E+00 0. -1.
         11    1    4    4    0    0 -0.99149396116E+01  0.19447706527E+02 -0.67633380529E+01  0.22853053593E+02  0.51100000000E-03 0. -1.
        -11    1    4    4    0    0 -0.52279786636E+00  0.20515739186E+02  0.13493760689E+02  0.24561157338E+02  0.51100000000E-03 0.  1.
        -12    1    4    4    0    0 -0.30140608002E+01 -0.60994241736E+01 -0.14334016401E+01  0.69528539478E+01  0.00000000000E+00 0.  1.
</event>
<event>
 8    1  0.2512298E-006  0.9118800E+02  0.7816164E-02  0.1184000E+00
        -11   -1    0    0    0    0  0.00000000000E+00  0.00000000000E+00  0.45593999997E+02  0.45594000000E+02  0.51100000000E-03 0. -1.
         11   -1    0    0    0    0 -0.00000000000E+00 -0.00000000000E+00 -0.45593999997E+02  0.45594000000E+02  0.51100000000E-03 0.  1.
         23    2    1    2    0    0  0.00000000000E+00  0.00000000000E+00  0.35527136788E-14  0.91188000000E+02  0.91188000000E+02 0.  0.
    9900012    2    3    3    0    0  0.93903516438E+01  0.21277174692E+02 -0.28546154853E+02  0.54367084426E+02  0.40000000565E+02 0.  0.
         12    1    3    3    0    0 -0.93903516438E+01 -0.21277174692E+02  0.28546154853E+02  0.36820915574E+02  0.00000000000E+00 0. -1.
         11    1    4    4    0    0 -0.23839314174E+01 -0.33298929781E+01 -0.25215874401E+00  0.41030355277E+01  0.51100000000E-03 0. -1.
        -11    1    4    4    0    0  0.72831761693E+01  0.31887022544E+02 -0.19937028238E+02  0.38305508181E+02  0.51100000000E-03 0.  1.
        -12    1    4    4    0    0  0.44911068920E+01 -0.72799548736E+01 -0.83569678706E+01  0.11958540716E+02  0.00000000000E+00 0.  1.
</event>
<event>
 8    1  0.2512298E-006  0.9118800E+02  0.7816164E-02  0.1184000E+00
        -11   -1    0    0    0    0  0.00000000000E+00  0.00000000000E+00  0.45593999997E+02  0.45594000000E+02  0.51100000000E-03 0.  1.
         11   -1    0    0    0    0 -0.00000000000E+00 -0.00000000000E+00 -0.45593999997E+02  0.45594000000E+02  0.51100000000E-03 0. -1.
         23    2    1    2    0    0  0.13877787808E-15  0.88817841970E-15  0.00000000000E+00  0.91188000000E+02  0.91188000000E+02 0.  0.
    9900012    2    3    3    0    0  0.12102907237E+00 -0.38866000037E+01 -0.36615017804E+02  0.54367084253E+02  0.40000000172E+02 0.  0.
        -12    1    3    3    0    0 -0.12102907237E+00  0.38866000037E+01  0.36615017804E+02  0.36820915747E+02  0.00000000000E+00 0.  1.
         11    1    4    4    0    0 -0.21000661978E+01 -0.84622325046E+01 -0.35988734669E+02  0.37029835003E+02  0.51100000000E-03 0. -1.
        -11    1    4    4    0    0  0.74700194172E+01 -0.23767076435E+01 -0.28595343761E+01  0.83442714736E+01  0.51100000000E-03 0.  1.
        -12    1    4    4    0    0 -0.52489241470E+01  0.69523401443E+01  0.22332512413E+01  0.89929777766E+01  0.00000000000E+00 0.  1.
</event>
<event>
 8    1  0.2512298E-006  0.9118800E+02  0.7816164E-02  0.1184000E+00
        -11   -1    0    0    0    0  0.00000000000E+00  0.00000000000E+00  0.45593999997E+02  0.45594000000E+02  0.51100000000E-03 0.  1.
         11   -1    0    0    0    0 -0.00000000000E+00 -0.00000000000E+00 -0.45593999997E+02  0.45594000000E+02  0.51100000000E-03 0. -1.
         23    2    1    2    0    0  0.00000000000E+00  0.35527136788E-14  0.00000000000E+00  0.91188000000E+02  0.91188000000E+02 0.  0.
    9900012    2    3    3    0    0  0.24876788625E+02 -0.23444779811E+02  0.13684630212E+02  0.54367062794E+02  0.39999951252E+02 0.  0.
         12    1    3    3    0    0 -0.24876788625E+02  0.23444779811E+02 -0.13684630212E+02  0.36820937206E+02  0.00000000000E+00 0. -1.
         11    1    4    4    0    0  0.10323779570E+02  0.10983044559E+02  0.29862844775E+01  0.15366378481E+02  0.51100000000E-03 0. -1.
        -11    1    4    4    0    0  0.31085493915E+01 -0.10417086028E+02  0.38720119554E+01  0.11539984293E+02  0.51100000000E-03 0.  1.
         12    1    4    4    0    0  0.11444459664E+02 -0.24010738342E+02  0.68263337794E+01  0.27460700020E+02  0.00000000000E+00 0. -1.
</event>
<event>
 8    1  0.2512298E-006  0.9118800E+02  0.7816164E-02  0.1184000E+00
        -11   -1    0    0    0    0  0.00000000000E+00  0.00000000000E+00  0.45593999997E+02  0.45594000000E+02  0.51100000000E-03 0.  1.
         11   -1    0    0    0    0 -0.00000000000E+00 -0.00000000000E+00 -0.45593999997E+02  0.45594000000E+02  0.51100000000E-03 0. -1.
         23    2    1    2    0    0  0.00000000000E+00  0.00000000000E+00 -0.35527136788E-14  0.91188000000E+02  0.91188000000E+02 0.  0.
    9900012    2    3    3    0    0  0.33515593618E+02  0.57742647166E+01  0.14111824746E+02  0.54367071898E+02  0.39999972006E+02 0.  0.
         12    1    3    3    0    0 -0.33515593618E+02 -0.57742647166E+01 -0.14111824746E+02  0.36820928102E+02  0.00000000000E+00 0. -1.
         11    1    4    4    0    0 -0.28505704185E+01 -0.47796296089E+01  0.24266391744E+00  0.55704126370E+01  0.51100000000E-03 0. -1.
        -11    1    4    4    0    0  0.13629241206E+02 -0.90021025661E+01  0.16649630833E+01  0.16418470355E+02  0.51100000000E-03 0.  1.
         12    1    4    4    0    0  0.22736922831E+02  0.19555996892E+02  0.12204197745E+02  0.32378188906E+02  0.00000000000E+00 0. -1.
</event>
<event>
 8    1  0.2512298E-006  0.9118800E+02  0.7816164E-02  0.1184000E+00
        -11   -1    0    0    0    0  0.00000000000E+00  0.00000000000E+00  0.45593999997E+02  0.45594000000E+02  0.51100000000E-03 0. -1.
         11   -1    0    0    0    0 -0.00000000000E+00 -0.00000000000E+00 -0.45593999997E+02  0.45594000000E+02  0.51100000000E-03 0.  1.
         23    2    1    2    0    0  0.00000000000E+00  0.00000000000E+00  0.00000000000E+00  0.91188000000E+02  0.91188000000E+02 0.  0.
    9900012    2    3    3    0    0 -0.18427475618E+02  0.25953043052E+02  0.18510727240E+02  0.54367091208E+02  0.40000016027E+02 0.  0.
        -12    1    3    3    0    0  0.18427475618E+02 -0.25953043052E+02 -0.18510727240E+02  0.36820908792E+02  0.00000000000E+00 0.  1.
         11    1    4    4    0    0  0.16045752838E+01  0.12124402095E+02  0.65033132052E+00  0.12247396421E+02  0.51100000000E-03 0. -1.
        -11    1    4    4    0    0 -0.22263613557E+02 -0.16615123882E+01  0.12440546400E+02  0.25557705433E+02  0.51100000000E-03 0.  1.
        -12    1    4    4    0    0  0.22315626552E+01  0.15490153345E+02  0.54198495199E+01  0.16561989354E+02  0.00000000000E+00 0.  1.
</event>
<event>
 8    1  0.2512298E-006  0.9118800E+02  0.7816164E-02  0.1184000E+00
        -11   -1    0    0    0    0  0.00000000000E+00  0.00000000000E+00  0.45593999997E+02  0.45594000000E+02  0.51100000000E-03 0.  1.
         11   -1    0    0    0    0 -0.00000000000E+00 -0.00000000000E+00 -0.45593999997E+02  0.45594000000E+02  0.51100000000E-03 0. -1.
         23    2    1    2    0    0 -0.35527136788E-14  0.00000000000E+00  0.00000000000E+00  0.91188000000E+02  0.91188000000E+02 0.  0.
    9900012    2    3    3    0    0 -0.25568055352E+02 -0.12534360647E+02 -0.23343961359E+02  0.54367133861E+02  0.40000113262E+02 0.  0.
        -12    1    3    3    0    0  0.25568055352E+02  0.12534360647E+02  0.23343961359E+02  0.36820866139E+02  0.00000000000E+00 0.  1.
         11    1    4    4    0    0 -0.13897476340E+02 -0.23367956941E+02 -0.31275017169E+01  0.27367545149E+02  0.51100000000E-03 0. -1.
        -11    1    4    4    0    0 -0.29069975601E+01 -0.10836106426E+01 -0.33876425187E+01  0.45935790986E+01  0.51100000000E-03 0.  1.
        -12    1    4    4    0    0 -0.87635814515E+01  0.11917206936E+02 -0.16828817124E+02  0.22406009614E+02  0.00000000000E+00 0.  1.
</event>
<event>
 8    1  0.2512298E-006  0.9118800E+02  0.7816164E-02  0.1184000E+00
        -11   -1    0    0    0    0  0.00000000000E+00  0.00000000000E+00  0.45593999997E+02  0.45594000000E+02  0.51100000000E-03 0. -1.
         11   -1    0    0    0    0 -0.00000000000E+00 -0.00000000000E+00 -0.45593999997E+02  0.45594000000E+02  0.51100000000E-03 0.  1.
         23    2    1    2    0    0  0.00000000000E+00  0.35527136788E-14 -0.35527136788E-14  0.91188000000E+02  0.91188000000E+02 0.  0.
    9900012    2    3    3    0    0  0.20505044793E+02 -0.23132265905E+02  0.20005538053E+02  0.54367080123E+02  0.39999990755E+02 0.  0.
        -12    1    3    3    0    0 -0.20505044793E+02  0.23132265905E+02 -0.20005538053E+02  0.36820919877E+02  0.00000000000E+00 0.  1.
         11    1    4    4    0    0  0.12083164423E+02 -0.13967683659E+02  0.24272040786E+02  0.30499688744E+02  0.51100000000E-03 0. -1.
        -11    1    4    4    0    0 -0.56916451131E+01 -0.16113591252E+01  0.25845646047E+01  0.64553293318E+01  0.51100000000E-03 0.  1.
         12    1    4    4    0    0  0.14113525483E+02 -0.75532231201E+01 -0.68510673381E+01  0.17412062047E+02  0.00000000000E+00 0. -1.
</event>
<event>
 8    1  0.2512298E-006  0.9118800E+02  0.7816164E-02  0.1184000E+00
        -11   -1    0    0    0    0  0.00000000000E+00  0.00000000000E+00  0.45593999997E+02  0.45594000000E+02  0.51100000000E-03 0.  1.
         11   -1    0    0    0    0 -0.00000000000E+00 -0.00000000000E+00 -0.45593999997E+02  0.45594000000E+02  0.51100000000E-03 0. -1.
         23    2    1    2    0    0  0.00000000000E+00  0.00000000000E+00 -0.17763568394E-14  0.91188000000E+02  0.91188000000E+02 0.  0.
    9900012    2    3    3    0    0  0.15866405466E+02 -0.30525504375E+02  0.13123541641E+02  0.54367128405E+02  0.40000100825E+02 0.  0.
         12    1    3    3    0    0 -0.15866405466E+02  0.30525504375E+02 -0.13123541641E+02  0.36820871595E+02  0.00000000000E+00 0. -1.
         11    1    4    4    0    0 -0.20896800343E+01 -0.67035406016E+01 -0.54362787135E+01  0.88801658631E+01  0.51100000000E-03 0. -1.
        -11    1    4    4    0    0 -0.61341211270E+01 -0.14333875109E+02  0.59479093718E+01  0.16687271910E+02  0.51100000000E-03 0.  1.
        -12    1    4    4    0    0  0.24090206628E+02 -0.94880886646E+01  0.12611910983E+02  0.28799690632E+02  0.00000000000E+00 0.  1.
</event>
<event>
 8    1  0.2512298E-006  0.9118800E+02  0.7816164E-02  0.1184000E+00
        -11   -1    0    0    0    0  0.00000000000E+00  0.00000000000E+00  0.45593999997E+02  0.45594000000E+02  0.51100000000E-03 0. -1.
         11   -1    0    0    0    0 -0.00000000000E+00 -0.00000000000E+00 -0.45593999997E+02  0.45594000000E+02  0.51100000000E-03 0.  1.
         23    2    1    2    0    0  0.44408920985E-15 -0.17763568394E-14  0.00000000000E+00  0.91188000000E+02  0.91188000000E+02 0.  0.
    9900012    2    3    3    0    0  0.37456283090E+01 -0.13826790557E+02 -0.33920053183E+02  0.54367083710E+02  0.39999998933E+02 0.  0.
         12    1    3    3    0    0 -0.37456283090E+01  0.13826790557E+02  0.33920053183E+02  0.36820916290E+02  0.00000000000E+00 0. -1.
         11    1    4    4    0    0  0.16942792480E+02 -0.44794147702E+01 -0.62800984763E+01  0.18616202911E+02  0.51100000000E-03 0. -1.
        -11    1    4    4    0    0 -0.78402297268E+01  0.22291372797E+01 -0.18008399279E+02  0.19767162165E+02  0.51100000000E-03 0.  1.
        -12    1    4    4    0    0 -0.53569344439E+01 -0.11576513067E+02 -0.96315554270E+01  0.15983718634E+02  0.00000000000E+00 0.  1.
</event>
<event>
 8    1  0.2512298E-006  0.9118800E+02  0.7816164E-02  0.1184000E+00
        -11   -1    0    0    0    0  0.00000000000E+00  0.00000000000E+00  0.45593999997E+02  0.45594000000E+02  0.51100000000E-03 0.  1.
         11   -1    0    0    0    0 -0.00000000000E+00 -0.00000000000E+00 -0.45593999997E+02  0.45594000000E+02  0.51100000000E-03 0. -1.
         23    2    1    2    0    0 -0.44408920985E-15  0.00000000000E+00  0.00000000000E+00  0.91188000000E+02  0.91188000000E+02 0.  0.
    9900012    2    3    3    0    0 -0.23573297612E+01  0.30931144291E+02 -0.19836494078E+02  0.54367093058E+02  0.40000020244E+02 0.  0.
         12    1    3    3    0    0  0.23573297612E+01 -0.30931144291E+02  0.19836494078E+02  0.36820906942E+02  0.00000000000E+00 0. -1.
         11    1    4    4    0    0 -0.10951556378E+02  0.19415988574E+02 -0.14842981754E+02  0.26781174489E+02  0.51100000000E-03 0. -1.
        -11    1    4    4    0    0 -0.62521782546E+01  0.19797966938E+01  0.41014312677E+01  0.77350544006E+01  0.51100000000E-03 0.  1.
        -12    1    4    4    0    0  0.14846404871E+02  0.95353590235E+01 -0.90949435915E+01  0.19850864169E+02  0.00000000000E+00 0.  1.
</event>
<event>
 8    1  0.2512298E-006  0.9118800E+02  0.7816164E-02  0.1184000E+00
        -11   -1    0    0    0    0  0.00000000000E+00  0.00000000000E+00  0.45593999997E+02  0.45594000000E+02  0.51100000000E-03 0.  1.
         11   -1    0    0    0    0 -0.00000000000E+00 -0.00000000000E+00 -0.45593999997E+02  0.45594000000E+02  0.51100000000E-03 0. -1.
         23    2    1    2    0    0  0.00000000000E+00 -0.35527136788E-14  0.00000000000E+00  0.91188000000E+02  0.91188000000E+02 0.  0.
    9900012    2    3    3    0    0  0.18999170627E+02  0.19402156831E+02  0.24867029345E+02  0.54367064071E+02  0.39999954163E+02 0.  0.
         12    1    3    3    0    0 -0.18999170627E+02 -0.19402156831E+02 -0.24867029345E+02  0.36820935929E+02  0.00000000000E+00 0. -1.
         11    1    4    4    0    0 -0.64919510352E+00 -0.54209568285E+01  0.78447420201E+01  0.95576254813E+01  0.51100000000E-03 0.  1.
        -11    1    4    4    0    0 -0.52404396920E+01  0.38076366807E+01 -0.23721901668E+01  0.68983760195E+01  0.51100000000E-03 0. -1.
        -12    1    4    4    0    0  0.24888805423E+02  0.21015476979E+02  0.19394477492E+02  0.37911062570E+02  0.00000000000E+00 0.  1.
</event>
<event>
 8    1  0.2512298E-006  0.9118800E+02  0.7816164E-02  0.1184000E+00
        -11   -1    0    0    0    0  0.00000000000E+00  0.00000000000E+00  0.45593999997E+02  0.45594000000E+02  0.51100000000E-03 0.  1.
         11   -1    0    0    0    0 -0.00000000000E+00 -0.00000000000E+00 -0.45593999997E+02  0.45594000000E+02  0.51100000000E-03 0. -1.
         23    2    1    2    0    0  0.71054273576E-14 -0.15543122345E-14  0.00000000000E+00  0.91188000000E+02  0.91188000000E+02 0.  0.
    9900012    2    3    3    0    0  0.28793320390E+02  0.14470647009E+01 -0.22904841962E+02  0.54367067358E+02  0.39999961657E+02 0.  0.
        -12    1    3    3    0    0 -0.28793320390E+02 -0.14470647009E+01  0.22904841962E+02  0.36820932642E+02  0.00000000000E+00 0.  1.
         11    1    4    4    0    0  0.32643781927E+02  0.13180029920E+02 -0.12859794498E+02  0.37479381024E+02  0.51100000000E-03 0. -1.
        -11    1    4    4    0    0 -0.95538496158E+00 -0.15032533300E+01 -0.46212206175E+01  0.49525964155E+01  0.51100000000E-03 0.  1.
         12    1    4    4    0    0 -0.28950765756E+01 -0.10229711889E+02 -0.54238268460E+01  0.11935089918E+02  0.00000000000E+00 0. -1.
</event>
<event>
 8    1  0.2512298E-006  0.9118800E+02  0.7816164E-02  0.1184000E+00
        -11   -1    0    0    0    0  0.00000000000E+00  0.00000000000E+00  0.45593999997E+02  0.45594000000E+02  0.51100000000E-03 0.  1.
         11   -1    0    0    0    0 -0.00000000000E+00 -0.00000000000E+00 -0.45593999997E+02  0.45594000000E+02  0.51100000000E-03 0. -1.
         23    2    1    2    0    0 -0.71054273576E-14 -0.17763568394E-14  0.17763568394E-14  0.91188000000E+02  0.91188000000E+02 0.  0.
    9900012    2    3    3    0    0 -0.33856571246E+02 -0.10750161232E+02  0.96925666557E+01  0.54367092469E+02  0.40000018902E+02 0.  0.
         12    1    3    3    0    0  0.33856571246E+02  0.10750161232E+02 -0.96925666557E+01  0.36820907531E+02  0.00000000000E+00 0. -1.
         11    1    4    4    0    0  0.53121650858E+01 -0.12466164587E+02  0.12321566273E+01  0.13606710390E+02  0.51100000000E-03 0. -1.
        -11    1    4    4    0    0 -0.20036790687E+02 -0.27444852021E+00  0.79613051610E+00  0.20054478978E+02  0.51100000000E-03 0.  1.
         12    1    4    4    0    0 -0.19131945645E+02  0.19904518759E+01  0.76642795123E+01  0.20705903102E+02  0.00000000000E+00 0. -1.
</event>
<event>
 8    1  0.2512298E-006  0.9118800E+02  0.7816164E-02  0.1184000E+00
        -11   -1    0    0    0    0  0.00000000000E+00  0.00000000000E+00  0.45593999997E+02  0.45594000000E+02  0.51100000000E-03 0. -1.
         11   -1    0    0    0    0 -0.00000000000E+00 -0.00000000000E+00 -0.45593999997E+02  0.45594000000E+02  0.51100000000E-03 0.  1.
         23    2    1    2    0    0  0.00000000000E+00  0.00000000000E+00  0.00000000000E+00  0.91188000000E+02  0.91188000000E+02 0.  0.
    9900012    2    3    3    0    0  0.18407177885E+02 -0.30986106105E+02  0.75376827069E+01  0.54367087059E+02  0.40000006568E+02 0.  0.
        -12    1    3    3    0    0 -0.18407177885E+02  0.30986106105E+02 -0.75376827069E+01  0.36820912941E+02  0.00000000000E+00 0.  1.
         11    1    4    4    0    0  0.66326543014E+01 -0.99995519373E+01 -0.27040744674E+01  0.12300209796E+02  0.51100000000E-03 0. -1.
        -11    1    4    4    0    0 -0.97812076068E+01  0.80036423273E+00  0.48536420951E+01  0.10948536295E+02  0.51100000000E-03 0.  1.
        -12    1    4    4    0    0  0.21555731190E+02 -0.21786918400E+02  0.53881150793E+01  0.31118340968E+02  0.00000000000E+00 0.  1.
</event>
<event>
 8    1  0.2512298E-006  0.9118800E+02  0.7816164E-02  0.1184000E+00
        -11   -1    0    0    0    0  0.00000000000E+00  0.00000000000E+00  0.45593999997E+02  0.45594000000E+02  0.51100000000E-03 0.  1.
         11   -1    0    0    0    0 -0.00000000000E+00 -0.00000000000E+00 -0.45593999997E+02  0.45594000000E+02  0.51100000000E-03 0. -1.
         23    2    1    2    0    0 -0.35527136788E-14  0.00000000000E+00 -0.88817841970E-15  0.91188000000E+02  0.91188000000E+02 0.  0.
    9900012    2    3    3    0    0  0.28558393806E+02  0.22749756356E+02 -0.47588452644E+01  0.54367083671E+02  0.39999998845E+02 0.  0.
        -12    1    3    3    0    0 -0.28558393806E+02 -0.22749756356E+02  0.47588452644E+01  0.36820916329E+02  0.00000000000E+00 0.  1.
         11    1    4    4    0    0  0.23414803920E+02  0.21705040938E+02 -0.79813250536E+01  0.32909928511E+02  0.51100000000E-03 0. -1.
        -11    1    4    4    0    0  0.40885087122E+01  0.74216173269E+01  0.93027079655E+01  0.12583190493E+02  0.51100000000E-03 0.  1.
         12    1    4    4    0    0  0.10550811742E+01 -0.63769019083E+01 -0.60802281763E+01  0.88739646668E+01  0.00000000000E+00 0. -1.
</event>
<event>
 8    1  0.2512298E-006  0.9118800E+02  0.7816164E-02  0.1184000E+00
        -11   -1    0    0    0    0  0.00000000000E+00  0.00000000000E+00  0.45593999997E+02  0.45594000000E+02  0.51100000000E-03 0.  1.
         11   -1    0    0    0    0 -0.00000000000E+00 -0.00000000000E+00 -0.45593999997E+02  0.45594000000E+02  0.51100000000E-03 0. -1.
         23    2    1    2    0    0 -0.13322676296E-14  0.00000000000E+00  0.35527136788E-14  0.91188000000E+02  0.91188000000E+02 0.  0.
    9900012    2    3    3    0    0 -0.33633611322E+01 -0.26021568971E+02  0.25833025230E+02  0.54367089604E+02  0.40000012371E+02 0.  0.
         12    1    3    3    0    0  0.33633611322E+01  0.26021568971E+02 -0.25833025230E+02  0.36820910396E+02  0.00000000000E+00 0. -1.
         11    1    4    4    0    0  0.58553160061E+01 -0.89301426413E+01  0.56515082673E+01  0.12081875644E+02  0.51100000000E-03 0. -1.
        -11    1    4    4    0    0  0.56654564303E+01  0.24108299681E+01 -0.43908609411E+01  0.75623513384E+01  0.51100000000E-03 0.  1.
        -12    1    4    4    0    0 -0.14884133569E+02 -0.19502256298E+02  0.24572377904E+02  0.34722862622E+02  0.00000000000E+00 0.  1.
</event>
<event>
 8    1  0.2512298E-006  0.9118800E+02  0.7816164E-02  0.1184000E+00
        -11   -1    0    0    0    0  0.00000000000E+00  0.00000000000E+00  0.45593999997E+02  0.45594000000E+02  0.51100000000E-03 0.  1.
         11   -1    0    0    0    0 -0.00000000000E+00 -0.00000000000E+00 -0.45593999997E+02  0.45594000000E+02  0.51100000000E-03 0. -1.
         23    2    1    2    0    0  0.00000000000E+00  0.35527136788E-14  0.00000000000E+00  0.91188000000E+02  0.91188000000E+02 0.  0.
    9900012    2    3    3    0    0  0.11663878598E+02  0.20195920332E+02 -0.28493142369E+02  0.54367076274E+02  0.39999981981E+02 0.  0.
        -12    1    3    3    0    0 -0.11663878598E+02 -0.20195920332E+02  0.28493142369E+02  0.36820923726E+02  0.00000000000E+00 0.  1.
         11    1    4    4    0    0  0.40720313074E+00 -0.52969668840E+01 -0.21457098034E+02  0.22104993302E+02  0.51100000000E-03 0. -1.
        -11    1    4    4    0    0  0.12717272333E+02  0.11107140236E+02 -0.22676534336E+01  0.17036426625E+02  0.51100000000E-03 0.  1.
         12    1    4    4    0    0 -0.14605968659E+01  0.14385746980E+02 -0.47683909011E+01  0.15225656346E+02  0.00000000000E+00 0. -1.
</event>
<event>
 8    1  0.2512298E-006  0.9118800E+02  0.7816164E-02  0.1184000E+00
        -11   -1    0    0    0    0  0.00000000000E+00  0.00000000000E+00  0.45593999997E+02  0.45594000000E+02  0.51100000000E-03 0. -1.
         11   -1    0    0    0    0 -0.00000000000E+00 -0.00000000000E+00 -0.45593999997E+02  0.45594000000E+02  0.51100000000E-03 0.  1.
         23    2    1    2    0    0 -0.35527136788E-14 -0.13322676296E-14  0.00000000000E+00  0.91188000000E+02  0.91188000000E+02 0.  0.
    9900012    2    3    3    0    0 -0.31954722195E+02  0.39007800230E+01  0.17873419655E+02  0.54367089018E+02  0.40000011035E+02 0.  0.
         12    1    3    3    0    0  0.31954722195E+02 -0.39007800230E+01 -0.17873419655E+02  0.36820910982E+02  0.00000000000E+00 0. -1.
         11    1    4    4    0    0 -0.20531430961E+02  0.13692822662E+02  0.15642305830E+02  0.29218398000E+02  0.51100000000E-03 0. -1.
        -11    1    4    4    0    0 -0.16263649712E+02 -0.94993320335E+01  0.51019321947E+01  0.19513413936E+02  0.51100000000E-03 0.  1.
         12    1    4    4    0    0  0.48403584778E+01 -0.29271060525E+00 -0.28708183696E+01  0.56352770831E+01  0.00000000000E+00 0. -1.
</event>
<event>
 8    1  0.2512298E-006  0.9118800E+02  0.7816164E-02  0.1184000E+00
        -11   -1    0    0    0    0  0.00000000000E+00  0.00000000000E+00  0.45593999997E+02  0.45594000000E+02  0.51100000000E-03 0. -1.
         11   -1    0    0    0    0 -0.00000000000E+00 -0.00000000000E+00 -0.45593999997E+02  0.45594000000E+02  0.51100000000E-03 0.  1.
         23    2    1    2    0    0  0.00000000000E+00 -0.35527136788E-14  0.00000000000E+00  0.91188000000E+02  0.91188000000E+02 0.  0.
    9900012    2    3    3    0    0 -0.13862872774E+02  0.23435143885E+02 -0.24786922170E+02  0.54367126557E+02  0.40000096613E+02 0.  0.
         12    1    3    3    0    0  0.13862872774E+02 -0.23435143885E+02  0.24786922170E+02  0.36820873443E+02  0.00000000000E+00 0. -1.
         11    1    4    4    0    0 -0.14483928213E+02  0.77921234569E+00  0.99533366213E+00  0.14538983380E+02  0.51100000000E-03 0. -1.
        -11    1    4    4    0    0 -0.34199594519E+01  0.24800022570E+02 -0.18120190655E+02  0.30904345192E+02  0.51100000000E-03 0.  1.
        -12    1    4    4    0    0  0.40410148916E+01 -0.21440910310E+01 -0.76620651769E+01  0.89237979851E+01  0.00000000000E+00 0.  1.
</event>
<event>
 8    1  0.2512298E-006  0.9118800E+02  0.7816164E-02  0.1184000E+00
        -11   -1    0    0    0    0  0.00000000000E+00  0.00000000000E+00  0.45593999997E+02  0.45594000000E+02  0.51100000000E-03 0.  1.
         11   -1    0    0    0    0 -0.00000000000E+00 -0.00000000000E+00 -0.45593999997E+02  0.45594000000E+02  0.51100000000E-03 0. -1.
         23    2    1    2    0    0  0.17763568394E-14 -0.17763568394E-14  0.00000000000E+00  0.91188000000E+02  0.91188000000E+02 0.  0.
    9900012    2    3    3    0    0 -0.82829924029E+01 -0.14305106652E+02 -0.32901932411E+02  0.54367065793E+02  0.39999958088E+02 0.  0.
        -12    1    3    3    0    0  0.82829924029E+01  0.14305106652E+02  0.32901932411E+02  0.36820934207E+02  0.00000000000E+00 0.  1.
         11    1    4    4    0    0 -0.52908325363E+01 -0.12633066833E+02 -0.29204512636E+02  0.32256640325E+02  0.51100000000E-03 0. -1.
        -11    1    4    4    0    0 -0.12079127436E+02 -0.31759156369E+01 -0.31651667411E+01  0.12884488368E+02  0.51100000000E-03 0.  1.
        -12    1    4    4    0    0  0.90869675691E+01  0.15038758178E+01 -0.53225303463E+00  0.92259370998E+01  0.00000000000E+00 0.  1.
</event>
<event>
 8    1  0.2512298E-006  0.9118800E+02  0.7816164E-02  0.1184000E+00
        -11   -1    0    0    0    0  0.00000000000E+00  0.00000000000E+00  0.45593999997E+02  0.45594000000E+02  0.51100000000E-03 0. -1.
         11   -1    0    0    0    0 -0.00000000000E+00 -0.00000000000E+00 -0.45593999997E+02  0.45594000000E+02  0.51100000000E-03 0.  1.
         23    2    1    2    0    0  0.00000000000E+00  0.00000000000E+00  0.00000000000E+00  0.91188000000E+02  0.91188000000E+02 0.  0.
    9900012    2    3    3    0    0 -0.22191723432E+02 -0.22400167443E+02  0.19014199566E+02  0.54367083722E+02  0.39999998962E+02 0.  0.
        -12    1    3    3    0    0  0.22191723432E+02  0.22400167443E+02 -0.19014199566E+02  0.36820916278E+02  0.00000000000E+00 0.  1.
         11    1    4    4    0    0 -0.99794315878E+01  0.27943341840E+00  0.10521677177E+02  0.14504234855E+02  0.51100000000E-03 0. -1.
        -11    1    4    4    0    0 -0.69870746352E+01 -0.26146859803E+02  0.14902128510E+02  0.30895807545E+02  0.51100000000E-03 0.  1.
         12    1    4    4    0    0 -0.52252172093E+01  0.34672589412E+01 -0.64096061205E+01  0.89670413220E+01  0.00000000000E+00 0. -1.
</event>
<event>
 8    1  0.2512298E-006  0.9118800E+02  0.7816164E-02  0.1184000E+00
        -11   -1    0    0    0    0  0.00000000000E+00  0.00000000000E+00  0.45593999997E+02  0.45594000000E+02  0.51100000000E-03 0. -1.
         11   -1    0    0    0    0 -0.00000000000E+00 -0.00000000000E+00 -0.45593999997E+02  0.45594000000E+02  0.51100000000E-03 0.  1.
         23    2    1    2    0    0  0.44408920985E-15  0.00000000000E+00  0.00000000000E+00  0.91188000000E+02  0.91188000000E+02 0.  0.
    9900012    2    3    3    0    0  0.26734754175E+01  0.29555850802E+01  0.36604597328E+02  0.54367088828E+02  0.40000010602E+02 0.  0.
        -12    1    3    3    0    0 -0.26734754175E+01 -0.29555850802E+01 -0.36604597328E+02  0.36820911172E+02  0.00000000000E+00 0.  1.
         11    1    4    4    0    0  0.65747113658E+00  0.10304510141E+02  0.25872636525E+02  0.27856929454E+02  0.51100000000E-03 0. -1.
        -11    1    4    4    0    0  0.90163670631E+01  0.37315906739E+01  0.30656888378E+00  0.97628699016E+01  0.51100000000E-03 0.  1.
         12    1    4    4    0    0 -0.70003627821E+01 -0.11080515735E+02  0.10425391919E+02  0.16747289473E+02  0.00000000000E+00 0. -1.
</event>
<event>
 8    1  0.2512298E-006  0.9118800E+02  0.7816164E-02  0.1184000E+00
        -11   -1    0    0    0    0  0.00000000000E+00  0.00000000000E+00  0.45593999997E+02  0.45594000000E+02  0.51100000000E-03 0.  1.
         11   -1    0    0    0    0 -0.00000000000E+00 -0.00000000000E+00 -0.45593999997E+02  0.45594000000E+02  0.51100000000E-03 0. -1.
         23    2    1    2    0    0  0.00000000000E+00  0.88817841970E-15  0.00000000000E+00  0.91188000000E+02  0.91188000000E+02 0.  0.
    9900012    2    3    3    0    0 -0.36452629612E+02  0.40712020397E+01  0.32247890645E+01  0.54367242863E+02  0.40000361752E+02 0.  0.
        -12    1    3    3    0    0  0.36452629612E+02 -0.40712020397E+01 -0.32247890645E+01  0.36820757137E+02  0.00000000000E+00 0.  1.
         11    1    4    4    0    0 -0.23016603433E+02  0.38502770817E+01  0.10867130274E+02  0.25742633662E+02  0.51100000000E-03 0. -1.
        -11    1    4    4    0    0  0.51656311312E+01 -0.53694379900E+01  0.70352676865E+00  0.74839534664E+01  0.51100000000E-03 0.  1.
         12    1    4    4    0    0 -0.18601657310E+02  0.55903629480E+01 -0.83458679780E+01  0.21140655734E+02  0.00000000000E+00 0. -1.
</event>
<event>
 8    1  0.2512298E-006  0.9118800E+02  0.7816164E-02  0.1184000E+00
        -11   -1    0    0    0    0  0.00000000000E+00  0.00000000000E+00  0.45593999997E+02  0.45594000000E+02  0.51100000000E-03 0. -1.
         11   -1    0    0    0    0 -0.00000000000E+00 -0.00000000000E+00 -0.45593999997E+02  0.45594000000E+02  0.51100000000E-03 0.  1.
         23    2    1    2    0    0  0.00000000000E+00  0.00000000000E+00  0.00000000000E+00  0.91188000000E+02  0.91188000000E+02 0.  0.
    9900012    2    3    3    0    0 -0.64082223025E+01 -0.22165517898E+02  0.28695025379E+02  0.54367082327E+02  0.39999995781E+02 0.  0.
        -12    1    3    3    0    0  0.64082223025E+01  0.22165517898E+02 -0.28695025379E+02  0.36820917673E+02  0.00000000000E+00 0.  1.
         11    1    4    4    0    0 -0.79774765522E+01 -0.24193548490E+02  0.12351884912E+02  0.28311428467E+02  0.51100000000E-03 0. -1.
        -11    1    4    4    0    0 -0.37417258288E+01 -0.76082107058E+01  0.35769013553E+01  0.92021522422E+01  0.51100000000E-03 0.  1.
         12    1    4    4    0    0  0.53109800785E+01  0.96362412978E+01  0.12766239111E+02  0.16853501618E+02  0.00000000000E+00 0. -1.
</event>
<event>
 8    1  0.2512298E-006  0.9118800E+02  0.7816164E-02  0.1184000E+00
        -11   -1    0    0    0    0  0.00000000000E+00  0.00000000000E+00  0.45593999997E+02  0.45594000000E+02  0.51100000000E-03 0.  1.
         11   -1    0    0    0    0 -0.00000000000E+00 -0.00000000000E+00 -0.45593999997E+02  0.45594000000E+02  0.51100000000E-03 0. -1.
         23    2    1    2    0    0  0.35527136788E-14 -0.35527136788E-14  0.00000000000E+00  0.91188000000E+02  0.91188000000E+02 0.  0.
    9900012    2    3    3    0    0 -0.20989565303E+02  0.29129534843E+02 -0.81662626227E+01  0.54367088863E+02  0.40000010681E+02 0.  0.
        -12    1    3    3    0    0  0.20989565303E+02 -0.29129534843E+02  0.81662626227E+01  0.36820911137E+02  0.00000000000E+00 0.  1.
         11    1    4    4    0    0 -0.17549183125E+02  0.26086144064E+02 -0.14676058859E+01  0.31474030689E+02  0.51100000000E-03 0. -1.
        -11    1    4    4    0    0 -0.22886395079E+01  0.12223760670E+02 -0.22947755977E+01  0.12646113672E+02  0.51100000000E-03 0.  1.
        -12    1    4    4    0    0 -0.11517426698E+01 -0.91803698918E+01 -0.44038811391E+01  0.10246944501E+02  0.00000000000E+00 0.  1.
</event>
<event>
 8    1  0.2512298E-006  0.9118800E+02  0.7816164E-02  0.1184000E+00
        -11   -1    0    0    0    0  0.00000000000E+00  0.00000000000E+00  0.45593999997E+02  0.45594000000E+02  0.51100000000E-03 0. -1.
         11   -1    0    0    0    0 -0.00000000000E+00 -0.00000000000E+00 -0.45593999997E+02  0.45594000000E+02  0.51100000000E-03 0.  1.
         23    2    1    2    0    0 -0.35527136788E-14  0.17763568394E-14  0.00000000000E+00  0.91188000000E+02  0.91188000000E+02 0.  0.
    9900012    2    3    3    0    0  0.28788809735E+02 -0.83300662483E+01 -0.21391463809E+02  0.54367078045E+02  0.39999986020E+02 0.  0.
         12    1    3    3    0    0 -0.28788809735E+02  0.83300662483E+01  0.21391463809E+02  0.36820921955E+02  0.00000000000E+00 0. -1.
         11    1    4    4    0    0 -0.58238488045E+00 -0.12637694693E+02  0.13764253928E+01  0.12725763098E+02  0.51100000000E-03 0. -1.
        -11    1    4    4    0    0 -0.15774060264E+01 -0.70641770933E+00  0.12615414122E+01  0.21397950247E+01  0.51100000000E-03 0.  1.
        -12    1    4    4    0    0  0.30948600642E+02  0.50140461542E+01 -0.24029430614E+02  0.39501519923E+02  0.00000000000E+00 0.  1.
</event>
<event>
 8    1  0.2512298E-006  0.9118800E+02  0.7816164E-02  0.1184000E+00
        -11   -1    0    0    0    0  0.00000000000E+00  0.00000000000E+00  0.45593999997E+02  0.45594000000E+02  0.51100000000E-03 0. -1.
         11   -1    0    0    0    0 -0.00000000000E+00 -0.00000000000E+00 -0.45593999997E+02  0.45594000000E+02  0.51100000000E-03 0.  1.
         23    2    1    2    0    0  0.00000000000E+00  0.35527136788E-14  0.00000000000E+00  0.91188000000E+02  0.91188000000E+02 0.  0.
    9900012    2    3    3    0    0 -0.19647358568E+02 -0.30931634314E+02 -0.36047712696E+01  0.54367094581E+02  0.40000023715E+02 0.  0.
        -12    1    3    3    0    0  0.19647358568E+02  0.30931634314E+02  0.36047712696E+01  0.36820905419E+02  0.00000000000E+00 0.  1.
         11    1    4    4    0    0 -0.36838528928E+01 -0.47690927645E+01 -0.82363475659E+01  0.10205510248E+02  0.51100000000E-03 0. -1.
        -11    1    4    4    0    0  0.29478575091E+01 -0.20327558808E+02 -0.63865685448E+01  0.21510178266E+02  0.51100000000E-03 0.  1.
         12    1    4    4    0    0 -0.18911363184E+02 -0.58349827413E+01  0.11018144841E+02  0.22651406067E+02  0.00000000000E+00 0. -1.
</event>
<event>
 8    1  0.2512298E-006  0.9118800E+02  0.7816164E-02  0.1184000E+00
        -11   -1    0    0    0    0  0.00000000000E+00  0.00000000000E+00  0.45593999997E+02  0.45594000000E+02  0.51100000000E-03 0.  1.
         11   -1    0    0    0    0 -0.00000000000E+00 -0.00000000000E+00 -0.45593999997E+02  0.45594000000E+02  0.51100000000E-03 0. -1.
         23    2    1    2    0    0 -0.35527136788E-14 -0.35527136788E-14  0.00000000000E+00  0.91188000000E+02  0.91188000000E+02 0.  0.
    9900012    2    3    3    0    0 -0.22624670862E+02 -0.10808396366E+02 -0.26964483214E+02  0.54367074990E+02  0.39999979054E+02 0.  0.
        -12    1    3    3    0    0  0.22624670862E+02  0.10808396366E+02  0.26964483214E+02  0.36820925010E+02  0.00000000000E+00 0.  1.
         11    1    4    4    0    0 -0.11081581755E+02  0.33918857832E+01 -0.12065668394E+01  0.11651701471E+02  0.51100000000E-03 0. -1.
        -11    1    4    4    0    0 -0.18810826941E+01  0.49579516649E+01 -0.19726816193E+02  0.20427115170E+02  0.51100000000E-03 0.  1.
         12    1    4    4    0    0 -0.96620064122E+01 -0.19158233814E+02 -0.60311001819E+01  0.22288258348E+02  0.00000000000E+00 0. -1.
</event>
<event>
 8    1  0.2512298E-006  0.9118800E+02  0.7816164E-02  0.1184000E+00
        -11   -1    0    0    0    0  0.00000000000E+00  0.00000000000E+00  0.45593999997E+02  0.45594000000E+02  0.51100000000E-03 0.  1.
         11   -1    0    0    0    0 -0.00000000000E+00 -0.00000000000E+00 -0.45593999997E+02  0.45594000000E+02  0.51100000000E-03 0. -1.
         23    2    1    2    0    0  0.00000000000E+00 -0.35527136788E-14  0.00000000000E+00  0.91188000000E+02  0.91188000000E+02 0.  0.
    9900012    2    3    3    0    0 -0.20931989128E+02  0.25025787306E+02  0.17068761855E+02  0.54367070755E+02  0.39999969401E+02 0.  0.
         12    1    3    3    0    0  0.20931989128E+02 -0.25025787306E+02 -0.17068761855E+02  0.36820929245E+02  0.00000000000E+00 0. -1.
         11    1    4    4    0    0 -0.12019362362E+02  0.97637785570E+01 -0.62666665582E+01  0.16705315121E+02  0.51100000000E-03 0. -1.
        -11    1    4    4    0    0 -0.11048522553E+02 -0.23685822293E+01  0.12533934660E+02  0.16875412609E+02  0.51100000000E-03 0.  1.
         12    1    4    4    0    0  0.21358957865E+01  0.17630590979E+02  0.10801493753E+02  0.20786343025E+02  0.00000000000E+00 0. -1.
</event>
<event>
 8    1  0.2512298E-006  0.9118800E+02  0.7816164E-02  0.1184000E+00
        -11   -1    0    0    0    0  0.00000000000E+00  0.00000000000E+00  0.45593999997E+02  0.45594000000E+02  0.51100000000E-03 0.  1.
         11   -1    0    0    0    0 -0.00000000000E+00 -0.00000000000E+00 -0.45593999997E+02  0.45594000000E+02  0.51100000000E-03 0. -1.
         23    2    1    2    0    0 -0.44408920985E-15  0.00000000000E+00  0.00000000000E+00  0.91188000000E+02  0.91188000000E+02 0.  0.
    9900012    2    3    3    0    0  0.12217521198E+01  0.25592447696E+02  0.26444525422E+02  0.54367095854E+02  0.40000026619E+02 0.  0.
        -12    1    3    3    0    0 -0.12217521198E+01 -0.25592447696E+02 -0.26444525422E+02  0.36820904146E+02  0.00000000000E+00 0.  1.
         11    1    4    4    0    0 -0.54409123776E+01 -0.73089042085E+01  0.11545585544E+02  0.14707962267E+02  0.51100000000E-03 0. -1.
        -11    1    4    4    0    0  0.30665421072E+01  0.27841286136E+02  0.57353667107E+01  0.28590825902E+02  0.51100000000E-03 0.  1.
         12    1    4    4    0    0  0.35961223902E+01  0.50600657691E+01  0.91635731670E+01  0.11068307685E+02  0.00000000000E+00 0. -1.
</event>
<event>
 8    1  0.2512298E-006  0.9118800E+02  0.7816164E-02  0.1184000E+00
        -11   -1    0    0    0    0  0.00000000000E+00  0.00000000000E+00  0.45593999997E+02  0.45594000000E+02  0.51100000000E-03 0.  1.
         11   -1    0    0    0    0 -0.00000000000E+00 -0.00000000000E+00 -0.45593999997E+02  0.45594000000E+02  0.51100000000E-03 0. -1.
         23    2    1    2    0    0  0.00000000000E+00  0.00000000000E+00  0.00000000000E+00  0.91188000000E+02  0.91188000000E+02 0.  0.
    9900012    2    3    3    0    0 -0.33104277345E+02  0.91517382400E+01 -0.13271483413E+02  0.54367085246E+02  0.40000002436E+02 0.  0.
        -12    1    3    3    0    0  0.33104277345E+02 -0.91517382400E+01  0.13271483413E+02  0.36820914754E+02  0.00000000000E+00 0.  1.
         11    1    4    4    0    0 -0.15971489991E+02  0.17378937599E+02 -0.17398522753E+02  0.29322765198E+02  0.51100000000E-03 0. -1.
        -11    1    4    4    0    0 -0.48609103660E+01  0.23315771433E+00  0.82505724773E+01  0.95788704225E+01  0.51100000000E-03 0.  1.
        -12    1    4    4    0    0 -0.12271876988E+02 -0.84603570730E+01 -0.41235331367E+01  0.15465449626E+02  0.00000000000E+00 0.  1.
</event>
<event>
 8    1  0.2512298E-006  0.9118800E+02  0.7816164E-02  0.1184000E+00
        -11   -1    0    0    0    0  0.00000000000E+00  0.00000000000E+00  0.45593999997E+02  0.45594000000E+02  0.51100000000E-03 0. -1.
         11   -1    0    0    0    0 -0.00000000000E+00 -0.00000000000E+00 -0.45593999997E+02  0.45594000000E+02  0.51100000000E-03 0.  1.
         23    2    1    2    0    0  0.17763568394E-14  0.00000000000E+00  0.00000000000E+00  0.91188000000E+02  0.91188000000E+02 0.  0.
    9900012    2    3    3    0    0 -0.14114810483E+02  0.91413444319E+01  0.32756496243E+02  0.54367080686E+02  0.39999992041E+02 0.  0.
        -12    1    3    3    0    0  0.14114810483E+02 -0.91413444319E+01 -0.32756496243E+02  0.36820919314E+02  0.00000000000E+00 0.  1.
         11    1    4    4    0    0 -0.15432762590E+02  0.14884639262E+01  0.43551455032E+01  0.16104439718E+02  0.51100000000E-03 0. -1.
        -11    1    4    4    0    0  0.12351453357E+02  0.35438558595E+01  0.20100707264E+02  0.23856985291E+02  0.51100000000E-03 0.  1.
        -12    1    4    4    0    0 -0.11033501250E+02  0.41090246462E+01  0.83006434750E+01  0.14405655677E+02  0.00000000000E+00 0.  1.
</event>
<event>
 8    1  0.2512298E-006  0.9118800E+02  0.7816164E-02  0.1184000E+00
        -11   -1    0    0    0    0  0.00000000000E+00  0.00000000000E+00  0.45593999997E+02  0.45594000000E+02  0.51100000000E-03 0. -1.
         11   -1    0    0    0    0 -0.00000000000E+00 -0.00000000000E+00 -0.45593999997E+02  0.45594000000E+02  0.51100000000E-03 0.  1.
         23    2    1    2    0    0  0.00000000000E+00  0.44408920985E-15  0.22204460493E-15  0.91188000000E+02  0.91188000000E+02 0.  0.
    9900012    2    3    3    0    0  0.36676049231E+02  0.31994991539E+01  0.63952862072E+00  0.54367104045E+02  0.40000045292E+02 0.  0.
        -12    1    3    3    0    0 -0.36676049231E+02 -0.31994991539E+01 -0.63952862072E+00  0.36820895955E+02  0.00000000000E+00 0.  1.
         11    1    4    4    0    0  0.26344049933E+02 -0.30219423859E+01  0.65124370124E+01  0.27304815304E+02  0.51100000000E-03 0. -1.
        -11    1    4    4    0    0  0.13842181604E+02 -0.49404055164E+01 -0.37813904594E+01  0.15176050616E+02  0.51100000000E-03 0.  1.
        -12    1    4    4    0    0 -0.35101823056E+01  0.11161847056E+02 -0.20915179322E+01  0.11886238126E+02  0.00000000000E+00 0.  1.
</event>
<event>
 8    1  0.2512298E-006  0.9118800E+02  0.7816164E-02  0.1184000E+00
        -11   -1    0    0    0    0  0.00000000000E+00  0.00000000000E+00  0.45593999997E+02  0.45594000000E+02  0.51100000000E-03 0.  1.
         11   -1    0    0    0    0 -0.00000000000E+00 -0.00000000000E+00 -0.45593999997E+02  0.45594000000E+02  0.51100000000E-03 0. -1.
         23    2    1    2    0    0  0.35527136788E-14  0.35527136788E-14  0.00000000000E+00  0.91188000000E+02  0.91188000000E+02 0.  0.
    9900012    2    3    3    0    0 -0.23287896461E+02 -0.28450790318E+02 -0.20014384688E+01  0.54367090896E+02  0.40000015316E+02 0.  0.
        -12    1    3    3    0    0  0.23287896461E+02  0.28450790318E+02  0.20014384688E+01  0.36820909104E+02  0.00000000000E+00 0.  1.
         11    1    4    4    0    0 -0.19764699074E+02 -0.23387545302E+02 -0.18804146924E+01  0.30678275121E+02  0.51100000000E-03 0. -1.
        -11    1    4    4    0    0  0.45717378946E+01 -0.36252879313E+00 -0.94307421074E+01  0.10486711184E+02  0.51100000000E-03 0.  1.
        -12    1    4    4    0    0 -0.80949352820E+01 -0.47007162230E+01  0.93097183309E+01  0.13202104591E+02  0.00000000000E+00 0.  1.
</event>
<event>
 8    1  0.2512298E-006  0.9118800E+02  0.7816164E-02  0.1184000E+00
        -11   -1    0    0    0    0  0.00000000000E+00  0.00000000000E+00  0.45593999997E+02  0.45594000000E+02  0.51100000000E-03 0.  1.
         11   -1    0    0    0    0 -0.00000000000E+00 -0.00000000000E+00 -0.45593999997E+02  0.45594000000E+02  0.51100000000E-03 0. -1.
         23    2    1    2    0    0  0.00000000000E+00  0.61062266354E-15 -0.17763568394E-14  0.91188000000E+02  0.91188000000E+02 0.  0.
    9900012    2    3    3    0    0  0.34892976611E+02  0.20385682437E+00  0.11756623284E+02  0.54367087933E+02  0.40000008561E+02 0.  0.
        -12    1    3    3    0    0 -0.34892976611E+02 -0.20385682437E+00 -0.11756623284E+02  0.36820912067E+02  0.00000000000E+00 0.  1.
         11    1    4    4    0    0  0.20514676029E+02  0.12984188401E+02 -0.36276019154E+01  0.24547924086E+02  0.51100000000E-03 0. -1.
        -11    1    4    4    0    0  0.55560920354E+01 -0.62038558602E+01  0.16774384024E+02  0.18727998983E+02  0.51100000000E-03 0.  1.
        -12    1    4    4    0    0  0.88222085463E+01 -0.65764757165E+01 -0.13901588253E+01  0.11091164864E+02  0.00000000000E+00 0.  1.
</event>
<event>
 8    1  0.2512298E-006  0.9118800E+02  0.7816164E-02  0.1184000E+00
        -11   -1    0    0    0    0  0.00000000000E+00  0.00000000000E+00  0.45593999997E+02  0.45594000000E+02  0.51100000000E-03 0.  1.
         11   -1    0    0    0    0 -0.00000000000E+00 -0.00000000000E+00 -0.45593999997E+02  0.45594000000E+02  0.51100000000E-03 0. -1.
         23    2    1    2    0    0 -0.88817841970E-15  0.35527136788E-14  0.00000000000E+00  0.91188000000E+02  0.91188000000E+02 0.  0.
    9900012    2    3    3    0    0 -0.56136557407E+01  0.16902389561E+02  0.32226938978E+02  0.54367088828E+02  0.40000010601E+02 0.  0.
         12    1    3    3    0    0  0.56136557407E+01 -0.16902389561E+02 -0.32226938978E+02  0.36820911172E+02  0.00000000000E+00 0. -1.
         11    1    4    4    0    0  0.76201991625E+01 -0.62229442026E+01  0.19000524325E+02  0.21396551001E+02  0.51100000000E-03 0. -1.
        -11    1    4    4    0    0 -0.94502632694E+01  0.41122919196E+01  0.75335568601E+01  0.12766083970E+02  0.51100000000E-03 0.  1.
        -12    1    4    4    0    0 -0.37835916338E+01  0.19013041844E+02  0.56928577925E+01  0.20204453857E+02  0.00000000000E+00 0.  1.
</event>
<event>
 8    1  0.2512298E-006  0.9118800E+02  0.7816164E-02  0.1184000E+00
        -11   -1    0    0    0    0  0.00000000000E+00  0.00000000000E+00  0.45593999997E+02  0.45594000000E+02  0.51100000000E-03 0. -1.
         11   -1    0    0    0    0 -0.00000000000E+00 -0.00000000000E+00 -0.45593999997E+02  0.45594000000E+02  0.51100000000E-03 0.  1.
         23    2    1    2    0    0  0.00000000000E+00 -0.71054273576E-14  0.44408920985E-15  0.91188000000E+02  0.91188000000E+02 0.  0.
    9900012    2    3    3    0    0 -0.70195639155E+01  0.35955645820E+02  0.37008772057E+01  0.54367092407E+02  0.40000018759E+02 0.  0.
        -12    1    3    3    0    0  0.70195639155E+01 -0.35955645820E+02 -0.37008772057E+01  0.36820907593E+02  0.00000000000E+00 0.  1.
         11    1    4    4    0    0 -0.48638872947E+01  0.25124852965E+02  0.82695093882E+01  0.26894245144E+02  0.51100000000E-03 0. -1.
        -11    1    4    4    0    0 -0.46557866079E+01  0.16724399455E+02 -0.91274639806E+01  0.19613579099E+02  0.51100000000E-03 0.  1.
         12    1    4    4    0    0  0.25001099871E+01 -0.58936065999E+01  0.45588317980E+01  0.78592681634E+01  0.00000000000E+00 0. -1.
</event>
<event>
 8    1  0.2512298E-006  0.9118800E+02  0.7816164E-02  0.1184000E+00
        -11   -1    0    0    0    0  0.00000000000E+00  0.00000000000E+00  0.45593999997E+02  0.45594000000E+02  0.51100000000E-03 0.  1.
         11   -1    0    0    0    0 -0.00000000000E+00 -0.00000000000E+00 -0.45593999997E+02  0.45594000000E+02  0.51100000000E-03 0. -1.
         23    2    1    2    0    0  0.35527136788E-14  0.00000000000E+00  0.35527136788E-14  0.91188000000E+02  0.91188000000E+02 0.  0.
    9900012    2    3    3    0    0 -0.19938415193E+02  0.27002901765E+02 -0.15135445362E+02  0.54367098185E+02  0.40000031933E+02 0.  0.
        -12    1    3    3    0    0  0.19938415193E+02 -0.27002901765E+02  0.15135445362E+02  0.36820901815E+02  0.00000000000E+00 0.  1.
         11    1    4    4    0    0 -0.16487010453E+01  0.11718075148E+02  0.52764960353E+01  0.12956577904E+02  0.51100000000E-03 0.  1.
        -11    1    4    4    0    0 -0.22701380054E+02  0.36357136172E+01 -0.16689549911E+02  0.28409719223E+02  0.51100000000E-03 0. -1.
         12    1    4    4    0    0  0.44116659069E+01  0.11649113000E+02 -0.37223914864E+01  0.13000801057E+02  0.00000000000E+00 0. -1.
</event>
<event>
 8    1  0.2512298E-006  0.9118800E+02  0.7816164E-02  0.1184000E+00
        -11   -1    0    0    0    0  0.00000000000E+00  0.00000000000E+00  0.45593999997E+02  0.45594000000E+02  0.51100000000E-03 0.  1.
         11   -1    0    0    0    0 -0.00000000000E+00 -0.00000000000E+00 -0.45593999997E+02  0.45594000000E+02  0.51100000000E-03 0. -1.
         23    2    1    2    0    0  0.35527136788E-14  0.00000000000E+00  0.17763568394E-14  0.91188000000E+02  0.91188000000E+02 0.  0.
    9900012    2    3    3    0    0  0.26246881869E+02 -0.20599431492E+02 -0.15573850341E+02  0.54367079315E+02  0.39999988915E+02 0.  0.
         12    1    3    3    0    0 -0.26246881869E+02  0.20599431492E+02  0.15573850341E+02  0.36820920685E+02  0.00000000000E+00 0. -1.
         11    1    4    4    0    0  0.12516821386E+02 -0.21811827558E+01 -0.82188309204E+01  0.15132004420E+02  0.51100000000E-03 0. -1.
        -11    1    4    4    0    0 -0.62555684459E+01  0.33129607478E+01 -0.66351631529E+01  0.97022283948E+01  0.51100000000E-03 0.  1.
        -12    1    4    4    0    0  0.19985628929E+02 -0.21731209484E+02 -0.71985626728E+00  0.29532846500E+02  0.00000000000E+00 0.  1.
</event>
<event>
 8    1  0.2512298E-006  0.9118800E+02  0.7816164E-02  0.1184000E+00
        -11   -1    0    0    0    0  0.00000000000E+00  0.00000000000E+00  0.45593999997E+02  0.45594000000E+02  0.51100000000E-03 0.  1.
         11   -1    0    0    0    0 -0.00000000000E+00 -0.00000000000E+00 -0.45593999997E+02  0.45594000000E+02  0.51100000000E-03 0. -1.
         23    2    1    2    0    0  0.00000000000E+00  0.00000000000E+00  0.00000000000E+00  0.91188000000E+02  0.91188000000E+02 0.  0.
    9900012    2    3    3    0    0 -0.22274500622E+02  0.26189677981E+02  0.13180464532E+02  0.54367119294E+02  0.40000080054E+02 0.  0.
        -12    1    3    3    0    0  0.22274500622E+02 -0.26189677981E+02 -0.13180464532E+02  0.36820880706E+02  0.00000000000E+00 0.  1.
         11    1    4    4    0    0 -0.26762032574E+01  0.19463621977E+02  0.13642170776E+02  0.23918684497E+02  0.51100000000E-03 0. -1.
        -11    1    4    4    0    0 -0.21941945638E+02  0.28717625820E+01  0.56626687761E+01  0.22842106221E+02  0.51100000000E-03 0.  1.
         12    1    4    4    0    0  0.23436482729E+01  0.38542934219E+01 -0.61243750204E+01  0.76063285756E+01  0.00000000000E+00 0. -1.
</event>
<event>
 8    1  0.2512298E-006  0.9118800E+02  0.7816164E-02  0.1184000E+00
        -11   -1    0    0    0    0  0.00000000000E+00  0.00000000000E+00  0.45593999997E+02  0.45594000000E+02  0.51100000000E-03 0. -1.
         11   -1    0    0    0    0 -0.00000000000E+00 -0.00000000000E+00 -0.45593999997E+02  0.45594000000E+02  0.51100000000E-03 0.  1.
         23    2    1    2    0    0  0.44408920985E-15  0.88817841970E-15  0.00000000000E+00  0.91188000000E+02  0.91188000000E+02 0.  0.
    9900012    2    3    3    0    0  0.32449259336E+01  0.54919562604E+01 -0.36264241005E+02  0.54366996435E+02  0.39999799972E+02 0.  0.
         12    1    3    3    0    0 -0.32449259336E+01 -0.54919562604E+01  0.36264241005E+02  0.36821003565E+02  0.00000000000E+00 0. -1.
         11    1    4    4    0    0  0.16130693605E+01  0.18607935408E+02 -0.18123946874E+02  0.26025654718E+02  0.51100000000E-03 0. -1.
        -11    1    4    4    0    0 -0.62497380222E+01 -0.16939711355E+01 -0.10926298863E+02  0.12700896451E+02  0.51100000000E-03 0.  1.
         12    1    4    4    0    0  0.78815945953E+01 -0.11422008013E+02 -0.72139952674E+01  0.15640445266E+02  0.00000000000E+00 0. -1.
</event>
<event>
 8    1  0.2512298E-006  0.9118800E+02  0.7816164E-02  0.1184000E+00
        -11   -1    0    0    0    0  0.00000000000E+00  0.00000000000E+00  0.45593999997E+02  0.45594000000E+02  0.51100000000E-03 0.  1.
         11   -1    0    0    0    0 -0.00000000000E+00 -0.00000000000E+00 -0.45593999997E+02  0.45594000000E+02  0.51100000000E-03 0. -1.
         23    2    1    2    0    0 -0.35527136788E-14  0.00000000000E+00 -0.26645352591E-14  0.91188000000E+02  0.91188000000E+02 0.  0.
    9900012    2    3    3    0    0  0.23986859062E+02  0.27711125416E+02  0.35361186847E+01  0.54367081831E+02  0.39999994649E+02 0.  0.
         12    1    3    3    0    0 -0.23986859062E+02 -0.27711125416E+02 -0.35361186847E+01  0.36820918169E+02  0.00000000000E+00 0. -1.
         11    1    4    4    0    0  0.19145539136E+01 -0.58869188361E+01 -0.39308852093E+00  0.62028903680E+01  0.51100000000E-03 0. -1.
        -11    1    4    4    0    0  0.18393240539E+02  0.29797007737E+02 -0.72835564711E+01  0.35766229362E+02  0.51100000000E-03 0.  1.
        -12    1    4    4    0    0  0.36790646094E+01  0.38010365148E+01  0.11212763677E+02  0.12397962101E+02  0.00000000000E+00 0.  1.
</event>
<event>
 8    1  0.2512298E-006  0.9118800E+02  0.7816164E-02  0.1184000E+00
        -11   -1    0    0    0    0  0.00000000000E+00  0.00000000000E+00  0.45593999997E+02  0.45594000000E+02  0.51100000000E-03 0.  1.
         11   -1    0    0    0    0 -0.00000000000E+00 -0.00000000000E+00 -0.45593999997E+02  0.45594000000E+02  0.51100000000E-03 0. -1.
         23    2    1    2    0    0  0.00000000000E+00  0.00000000000E+00  0.88817841970E-15  0.91188000000E+02  0.91188000000E+02 0.  0.
    9900012    2    3    3    0    0  0.33708633015E+02 -0.12916444047E+02 -0.72576103527E+01  0.54367090524E+02  0.40000014468E+02 0.  0.
         12    1    3    3    0    0 -0.33708633015E+02  0.12916444047E+02  0.72576103527E+01  0.36820909476E+02  0.00000000000E+00 0. -1.
         11    1    4    4    0    0 -0.27011696924E+01  0.55930564929E+00  0.34922866628E+00  0.27804858278E+01  0.51100000000E-03 0. -1.
        -11    1    4    4    0    0  0.35425234442E+02 -0.46982787392E+00 -0.12626178274E+02  0.37611013700E+02  0.51100000000E-03 0.  1.
         12    1    4    4    0    0  0.98456826559E+00 -0.13005921823E+02  0.50193392555E+01  0.13975590996E+02  0.00000000000E+00 0. -1.
</event>
<event>
 8    1  0.2512298E-006  0.9118800E+02  0.7816164E-02  0.1184000E+00
        -11   -1    0    0    0    0  0.00000000000E+00  0.00000000000E+00  0.45593999997E+02  0.45594000000E+02  0.51100000000E-03 0.  1.
         11   -1    0    0    0    0 -0.00000000000E+00 -0.00000000000E+00 -0.45593999997E+02  0.45594000000E+02  0.51100000000E-03 0. -1.
         23    2    1    2    0    0  0.17763568394E-14  0.17763568394E-14  0.00000000000E+00  0.91188000000E+02  0.91188000000E+02 0.  0.
    9900012    2    3    3    0    0 -0.15423372162E+02  0.14288078309E+02  0.30228284595E+02  0.54367098596E+02  0.40000032870E+02 0.  0.
         12    1    3    3    0    0  0.15423372162E+02 -0.14288078309E+02 -0.30228284595E+02  0.36820901404E+02  0.00000000000E+00 0. -1.
         11    1    4    4    0    0  0.24904332347E+01  0.12434371903E+02  0.13502707572E+02  0.18524010753E+02  0.51100000000E-03 0.  1.
        -11    1    4    4    0    0 -0.22685902731E+02  0.72698745451E+01  0.15751945927E+02  0.28559150187E+02  0.51100000000E-03 0. -1.
         12    1    4    4    0    0  0.47720973342E+01 -0.54161681390E+01  0.97363109574E+00  0.72839376568E+01  0.00000000000E+00 0. -1.
</event>
<event>
 8    1  0.2512298E-006  0.9118800E+02  0.7816164E-02  0.1184000E+00
        -11   -1    0    0    0    0  0.00000000000E+00  0.00000000000E+00  0.45593999997E+02  0.45594000000E+02  0.51100000000E-03 0.  1.
         11   -1    0    0    0    0 -0.00000000000E+00 -0.00000000000E+00 -0.45593999997E+02  0.45594000000E+02  0.51100000000E-03 0. -1.
         23    2    1    2    0    0  0.00000000000E+00  0.00000000000E+00 -0.71054273576E-14  0.91188000000E+02  0.91188000000E+02 0.  0.
    9900012    2    3    3    0    0  0.11171529669E+02  0.63582881552E+01 -0.34504308858E+02  0.54367106024E+02  0.40000049803E+02 0.  0.
        -12    1    3    3    0    0 -0.11171529669E+02 -0.63582881552E+01  0.34504308858E+02  0.36820893976E+02  0.00000000000E+00 0.  1.
         11    1    4    4    0    0 -0.71070589267E+01  0.22874731200E+01 -0.25278322170E+01  0.78824333705E+01  0.51100000000E-03 0. -1.
        -11    1    4    4    0    0 -0.73837744247E+01  0.30852075743E+01 -0.64899370531E+01  0.10303296256E+02  0.51100000000E-03 0.  1.
        -12    1    4    4    0    0  0.25662363020E+02  0.98560746093E+00 -0.25486539588E+02  0.36181376397E+02  0.00000000000E+00 0.  1.
</event>
<event>
 8    1  0.2512298E-006  0.9118800E+02  0.7816164E-02  0.1184000E+00
        -11   -1    0    0    0    0  0.00000000000E+00  0.00000000000E+00  0.45593999997E+02  0.45594000000E+02  0.51100000000E-03 0. -1.
         11   -1    0    0    0    0 -0.00000000000E+00 -0.00000000000E+00 -0.45593999997E+02  0.45594000000E+02  0.51100000000E-03 0.  1.
         23    2    1    2    0    0  0.71054273576E-14 -0.17763568394E-14  0.00000000000E+00  0.91188000000E+02  0.91188000000E+02 0.  0.
    9900012    2    3    3    0    0 -0.23703141658E+02  0.12449882505E+02 -0.25277290390E+02  0.54367083277E+02  0.39999997947E+02 0.  0.
         12    1    3    3    0    0  0.23703141658E+02 -0.12449882505E+02  0.25277290390E+02  0.36820916723E+02  0.00000000000E+00 0. -1.
         11    1    4    4    0    0 -0.19053880020E+02  0.93032558433E+01 -0.89754354613E+01  0.23025189578E+02  0.51100000000E-03 0. -1.
        -11    1    4    4    0    0 -0.14412081578E+02  0.72086989307E+01 -0.11018406085E+02  0.19521237374E+02  0.51100000000E-03 0.  1.
         12    1    4    4    0    0  0.97628199401E+01 -0.40620722689E+01 -0.52834488432E+01  0.11820656326E+02  0.00000000000E+00 0. -1.
</event>
<event>
 8    1  0.2512298E-006  0.9118800E+02  0.7816164E-02  0.1184000E+00
        -11   -1    0    0    0    0  0.00000000000E+00  0.00000000000E+00  0.45593999997E+02  0.45594000000E+02  0.51100000000E-03 0. -1.
         11   -1    0    0    0    0 -0.00000000000E+00 -0.00000000000E+00 -0.45593999997E+02  0.45594000000E+02  0.51100000000E-03 0.  1.
         23    2    1    2    0    0  0.35527136788E-14 -0.35527136788E-14  0.17763568394E-14  0.91188000000E+02  0.91188000000E+02 0.  0.
    9900012    2    3    3    0    0 -0.24564509196E+02  0.25598629063E+02 -0.98526076807E+01  0.54367098326E+02  0.40000032254E+02 0.  0.
        -12    1    3    3    0    0  0.24564509196E+02 -0.25598629063E+02  0.98526076807E+01  0.36820901674E+02  0.00000000000E+00 0.  1.
         11    1    4    4    0    0 -0.74932153791E+01  0.83112160690E+00 -0.93087684207E+01  0.11978823382E+02  0.51100000000E-03 0. -1.
        -11    1    4    4    0    0  0.13395411944E+01 -0.61309070747E+01  0.11532415618E+01  0.63806236788E+01  0.51100000000E-03 0.  1.
         12    1    4    4    0    0 -0.18410835012E+02  0.30898414531E+02 -0.16970808218E+01  0.36007651266E+02  0.00000000000E+00 0. -1.
</event>
<event>
 8    1  0.2512298E-006  0.9118800E+02  0.7816164E-02  0.1184000E+00
        -11   -1    0    0    0    0  0.00000000000E+00  0.00000000000E+00  0.45593999997E+02  0.45594000000E+02  0.51100000000E-03 0.  1.
         11   -1    0    0    0    0 -0.00000000000E+00 -0.00000000000E+00 -0.45593999997E+02  0.45594000000E+02  0.51100000000E-03 0. -1.
         23    2    1    2    0    0  0.00000000000E+00  0.71054273576E-14  0.00000000000E+00  0.91188000000E+02  0.91188000000E+02 0.  0.
    9900012    2    3    3    0    0  0.83308679775E+01 -0.34059162336E+02 -0.11240545333E+02  0.54367085296E+02  0.40000002549E+02 0.  0.
         12    1    3    3    0    0 -0.83308679775E+01  0.34059162336E+02  0.11240545333E+02  0.36820914704E+02  0.00000000000E+00 0. -1.
         11    1    4    4    0    0 -0.44794960912E+01  0.13652247668E+01 -0.52041820029E+01  0.70009452559E+01  0.51100000000E-03 0. -1.
        -11    1    4    4    0    0  0.13602580220E+02 -0.30708461577E+01  0.18194371554E+01  0.14063094844E+02  0.51100000000E-03 0.  1.
        -12    1    4    4    0    0 -0.79221615097E+00 -0.32353540945E+02 -0.78558004859E+01  0.33303045196E+02  0.00000000000E+00 0.  1.
</event>
<event>
 8    1  0.2512298E-006  0.9118800E+02  0.7816164E-02  0.1184000E+00
        -11   -1    0    0    0    0  0.00000000000E+00  0.00000000000E+00  0.45593999997E+02  0.45594000000E+02  0.51100000000E-03 0.  1.
         11   -1    0    0    0    0 -0.00000000000E+00 -0.00000000000E+00 -0.45593999997E+02  0.45594000000E+02  0.51100000000E-03 0. -1.
         23    2    1    2    0    0  0.00000000000E+00  0.00000000000E+00  0.00000000000E+00  0.91188000000E+02  0.91188000000E+02 0.  0.
    9900012    2    3    3    0    0 -0.16062938596E+02 -0.12137678117E+02 -0.30829192735E+02  0.54367077265E+02  0.39999984240E+02 0.  0.
        -12    1    3    3    0    0  0.16062938596E+02  0.12137678117E+02  0.30829192735E+02  0.36820922735E+02  0.00000000000E+00 0.  1.
         11    1    4    4    0    0  0.95418800607E+01 -0.20350085072E+01 -0.13256654517E+02  0.16459879220E+02  0.51100000000E-03 0. -1.
        -11    1    4    4    0    0 -0.27434430032E+02 -0.46474841783E+01 -0.14888972668E+02  0.31558335947E+02  0.51100000000E-03 0.  1.
        -12    1    4    4    0    0  0.18296113749E+01 -0.54551854310E+01 -0.26835655503E+01  0.63488620975E+01  0.00000000000E+00 0.  1.
</event>
<event>
 8    1  0.2512298E-006  0.9118800E+02  0.7816164E-02  0.1184000E+00
        -11   -1    0    0    0    0  0.00000000000E+00  0.00000000000E+00  0.45593999997E+02  0.45594000000E+02  0.51100000000E-03 0.  1.
         11   -1    0    0    0    0 -0.00000000000E+00 -0.00000000000E+00 -0.45593999997E+02  0.45594000000E+02  0.51100000000E-03 0. -1.
         23    2    1    2    0    0  0.17763568394E-14  0.00000000000E+00  0.00000000000E+00  0.91188000000E+02  0.91188000000E+02 0.  0.
    9900012    2    3    3    0    0 -0.87664334589E+01  0.22950768503E+02  0.27426046909E+02  0.54367133912E+02  0.40000113378E+02 0.  0.
         12    1    3    3    0    0  0.87664334589E+01 -0.22950768503E+02 -0.27426046909E+02  0.36820866088E+02  0.00000000000E+00 0. -1.
         11    1    4    4    0    0  0.11078854350E+02 -0.38721301896E+01  0.11774774828E+02  0.16624672280E+02  0.51100000000E-03 0. -1.
        -11    1    4    4    0    0 -0.99441895677E+01  0.16030144040E+02  0.46613451324E+01  0.19431432341E+02  0.51100000000E-03 0.  1.
         12    1    4    4    0    0 -0.99010982409E+01  0.10792754652E+02  0.10989926948E+02  0.18311029290E+02  0.00000000000E+00 0. -1.
</event>
<event>
 8    1  0.2512298E-006  0.9118800E+02  0.7816164E-02  0.1184000E+00
        -11   -1    0    0    0    0  0.00000000000E+00  0.00000000000E+00  0.45593999997E+02  0.45594000000E+02  0.51100000000E-03 0.  1.
         11   -1    0    0    0    0 -0.00000000000E+00 -0.00000000000E+00 -0.45593999997E+02  0.45594000000E+02  0.51100000000E-03 0. -1.
         23    2    1    2    0    0 -0.55511151231E-15  0.00000000000E+00  0.71054273576E-14  0.91188000000E+02  0.91188000000E+02 0.  0.
    9900012    2    3    3    0    0  0.94190762563E+00 -0.15073153448E+02 -0.33581139369E+02  0.54367081133E+02  0.39999993060E+02 0.  0.
        -12    1    3    3    0    0 -0.94190762563E+00  0.15073153448E+02  0.33581139369E+02  0.36820918867E+02  0.00000000000E+00 0.  1.
         11    1    4    4    0    0 -0.25365904154E+01 -0.55512378183E+01 -0.17876495600E+02  0.18889669861E+02  0.51100000000E-03 0. -1.
        -11    1    4    4    0    0 -0.93774419609E+00 -0.59794500327E+01 -0.24378947817E+02  0.25119042255E+02  0.51100000000E-03 0.  1.
        -12    1    4    4    0    0  0.44162422371E+01 -0.35424655971E+01  0.86743040475E+01  0.10358369018E+02  0.00000000000E+00 0.  1.
</event>
<event>
 8    1  0.2512298E-006  0.9118800E+02  0.7816164E-02  0.1184000E+00
        -11   -1    0    0    0    0  0.00000000000E+00  0.00000000000E+00  0.45593999997E+02  0.45594000000E+02  0.51100000000E-03 0.  1.
         11   -1    0    0    0    0 -0.00000000000E+00 -0.00000000000E+00 -0.45593999997E+02  0.45594000000E+02  0.51100000000E-03 0. -1.
         23    2    1    2    0    0  0.00000000000E+00  0.00000000000E+00  0.00000000000E+00  0.91188000000E+02  0.91188000000E+02 0.  0.
    9900012    2    3    3    0    0  0.91475705224E+01  0.24926696667E+02  0.25509940091E+02  0.54367145901E+02  0.40000140709E+02 0.  0.
         12    1    3    3    0    0 -0.91475705224E+01 -0.24926696667E+02 -0.25509940091E+02  0.36820854099E+02  0.00000000000E+00 0. -1.
         11    1    4    4    0    0  0.31199100389E+01 -0.53837126916E+01 -0.28137773206E+01  0.68290221897E+01  0.51100000000E-03 0. -1.
        -11    1    4    4    0    0  0.13438363347E+02  0.13938993458E+02  0.19640734233E+02  0.27579767757E+02  0.51100000000E-03 0.  1.
        -12    1    4    4    0    0 -0.74107028632E+01  0.16371415900E+02  0.86829831780E+01  0.19958355954E+02  0.00000000000E+00 0.  1.
</event>
<event>
 8    1  0.2512298E-006  0.9118800E+02  0.7816164E-02  0.1184000E+00
        -11   -1    0    0    0    0  0.00000000000E+00  0.00000000000E+00  0.45593999997E+02  0.45594000000E+02  0.51100000000E-03 0. -1.
         11   -1    0    0    0    0 -0.00000000000E+00 -0.00000000000E+00 -0.45593999997E+02  0.45594000000E+02  0.51100000000E-03 0.  1.
         23    2    1    2    0    0  0.00000000000E+00  0.17763568394E-14  0.00000000000E+00  0.91188000000E+02  0.91188000000E+02 0.  0.
    9900012    2    3    3    0    0  0.13953029526E+02  0.94059019645E+01 -0.32750911183E+02  0.54367079207E+02  0.39999988668E+02 0.  0.
         12    1    3    3    0    0 -0.13953029526E+02 -0.94059019645E+01  0.32750911183E+02  0.36820920793E+02  0.00000000000E+00 0. -1.
         11    1    4    4    0    0  0.15061431347E+02  0.12335440899E+02  0.41229222734E+00  0.19472539679E+02  0.51100000000E-03 0. -1.
        -11    1    4    4    0    0 -0.32835121058E+01 -0.58035700916E+01 -0.15600557790E+02  0.16965856335E+02  0.51100000000E-03 0.  1.
         12    1    4    4    0    0  0.21751102855E+01  0.28740311567E+01 -0.17562645621E+02  0.17928683193E+02  0.00000000000E+00 0. -1.
</event>
<event>
 8    1  0.2512298E-006  0.9118800E+02  0.7816164E-02  0.1184000E+00
        -11   -1    0    0    0    0  0.00000000000E+00  0.00000000000E+00  0.45593999997E+02  0.45594000000E+02  0.51100000000E-03 0. -1.
         11   -1    0    0    0    0 -0.00000000000E+00 -0.00000000000E+00 -0.45593999997E+02  0.45594000000E+02  0.51100000000E-03 0.  1.
         23    2    1    2    0    0  0.00000000000E+00  0.00000000000E+00  0.00000000000E+00  0.91188000000E+02  0.91188000000E+02 0.  0.
    9900012    2    3    3    0    0 -0.34309821444E+02 -0.13078374629E+02  0.27518280002E+01  0.54367078123E+02  0.39999986198E+02 0.  0.
        -12    1    3    3    0    0  0.34309821444E+02  0.13078374629E+02 -0.27518280002E+01  0.36820921877E+02  0.00000000000E+00 0.  1.
         11    1    4    4    0    0  0.13642760174E+01 -0.35258385184E+01  0.39011562553E+01  0.54324770316E+01  0.51100000000E-03 0. -1.
        -11    1    4    4    0    0 -0.75972567763E+01  0.11448686338E+02 -0.18582375145E+01  0.13865200190E+02  0.51100000000E-03 0.  1.
         12    1    4    4    0    0 -0.28076840686E+02 -0.21001222449E+02  0.70890925936E+00  0.35069400901E+02  0.00000000000E+00 0. -1.
</event>
<event>
 8    1  0.2512298E-006  0.9118800E+02  0.7816164E-02  0.1184000E+00
        -11   -1    0    0    0    0  0.00000000000E+00  0.00000000000E+00  0.45593999997E+02  0.45594000000E+02  0.51100000000E-03 0.  1.
         11   -1    0    0    0    0 -0.00000000000E+00 -0.00000000000E+00 -0.45593999997E+02  0.45594000000E+02  0.51100000000E-03 0. -1.
         23    2    1    2    0    0  0.00000000000E+00 -0.44408920985E-15  0.00000000000E+00  0.91188000000E+02  0.91188000000E+02 0.  0.
    9900012    2    3    3    0    0 -0.24878562606E+02 -0.11249669207E+01  0.27121435609E+02  0.54367072562E+02  0.39999973519E+02 0.  0.
        -12    1    3    3    0    0  0.24878562606E+02  0.11249669207E+01 -0.27121435609E+02  0.36820927438E+02  0.00000000000E+00 0.  1.
         11    1    4    4    0    0 -0.96807437563E+01 -0.24779307266E+01 -0.73920826644E+00  0.10020148177E+02  0.51100000000E-03 0. -1.
        -11    1    4    4    0    0 -0.12171420472E+02 -0.10794402712E+02  0.27344025468E+02  0.31817579029E+02  0.51100000000E-03 0.  1.
        -12    1    4    4    0    0 -0.30263983778E+01  0.12147366518E+02  0.51661840737E+00  0.12529345356E+02  0.00000000000E+00 0.  1.
</event>
<event>
 8    1  0.2512298E-006  0.9118800E+02  0.7816164E-02  0.1184000E+00
        -11   -1    0    0    0    0  0.00000000000E+00  0.00000000000E+00  0.45593999997E+02  0.45594000000E+02  0.51100000000E-03 0.  1.
         11   -1    0    0    0    0 -0.00000000000E+00 -0.00000000000E+00 -0.45593999997E+02  0.45594000000E+02  0.51100000000E-03 0. -1.
         23    2    1    2    0    0  0.00000000000E+00 -0.35527136788E-14 -0.35527136788E-14  0.91188000000E+02  0.91188000000E+02 0.  0.
    9900012    2    3    3    0    0 -0.91386031146E+01  0.21317751395E+02  0.28597482096E+02  0.54367128560E+02  0.40000101177E+02 0.  0.
         12    1    3    3    0    0  0.91386031146E+01 -0.21317751395E+02 -0.28597482096E+02  0.36820871440E+02  0.00000000000E+00 0. -1.
         11    1    4    4    0    0 -0.14126587603E+02  0.46389177059E+01  0.18427221857E+01  0.14982511809E+02  0.51100000000E-03 0.  1.
        -11    1    4    4    0    0  0.75223738601E+01  0.17885241175E+02  0.29597022728E+02  0.35389994561E+02  0.51100000000E-03 0. -1.
         12    1    4    4    0    0 -0.25343893714E+01 -0.12064074858E+01 -0.28422628184E+01  0.39946221895E+01  0.00000000000E+00 0. -1.
</event>
<event>
 8    1  0.2512298E-006  0.9118800E+02  0.7816164E-02  0.1184000E+00
        -11   -1    0    0    0    0  0.00000000000E+00  0.00000000000E+00  0.45593999997E+02  0.45594000000E+02  0.51100000000E-03 0. -1.
         11   -1    0    0    0    0 -0.00000000000E+00 -0.00000000000E+00 -0.45593999997E+02  0.45594000000E+02  0.51100000000E-03 0.  1.
         23    2    1    2    0    0  0.00000000000E+00  0.00000000000E+00  0.00000000000E+00  0.91188000000E+02  0.91188000000E+02 0.  0.
    9900012    2    3    3    0    0 -0.14357138944E+02 -0.16443850185E+02 -0.29652184331E+02  0.54367086334E+02  0.40000004916E+02 0.  0.
        -12    1    3    3    0    0  0.14357138944E+02  0.16443850185E+02  0.29652184331E+02  0.36820913666E+02  0.00000000000E+00 0.  1.
         11    1    4    4    0    0 -0.63158209273E+01 -0.77818097741E+01 -0.58801819241E+01  0.11619926724E+02  0.51100000000E-03 0. -1.
        -11    1    4    4    0    0 -0.90860787549E+01 -0.89786540491E+01 -0.31995666038E+02  0.34451352675E+02  0.51100000000E-03 0.  1.
        -12    1    4    4    0    0  0.10447607377E+01  0.31661363815E+00  0.82236636307E+01  0.82958069351E+01  0.00000000000E+00 0.  1.
</event>
<event>
 8    1  0.2512298E-006  0.9118800E+02  0.7816164E-02  0.1184000E+00
        -11   -1    0    0    0    0  0.00000000000E+00  0.00000000000E+00  0.45593999997E+02  0.45594000000E+02  0.51100000000E-03 0.  1.
         11   -1    0    0    0    0 -0.00000000000E+00 -0.00000000000E+00 -0.45593999997E+02  0.45594000000E+02  0.51100000000E-03 0. -1.
         23    2    1    2    0    0  0.00000000000E+00 -0.88817841970E-15  0.00000000000E+00  0.91188000000E+02  0.91188000000E+02 0.  0.
    9900012    2    3    3    0    0  0.32745940362E+02 -0.40550434142E+01 -0.16341328738E+02  0.54367095446E+02  0.40000025688E+02 0.  0.
        -12    1    3    3    0    0 -0.32745940362E+02  0.40550434142E+01  0.16341328738E+02  0.36820904554E+02  0.00000000000E+00 0.  1.
         11    1    4    4    0    0  0.14760554186E+02 -0.55629702929E+01  0.96428944659E+01  0.18487996439E+02  0.51100000000E-03 0. -1.
        -11    1    4    4    0    0 -0.17075770801E+01  0.39154268051E+01 -0.18985953900E+01  0.46745108051E+01  0.51100000000E-03 0.  1.
         12    1    4    4    0    0  0.19692963255E+02 -0.24074999264E+01 -0.24085627814E+02  0.31204588202E+02  0.00000000000E+00 0. -1.
</event>
<event>
 8    1  0.2512298E-006  0.9118800E+02  0.7816164E-02  0.1184000E+00
        -11   -1    0    0    0    0  0.00000000000E+00  0.00000000000E+00  0.45593999997E+02  0.45594000000E+02  0.51100000000E-03 0. -1.
         11   -1    0    0    0    0 -0.00000000000E+00 -0.00000000000E+00 -0.45593999997E+02  0.45594000000E+02  0.51100000000E-03 0.  1.
         23    2    1    2    0    0  0.88817841970E-15 -0.71054273576E-14  0.17763568394E-14  0.91188000000E+02  0.91188000000E+02 0.  0.
    9900012    2    3    3    0    0  0.78920051874E+01 -0.34305055865E+02 -0.10800955155E+02  0.54367065248E+02  0.39999956846E+02 0.  0.
         12    1    3    3    0    0 -0.78920051874E+01  0.34305055865E+02  0.10800955155E+02  0.36820934752E+02  0.00000000000E+00 0. -1.
         11    1    4    4    0    0  0.72680783081E+01 -0.10542146556E+00 -0.16754389113E+02  0.18263231663E+02  0.51100000000E-03 0. -1.
        -11    1    4    4    0    0  0.16370275013E+01 -0.18540007942E+02  0.80379269414E+01  0.20273628765E+02  0.51100000000E-03 0.  1.
         12    1    4    4    0    0 -0.10131006220E+01 -0.15659626457E+02 -0.20844929838E+01  0.15830204820E+02  0.00000000000E+00 0. -1.
</event>
<event>
 8    1  0.2512298E-006  0.9118800E+02  0.7816164E-02  0.1184000E+00
        -11   -1    0    0    0    0  0.00000000000E+00  0.00000000000E+00  0.45593999997E+02  0.45594000000E+02  0.51100000000E-03 0. -1.
         11   -1    0    0    0    0 -0.00000000000E+00 -0.00000000000E+00 -0.45593999997E+02  0.45594000000E+02  0.51100000000E-03 0.  1.
         23    2    1    2    0    0 -0.22204460493E-15  0.00000000000E+00 -0.71054273576E-14  0.91188000000E+02  0.91188000000E+02 0.  0.
    9900012    2    3    3    0    0  0.11821379530E+01 -0.45353148499E+01 -0.36521418662E+02  0.54367074536E+02  0.39999978019E+02 0.  0.
         12    1    3    3    0    0 -0.11821379530E+01  0.45353148499E+01  0.36521418662E+02  0.36820925464E+02  0.00000000000E+00 0. -1.
         11    1    4    4    0    0  0.44964432286E+01 -0.14877470903E+02 -0.13740776001E+02  0.20745266148E+02  0.51100000000E-03 0. -1.
        -11    1    4    4    0    0  0.25752821414E+01  0.13733494100E+02 -0.22897983993E+02  0.26824589642E+02  0.51100000000E-03 0.  1.
         12    1    4    4    0    0 -0.58895874170E+01 -0.33913380468E+01  0.11734133086E+00  0.67972187458E+01  0.00000000000E+00 0. -1.
</event>
<event>
 8    1  0.2512298E-006  0.9118800E+02  0.7816164E-02  0.1184000E+00
        -11   -1    0    0    0    0  0.00000000000E+00  0.00000000000E+00  0.45593999997E+02  0.45594000000E+02  0.51100000000E-03 0.  1.
         11   -1    0    0    0    0 -0.00000000000E+00 -0.00000000000E+00 -0.45593999997E+02  0.45594000000E+02  0.51100000000E-03 0. -1.
         23    2    1    2    0    0  0.00000000000E+00  0.35527136788E-14 -0.35527136788E-14  0.91188000000E+02  0.91188000000E+02 0.  0.
    9900012    2    3    3    0    0  0.16250903661E+02 -0.24483015703E+02  0.22187220991E+02  0.54367045327E+02  0.39999911432E+02 0.  0.
         12    1    3    3    0    0 -0.16250903661E+02  0.24483015703E+02 -0.22187220991E+02  0.36820954673E+02  0.00000000000E+00 0. -1.
         11    1    4    4    0    0  0.21482667760E+01  0.25975841931E+01  0.70728448865E+01  0.78350257709E+01  0.51100000000E-03 0. -1.
        -11    1    4    4    0    0 -0.32819334860E+01  0.40127180216E+01  0.90023308758E+01  0.10388212300E+02  0.51100000000E-03 0.  1.
        -12    1    4    4    0    0  0.17384570371E+02 -0.31093317918E+02  0.61120452289E+01  0.36143807256E+02  0.00000000000E+00 0.  1.
</event>
<event>
 8    1  0.2512298E-006  0.9118800E+02  0.7816164E-02  0.1184000E+00
        -11   -1    0    0    0    0  0.00000000000E+00  0.00000000000E+00  0.45593999997E+02  0.45594000000E+02  0.51100000000E-03 0.  1.
         11   -1    0    0    0    0 -0.00000000000E+00 -0.00000000000E+00 -0.45593999997E+02  0.45594000000E+02  0.51100000000E-03 0. -1.
         23    2    1    2    0    0  0.00000000000E+00 -0.71054273576E-14 -0.35527136788E-14  0.91188000000E+02  0.91188000000E+02 0.  0.
    9900012    2    3    3    0    0  0.27592945133E+01 -0.32129494622E+02 -0.17772498137E+02  0.54367084464E+02  0.40000000652E+02 0.  0.
         12    1    3    3    0    0 -0.27592945133E+01  0.32129494622E+02  0.17772498137E+02  0.36820915536E+02  0.00000000000E+00 0. -1.
         11    1    4    4    0    0 -0.49834681877E+01  0.41749541304E+01 -0.14347390694E+00  0.65027518938E+01  0.51100000000E-03 0. -1.
        -11    1    4    4    0    0  0.50524194529E+01 -0.24008017316E+01  0.45929758044E+01  0.72378324299E+01  0.51100000000E-03 0.  1.
         12    1    4    4    0    0  0.26903432481E+01 -0.33903647021E+02 -0.22222000034E+02  0.40626500140E+02  0.00000000000E+00 0. -1.
</event>
<event>
 8    1  0.2512298E-006  0.9118800E+02  0.7816164E-02  0.1184000E+00
        -11   -1    0    0    0    0  0.00000000000E+00  0.00000000000E+00  0.45593999997E+02  0.45594000000E+02  0.51100000000E-03 0.  1.
         11   -1    0    0    0    0 -0.00000000000E+00 -0.00000000000E+00 -0.45593999997E+02  0.45594000000E+02  0.51100000000E-03 0. -1.
         23    2    1    2    0    0  0.17763568394E-14  0.00000000000E+00  0.00000000000E+00  0.91188000000E+02  0.91188000000E+02 0.  0.
    9900012    2    3    3    0    0  0.11498117453E+02 -0.34423097062E+02 -0.62147877156E+01  0.54367083354E+02  0.39999998122E+02 0.  0.
        -12    1    3    3    0    0 -0.11498117453E+02  0.34423097062E+02  0.62147877156E+01  0.36820916646E+02  0.00000000000E+00 0.  1.
         11    1    4    4    0    0  0.13276896933E+02 -0.18751384055E+02 -0.11604380069E+02  0.25740086114E+02  0.51100000000E-03 0. -1.
        -11    1    4    4    0    0 -0.46262343897E+01 -0.43902821572E+01  0.13167981267E+02  0.14631211603E+02  0.51100000000E-03 0.  1.
        -12    1    4    4    0    0  0.28474549098E+01 -0.11281430850E+02 -0.77783889144E+01  0.13995785637E+02  0.00000000000E+00 0.  1.
</event>
<event>
 8    1  0.2512298E-006  0.9118800E+02  0.7816164E-02  0.1184000E+00
        -11   -1    0    0    0    0  0.00000000000E+00  0.00000000000E+00  0.45593999997E+02  0.45594000000E+02  0.51100000000E-03 0.  1.
         11   -1    0    0    0    0 -0.00000000000E+00 -0.00000000000E+00 -0.45593999997E+02  0.45594000000E+02  0.51100000000E-03 0. -1.
         23    2    1    2    0    0  0.00000000000E+00  0.00000000000E+00  0.00000000000E+00  0.91188000000E+02  0.91188000000E+02 0.  0.
    9900012    2    3    3    0    0 -0.17159762627E+02  0.23607921641E+02 -0.22449715411E+02  0.54367066556E+02  0.39999959828E+02 0.  0.
        -12    1    3    3    0    0  0.17159762627E+02 -0.23607921641E+02  0.22449715411E+02  0.36820933444E+02  0.00000000000E+00 0.  1.
         11    1    4    4    0    0  0.10221480508E+02 -0.45574929535E+00 -0.95600404710E+01  0.14002883462E+02  0.51100000000E-03 0.  1.
        -11    1    4    4    0    0 -0.16487840340E+02  0.16179945841E+02 -0.13761570193E+02  0.26889037561E+02  0.51100000000E-03 0. -1.
        -12    1    4    4    0    0 -0.10893402794E+02  0.78837250949E+01  0.87189525279E+00  0.13475145533E+02  0.00000000000E+00 0.  1.
</event>
<event>
 8    1  0.2512298E-006  0.9118800E+02  0.7816164E-02  0.1184000E+00
        -11   -1    0    0    0    0  0.00000000000E+00  0.00000000000E+00  0.45593999997E+02  0.45594000000E+02  0.51100000000E-03 0. -1.
         11   -1    0    0    0    0 -0.00000000000E+00 -0.00000000000E+00 -0.45593999997E+02  0.45594000000E+02  0.51100000000E-03 0.  1.
         23    2    1    2    0    0  0.00000000000E+00  0.00000000000E+00  0.00000000000E+00  0.91188000000E+02  0.91188000000E+02 0.  0.
    9900012    2    3    3    0    0  0.27376507629E+02 -0.17220002128E+02 -0.17600517268E+02  0.54367084050E+02  0.39999999709E+02 0.  0.
         12    1    3    3    0    0 -0.27376507629E+02  0.17220002128E+02  0.17600517268E+02  0.36820915950E+02  0.00000000000E+00 0. -1.
         11    1    4    4    0    0 -0.47019322307E+01 -0.65066353965E+01 -0.59251329160E+01  0.99775583796E+01  0.51100000000E-03 0. -1.
        -11    1    4    4    0    0  0.23686685780E+02 -0.52805693195E+01 -0.19947400462E+02  0.31414045920E+02  0.51100000000E-03 0.  1.
        -12    1    4    4    0    0  0.83917540797E+01 -0.54327974121E+01  0.82720161097E+01  0.12975479751E+02  0.00000000000E+00 0.  1.
</event>
<event>
 8    1  0.2512298E-006  0.9118800E+02  0.7816164E-02  0.1184000E+00
        -11   -1    0    0    0    0  0.00000000000E+00  0.00000000000E+00  0.45593999997E+02  0.45594000000E+02  0.51100000000E-03 0. -1.
         11   -1    0    0    0    0 -0.00000000000E+00 -0.00000000000E+00 -0.45593999997E+02  0.45594000000E+02  0.51100000000E-03 0.  1.
         23    2    1    2    0    0  0.35527136788E-14  0.17763568394E-14  0.00000000000E+00  0.91188000000E+02  0.91188000000E+02 0.  0.
    9900012    2    3    3    0    0 -0.26600407290E+02 -0.77503309859E+01  0.24251428490E+02  0.54367067337E+02  0.39999961609E+02 0.  0.
        -12    1    3    3    0    0  0.26600407290E+02  0.77503309859E+01 -0.24251428490E+02  0.36820932663E+02  0.00000000000E+00 0.  1.
         11    1    4    4    0    0 -0.19906567197E+02 -0.14702445263E+02  0.25913564460E+02  0.35832194149E+02  0.51100000000E-03 0. -1.
        -11    1    4    4    0    0 -0.82075549596E+01  0.50634257830E+01  0.54116843314E+01  0.11058416100E+02  0.51100000000E-03 0.  1.
        -12    1    4    4    0    0  0.15137148667E+01  0.18886884942E+01 -0.70738203019E+01  0.74764570881E+01  0.00000000000E+00 0.  1.
</event>
<event>
 8    1  0.2512298E-006  0.9118800E+02  0.7816164E-02  0.1184000E+00
        -11   -1    0    0    0    0  0.00000000000E+00  0.00000000000E+00  0.45593999997E+02  0.45594000000E+02  0.51100000000E-03 0. -1.
         11   -1    0    0    0    0 -0.00000000000E+00 -0.00000000000E+00 -0.45593999997E+02  0.45594000000E+02  0.51100000000E-03 0.  1.
         23    2    1    2    0    0  0.17763568394E-14  0.00000000000E+00  0.00000000000E+00  0.91188000000E+02  0.91188000000E+02 0.  0.
    9900012    2    3    3    0    0  0.12608347398E+02  0.33478389085E+02  0.87181918546E+01  0.54367084354E+02  0.40000000401E+02 0.  0.
         12    1    3    3    0    0 -0.12608347398E+02 -0.33478389085E+02 -0.87181918546E+01  0.36820915646E+02  0.00000000000E+00 0. -1.
         11    1    4    4    0    0 -0.14954628774E+01  0.12020881318E+01  0.82603479449E+01  0.84802578691E+01  0.51100000000E-03 0. -1.
        -11    1    4    4    0    0  0.12250453665E+02  0.97957391737E+01 -0.12335307986E+02  0.19954697300E+02  0.51100000000E-03 0.  1.
        -12    1    4    4    0    0  0.18533566102E+01  0.22480561779E+02  0.12793151896E+02  0.25932129185E+02  0.00000000000E+00 0.  1.
</event>
<event>
 8    1  0.2512298E-006  0.9118800E+02  0.7816164E-02  0.1184000E+00
        -11   -1    0    0    0    0  0.00000000000E+00  0.00000000000E+00  0.45593999997E+02  0.45594000000E+02  0.51100000000E-03 0. -1.
         11   -1    0    0    0    0 -0.00000000000E+00 -0.00000000000E+00 -0.45593999997E+02  0.45594000000E+02  0.51100000000E-03 0.  1.
         23    2    1    2    0    0  0.17763568394E-14  0.00000000000E+00  0.00000000000E+00  0.91188000000E+02  0.91188000000E+02 0.  0.
    9900012    2    3    3    0    0 -0.11940619928E+02  0.34740242663E+02 -0.25133399541E+01  0.54367085531E+02  0.40000003086E+02 0.  0.
        -12    1    3    3    0    0  0.11940619928E+02 -0.34740242663E+02  0.25133399541E+01  0.36820914469E+02  0.00000000000E+00 0.  1.
         11    1    4    4    0    0 -0.63719477569E+01  0.10402836453E+01 -0.17888439459E+00  0.64587853477E+01  0.51100000000E-03 0. -1.
        -11    1    4    4    0    0 -0.50606155635E+00  0.39752884331E+02 -0.29168663807E+00  0.39757175356E+02  0.51100000000E-03 0.  1.
        -12    1    4    4    0    0 -0.50626106152E+01 -0.60529253132E+01 -0.20427689215E+01  0.81511248276E+01  0.00000000000E+00 0.  1.
</event>
<event>
 8    1  0.2512298E-006  0.9118800E+02  0.7816164E-02  0.1184000E+00
        -11   -1    0    0    0    0  0.00000000000E+00  0.00000000000E+00  0.45593999997E+02  0.45594000000E+02  0.51100000000E-03 0.  1.
         11   -1    0    0    0    0 -0.00000000000E+00 -0.00000000000E+00 -0.45593999997E+02  0.45594000000E+02  0.51100000000E-03 0. -1.
         23    2    1    2    0    0  0.00000000000E+00  0.00000000000E+00  0.00000000000E+00  0.91188000000E+02  0.91188000000E+02 0.  0.
    9900012    2    3    3    0    0  0.26652562547E+02 -0.22656866622E+02  0.11492961806E+02  0.54367070265E+02  0.39999968284E+02 0.  0.
         12    1    3    3    0    0 -0.26652562547E+02  0.22656866622E+02 -0.11492961806E+02  0.36820929735E+02  0.00000000000E+00 0. -1.
         11    1    4    4    0    0  0.27494576609E+01  0.80988659562E+01  0.88803560736E+01  0.12329309448E+02  0.51100000000E-03 0.  1.
        -11    1    4    4    0    0  0.74376223047E+01 -0.16032083744E+02 -0.54958251580E+01  0.18508107120E+02  0.51100000000E-03 0. -1.
        -12    1    4    4    0    0  0.16465482582E+02 -0.14723648834E+02  0.81084308908E+01  0.23529653698E+02  0.00000000000E+00 0.  1.
</event>
<event>
 8    1  0.2512298E-006  0.9118800E+02  0.7816164E-02  0.1184000E+00
        -11   -1    0    0    0    0  0.00000000000E+00  0.00000000000E+00  0.45593999997E+02  0.45594000000E+02  0.51100000000E-03 0.  1.
         11   -1    0    0    0    0 -0.00000000000E+00 -0.00000000000E+00 -0.45593999997E+02  0.45594000000E+02  0.51100000000E-03 0. -1.
         23    2    1    2    0    0  0.00000000000E+00  0.00000000000E+00 -0.71054273576E-14  0.91188000000E+02  0.91188000000E+02 0.  0.
    9900012    2    3    3    0    0  0.11974292715E+02 -0.31435360919E+01  0.34677280611E+02  0.54367091595E+02  0.40000016910E+02 0.  0.
         12    1    3    3    0    0 -0.11974292715E+02  0.31435360919E+01 -0.34677280611E+02  0.36820908405E+02  0.00000000000E+00 0. -1.
         11    1    4    4    0    0  0.12289966701E+01 -0.42218177111E+01  0.14860812352E+02  0.15497674717E+02  0.51100000000E-03 0. -1.
        -11    1    4    4    0    0  0.11113055230E+02  0.41081158509E+01 -0.57162513902E+01  0.13154928454E+02  0.51100000000E-03 0.  1.
        -12    1    4    4    0    0 -0.36775918594E+00 -0.30298342318E+01  0.25532719649E+02  0.25714488425E+02  0.00000000000E+00 0.  1.
</event>
<event>
 8    1  0.2512298E-006  0.9118800E+02  0.7816164E-02  0.1184000E+00
        -11   -1    0    0    0    0  0.00000000000E+00  0.00000000000E+00  0.45593999997E+02  0.45594000000E+02  0.51100000000E-03 0. -1.
         11   -1    0    0    0    0 -0.00000000000E+00 -0.00000000000E+00 -0.45593999997E+02  0.45594000000E+02  0.51100000000E-03 0.  1.
         23    2    1    2    0    0 -0.35527136788E-14  0.44408920985E-15  0.35527136788E-14  0.91188000000E+02  0.91188000000E+02 0.  0.
    9900012    2    3    3    0    0  0.23122871926E+02  0.27985686076E+01 -0.28518075601E+02  0.54367084363E+02  0.40000000423E+02 0.  0.
         12    1    3    3    0    0 -0.23122871926E+02 -0.27985686076E+01  0.28518075601E+02  0.36820915637E+02  0.00000000000E+00 0. -1.
         11    1    4    4    0    0  0.23875924828E+02  0.11821956939E+02 -0.59908437761E+01  0.27307666720E+02  0.51100000000E-03 0. -1.
        -11    1    4    4    0    0 -0.30219500674E+01  0.19947719597E+01 -0.70544516023E+01  0.79294757110E+01  0.51100000000E-03 0.  1.
        -12    1    4    4    0    0  0.22688971646E+01 -0.11018160291E+02 -0.15472780222E+02  0.19129941933E+02  0.00000000000E+00 0.  1.
</event>
<event>
 8    1  0.2512298E-006  0.9118800E+02  0.7816164E-02  0.1184000E+00
        -11   -1    0    0    0    0  0.00000000000E+00  0.00000000000E+00  0.45593999997E+02  0.45594000000E+02  0.51100000000E-03 0. -1.
         11   -1    0    0    0    0 -0.00000000000E+00 -0.00000000000E+00 -0.45593999997E+02  0.45594000000E+02  0.51100000000E-03 0.  1.
         23    2    1    2    0    0  0.00000000000E+00  0.44408920985E-15  0.00000000000E+00  0.91188000000E+02  0.91188000000E+02 0.  0.
    9900012    2    3    3    0    0 -0.33976179288E+02 -0.26589675733E+01 -0.13940225753E+02  0.54367071690E+02  0.39999971532E+02 0.  0.
         12    1    3    3    0    0  0.33976179288E+02  0.26589675733E+01  0.13940225753E+02  0.36820928310E+02  0.00000000000E+00 0. -1.
         11    1    4    4    0    0  0.39272949818E+01  0.10403757493E+02 -0.78536697658E+01  0.13614034850E+02  0.51100000000E-03 0. -1.
        -11    1    4    4    0    0 -0.75801584134E+01 -0.43090160670E+01 -0.17782905897E+01  0.88988054659E+01  0.51100000000E-03 0.  1.
         12    1    4    4    0    0 -0.30323315856E+02 -0.87537089989E+01 -0.43082653976E+01  0.31854231375E+02  0.00000000000E+00 0. -1.
</event>
<event>
 8    1  0.2512298E-006  0.9118800E+02  0.7816164E-02  0.1184000E+00
        -11   -1    0    0    0    0  0.00000000000E+00  0.00000000000E+00  0.45593999997E+02  0.45594000000E+02  0.51100000000E-03 0. -1.
         11   -1    0    0    0    0 -0.00000000000E+00 -0.00000000000E+00 -0.45593999997E+02  0.45594000000E+02  0.51100000000E-03 0.  1.
         23    2    1    2    0    0  0.00000000000E+00  0.22204460493E-14  0.35527136788E-14  0.91188000000E+02  0.91188000000E+02 0.  0.
    9900012    2    3    3    0    0 -0.25006426219E+02 -0.31576365515E+01 -0.26841895274E+02  0.54367090686E+02  0.40000014836E+02 0.  0.
         12    1    3    3    0    0  0.25006426219E+02  0.31576365515E+01  0.26841895274E+02  0.36820909314E+02  0.00000000000E+00 0. -1.
         11    1    4    4    0    0 -0.11644866308E+02  0.26708440612E+01 -0.18033276929E+01  0.12082562243E+02  0.51100000000E-03 0. -1.
        -11    1    4    4    0    0 -0.80443912546E+01  0.86066257943E+01  0.12282197465E+01  0.11844608994E+02  0.51100000000E-03 0.  1.
        -12    1    4    4    0    0 -0.53171686567E+01 -0.14435106407E+02 -0.26266787328E+02  0.30439919448E+02  0.00000000000E+00 0.  1.
</event>
<event>
 8    1  0.2512298E-006  0.9118800E+02  0.7816164E-02  0.1184000E+00
        -11   -1    0    0    0    0  0.00000000000E+00  0.00000000000E+00  0.45593999997E+02  0.45594000000E+02  0.51100000000E-03 0.  1.
         11   -1    0    0    0    0 -0.00000000000E+00 -0.00000000000E+00 -0.45593999997E+02  0.45594000000E+02  0.51100000000E-03 0. -1.
         23    2    1    2    0    0  0.00000000000E+00  0.17763568394E-14  0.00000000000E+00  0.91188000000E+02  0.91188000000E+02 0.  0.
    9900012    2    3    3    0    0 -0.33471489524E+02 -0.13328301490E+02 -0.76023370322E+01  0.54367085292E+02  0.40000002541E+02 0.  0.
        -12    1    3    3    0    0  0.33471489524E+02  0.13328301490E+02  0.76023370322E+01  0.36820914708E+02  0.00000000000E+00 0.  1.
         11    1    4    4    0    0 -0.22930035320E+02  0.17296368636E+01 -0.31866380053E+01  0.23214926782E+02  0.51100000000E-03 0. -1.
        -11    1    4    4    0    0 -0.95357885051E+01 -0.19823986743E+02  0.30800111704E+01  0.22212793202E+02  0.51100000000E-03 0.  1.
        -12    1    4    4    0    0 -0.10056656990E+01  0.47660483892E+01 -0.74957101973E+01  0.89393653079E+01  0.00000000000E+00 0.  1.
</event>
<event>
 8    1  0.2512298E-006  0.9118800E+02  0.7816164E-02  0.1184000E+00
        -11   -1    0    0    0    0  0.00000000000E+00  0.00000000000E+00  0.45593999997E+02  0.45594000000E+02  0.51100000000E-03 0. -1.
         11   -1    0    0    0    0 -0.00000000000E+00 -0.00000000000E+00 -0.45593999997E+02  0.45594000000E+02  0.51100000000E-03 0.  1.
         23    2    1    2    0    0  0.00000000000E+00  0.00000000000E+00  0.00000000000E+00  0.91188000000E+02  0.91188000000E+02 0.  0.
    9900012    2    3    3    0    0  0.23279263702E+02  0.27428974596E+02  0.78426538081E+01  0.54367082240E+02  0.39999995583E+02 0.  0.
        -12    1    3    3    0    0 -0.23279263702E+02 -0.27428974596E+02 -0.78426538081E+01  0.36820917760E+02  0.00000000000E+00 0.  1.
         11    1    4    4    0    0  0.64396071056E+01 -0.53984469482E+01  0.28325516871E+01  0.88676444701E+01  0.51100000000E-03 0. -1.
        -11    1    4    4    0    0  0.18908301947E+02  0.34001346659E+02 -0.11228451074E+01  0.38921411055E+02  0.51100000000E-03 0.  1.
        -12    1    4    4    0    0 -0.20686453500E+01 -0.11739251141E+01  0.61329472284E+01  0.65780267151E+01  0.00000000000E+00 0.  1.
</event>
<event>
 8    1  0.2512298E-006  0.9118800E+02  0.7816164E-02  0.1184000E+00
        -11   -1    0    0    0    0  0.00000000000E+00  0.00000000000E+00  0.45593999997E+02  0.45594000000E+02  0.51100000000E-03 0.  1.
         11   -1    0    0    0    0 -0.00000000000E+00 -0.00000000000E+00 -0.45593999997E+02  0.45594000000E+02  0.51100000000E-03 0. -1.
         23    2    1    2    0    0  0.00000000000E+00 -0.35527136788E-14 -0.35527136788E-14  0.91188000000E+02  0.91188000000E+02 0.  0.
    9900012    2    3    3    0    0 -0.80563319020E+01 -0.20823074040E+02 -0.29279261997E+02  0.54367080956E+02  0.39999992655E+02 0.  0.
        -12    1    3    3    0    0  0.80563319020E+01  0.20823074040E+02  0.29279261997E+02  0.36820919044E+02  0.00000000000E+00 0.  1.
         11    1    4    4    0    0 -0.10498902761E+02 -0.10438453130E+02 -0.74984195104E+01  0.16595618649E+02  0.51100000000E-03 0. -1.
        -11    1    4    4    0    0 -0.12189066627E+02 -0.69264120904E+01 -0.41928100727E+01  0.14633119498E+02  0.51100000000E-03 0.  1.
        -12    1    4    4    0    0  0.14631637486E+02 -0.34582088203E+01 -0.17588032414E+02  0.23138342809E+02  0.00000000000E+00 0.  1.
</event>
<event>
 8    1  0.2512298E-006  0.9118800E+02  0.7816164E-02  0.1184000E+00
        -11   -1    0    0    0    0  0.00000000000E+00  0.00000000000E+00  0.45593999997E+02  0.45594000000E+02  0.51100000000E-03 0.  1.
         11   -1    0    0    0    0 -0.00000000000E+00 -0.00000000000E+00 -0.45593999997E+02  0.45594000000E+02  0.51100000000E-03 0. -1.
         23    2    1    2    0    0 -0.71054273576E-14  0.17763568394E-14  0.00000000000E+00  0.91188000000E+02  0.91188000000E+02 0.  0.
    9900012    2    3    3    0    0 -0.33743010840E+02  0.14146855557E+02 -0.41294150328E+01  0.54367131308E+02  0.40000107443E+02 0.  0.
         12    1    3    3    0    0  0.33743010840E+02 -0.14146855557E+02  0.41294150328E+01  0.36820868692E+02  0.00000000000E+00 0. -1.
         11    1    4    4    0    0  0.16652509001E+01  0.41782093247E+01 -0.63922881325E+01  0.78161270173E+01  0.51100000000E-03 0. -1.
        -11    1    4    4    0    0 -0.29537102592E+02  0.16364936267E+01  0.12490734627E+02  0.32111321877E+02  0.51100000000E-03 0.  1.
        -12    1    4    4    0    0 -0.58711591486E+01  0.83321526053E+01 -0.10227861527E+02  0.14439682414E+02  0.00000000000E+00 0.  1.
</event>
<event>
 8    1  0.2512298E-006  0.9118800E+02  0.7816164E-02  0.1184000E+00
        -11   -1    0    0    0    0  0.00000000000E+00  0.00000000000E+00  0.45593999997E+02  0.45594000000E+02  0.51100000000E-03 0. -1.
         11   -1    0    0    0    0 -0.00000000000E+00 -0.00000000000E+00 -0.45593999997E+02  0.45594000000E+02  0.51100000000E-03 0.  1.
         23    2    1    2    0    0 -0.35527136788E-14 -0.17763568394E-14 -0.35527136788E-14  0.91188000000E+02  0.91188000000E+02 0.  0.
    9900012    2    3    3    0    0  0.23751817231E+02  0.12776778550E+02  0.25067625710E+02  0.54367071839E+02  0.39999971872E+02 0.  0.
        -12    1    3    3    0    0 -0.23751817231E+02 -0.12776778550E+02 -0.25067625710E+02  0.36820928161E+02  0.00000000000E+00 0.  1.
         11    1    4    4    0    0  0.25603411300E+02  0.10220277276E+02  0.25042130219E+02  0.37243751475E+02  0.51100000000E-03 0. -1.
        -11    1    4    4    0    0 -0.69214409960E+01  0.56536167199E+01 -0.41582483535E+01  0.98570156288E+01  0.51100000000E-03 0.  1.
        -12    1    4    4    0    0  0.50698469270E+01 -0.30971154455E+01  0.41837438450E+01  0.72663047354E+01  0.00000000000E+00 0.  1.
</event>
<event>
 8    1  0.2512298E-006  0.9118800E+02  0.7816164E-02  0.1184000E+00
        -11   -1    0    0    0    0  0.00000000000E+00  0.00000000000E+00  0.45593999997E+02  0.45594000000E+02  0.51100000000E-03 0. -1.
         11   -1    0    0    0    0 -0.00000000000E+00 -0.00000000000E+00 -0.45593999997E+02  0.45594000000E+02  0.51100000000E-03 0.  1.
         23    2    1    2    0    0 -0.35527136788E-14  0.17763568394E-14  0.00000000000E+00  0.91188000000E+02  0.91188000000E+02 0.  0.
    9900012    2    3    3    0    0 -0.18487931153E+02  0.15147387216E+02  0.28009643767E+02  0.54366985868E+02  0.39999775882E+02 0.  0.
        -12    1    3    3    0    0  0.18487931153E+02 -0.15147387216E+02 -0.28009643767E+02  0.36821014132E+02  0.00000000000E+00 0.  1.
         11    1    4    4    0    0 -0.20176917595E+02  0.14501803310E+02  0.27097784311E+02  0.36765475894E+02  0.51100000000E-03 0. -1.
        -11    1    4    4    0    0 -0.27852679740E+01  0.11040477779E+01  0.83711492096E+01  0.88911629461E+01  0.51100000000E-03 0.  1.
        -12    1    4    4    0    0  0.44742544163E+01 -0.45846387165E+00 -0.74592897543E+01  0.87103470277E+01  0.00000000000E+00 0.  1.
</event>
<event>
 8    1  0.2512298E-006  0.9118800E+02  0.7816164E-02  0.1184000E+00
        -11   -1    0    0    0    0  0.00000000000E+00  0.00000000000E+00  0.45593999997E+02  0.45594000000E+02  0.51100000000E-03 0. -1.
         11   -1    0    0    0    0 -0.00000000000E+00 -0.00000000000E+00 -0.45593999997E+02  0.45594000000E+02  0.51100000000E-03 0.  1.
         23    2    1    2    0    0  0.00000000000E+00  0.88817841970E-15  0.17763568394E-14  0.91188000000E+02  0.91188000000E+02 0.  0.
    9900012    2    3    3    0    0  0.35365199563E+02  0.19785179439E+01  0.10058277619E+02  0.54367070869E+02  0.39999969660E+02 0.  0.
        -12    1    3    3    0    0 -0.35365199563E+02 -0.19785179439E+01 -0.10058277619E+02  0.36820929131E+02  0.00000000000E+00 0.  1.
         11    1    4    4    0    0  0.21735321045E+02  0.17262595853E+02  0.10389148355E+02  0.29637068011E+02  0.51100000000E-03 0. -1.
        -11    1    4    4    0    0 -0.15777755085E+01 -0.20161766283E+01 -0.34628883793E+01  0.43064997319E+01  0.51100000000E-03 0.  1.
         12    1    4    4    0    0  0.15207654027E+02 -0.13267901281E+02  0.31320176440E+01  0.20423503126E+02  0.00000000000E+00 0. -1.
</event>
<event>
 8    1  0.2512298E-006  0.9118800E+02  0.7816164E-02  0.1184000E+00
        -11   -1    0    0    0    0  0.00000000000E+00  0.00000000000E+00  0.45593999997E+02  0.45594000000E+02  0.51100000000E-03 0. -1.
         11   -1    0    0    0    0 -0.00000000000E+00 -0.00000000000E+00 -0.45593999997E+02  0.45594000000E+02  0.51100000000E-03 0.  1.
         23    2    1    2    0    0 -0.17763568394E-14  0.00000000000E+00  0.71054273576E-14  0.91188000000E+02  0.91188000000E+02 0.  0.
    9900012    2    3    3    0    0 -0.15266630105E+02 -0.40882981469E+01 -0.33256506462E+02  0.54367090199E+02  0.40000013728E+02 0.  0.
         12    1    3    3    0    0  0.15266630105E+02  0.40882981469E+01  0.33256506462E+02  0.36820909801E+02  0.00000000000E+00 0. -1.
         11    1    4    4    0    0  0.35312358101E+01  0.22663917344E+00 -0.95776629219E+00  0.36658298096E+01  0.51100000000E-03 0. -1.
        -11    1    4    4    0    0 -0.53951718614E+01  0.15067685352E+01  0.68882911112E+01  0.88784449949E+01  0.51100000000E-03 0.  1.
        -12    1    4    4    0    0 -0.13402694054E+02 -0.58217058556E+01 -0.39187031281E+02  0.41822815395E+02  0.00000000000E+00 0.  1.
</event>
<event>
 8    1  0.2512298E-006  0.9118800E+02  0.7816164E-02  0.1184000E+00
        -11   -1    0    0    0    0  0.00000000000E+00  0.00000000000E+00  0.45593999997E+02  0.45594000000E+02  0.51100000000E-03 0.  1.
         11   -1    0    0    0    0 -0.00000000000E+00 -0.00000000000E+00 -0.45593999997E+02  0.45594000000E+02  0.51100000000E-03 0. -1.
         23    2    1    2    0    0  0.88817841970E-15 -0.35527136788E-14 -0.35527136788E-14  0.91188000000E+02  0.91188000000E+02 0.  0.
    9900012    2    3    3    0    0  0.49374138656E+01 -0.29875604373E+02 -0.20948756988E+02  0.54367079158E+02  0.39999988556E+02 0.  0.
        -12    1    3    3    0    0 -0.49374138656E+01  0.29875604373E+02  0.20948756988E+02  0.36820920842E+02  0.00000000000E+00 0.  1.
         11    1    4    4    0    0  0.14066688332E+02 -0.29356016489E+02 -0.23432216076E+02  0.40108804210E+02  0.51100000000E-03 0. -1.
        -11    1    4    4    0    0 -0.15033862157E+01 -0.42253008737E+01  0.35407195710E+01  0.57140207322E+01  0.51100000000E-03 0.  1.
        -12    1    4    4    0    0 -0.76258882506E+01  0.37057129889E+01 -0.10572604828E+01  0.85442542152E+01  0.00000000000E+00 0.  1.
</event>
<event>
 8    1  0.2512298E-006  0.9118800E+02  0.7816164E-02  0.1184000E+00
        -11   -1    0    0    0    0  0.00000000000E+00  0.00000000000E+00  0.45593999997E+02  0.45594000000E+02  0.51100000000E-03 0.  1.
         11   -1    0    0    0    0 -0.00000000000E+00 -0.00000000000E+00 -0.45593999997E+02  0.45594000000E+02  0.51100000000E-03 0. -1.
         23    2    1    2    0    0 -0.35527136788E-14  0.00000000000E+00  0.00000000000E+00  0.91188000000E+02  0.91188000000E+02 0.  0.
    9900012    2    3    3    0    0 -0.21188882501E+01  0.11026584434E+02  0.35067159558E+02  0.54367069387E+02  0.39999966282E+02 0.  0.
         12    1    3    3    0    0  0.21188882501E+01 -0.11026584434E+02 -0.35067159558E+02  0.36820930613E+02  0.00000000000E+00 0. -1.
         11    1    4    4    0    0 -0.17462208095E+02 -0.26508903553E+01  0.18322699949E+02  0.25449504217E+02  0.51100000000E-03 0. -1.
        -11    1    4    4    0    0  0.26494914170E+01  0.10169371409E+01  0.89121930291E+01  0.93531358787E+01  0.51100000000E-03 0.  1.
         12    1    4    4    0    0  0.12693828428E+02  0.12660537649E+02  0.78322665805E+01  0.19564429291E+02  0.00000000000E+00 0. -1.
</event>
<event>
 8    1  0.2512298E-006  0.9118800E+02  0.7816164E-02  0.1184000E+00
        -11   -1    0    0    0    0  0.00000000000E+00  0.00000000000E+00  0.45593999997E+02  0.45594000000E+02  0.51100000000E-03 0.  1.
         11   -1    0    0    0    0 -0.00000000000E+00 -0.00000000000E+00 -0.45593999997E+02  0.45594000000E+02  0.51100000000E-03 0. -1.
         23    2    1    2    0    0  0.00000000000E+00  0.00000000000E+00  0.00000000000E+00  0.91188000000E+02  0.91188000000E+02 0.  0.
    9900012    2    3    3    0    0 -0.29847567808E+01 -0.29003944451E+02  0.22486456029E+02  0.54367105504E+02  0.40000048617E+02 0.  0.
         12    1    3    3    0    0  0.29847567808E+01  0.29003944451E+02 -0.22486456029E+02  0.36820894496E+02  0.00000000000E+00 0. -1.
         11    1    4    4    0    0  0.68581692718E+01 -0.27300877584E+02  0.25624140690E+02  0.38065325284E+02  0.51100000000E-03 0. -1.
        -11    1    4    4    0    0 -0.30980067199E+01 -0.68001240675E+01 -0.22341616773E+01  0.77994109798E+01  0.51100000000E-03 0.  1.
         12    1    4    4    0    0 -0.67449193326E+01  0.50970572005E+01 -0.90352298339E+00  0.85023692398E+01  0.00000000000E+00 0. -1.
</event>
<event>
 8    1  0.2512298E-006  0.9118800E+02  0.7816164E-02  0.1184000E+00
        -11   -1    0    0    0    0  0.00000000000E+00  0.00000000000E+00  0.45593999997E+02  0.45594000000E+02  0.51100000000E-03 0.  1.
         11   -1    0    0    0    0 -0.00000000000E+00 -0.00000000000E+00 -0.45593999997E+02  0.45594000000E+02  0.51100000000E-03 0. -1.
         23    2    1    2    0    0  0.00000000000E+00 -0.35527136788E-14 -0.38857805862E-15  0.91188000000E+02  0.91188000000E+02 0.  0.
    9900012    2    3    3    0    0 -0.21457005305E+02  0.29920867167E+02 -0.34274905002E+00  0.54367097708E+02  0.40000030844E+02 0.  0.
         12    1    3    3    0    0  0.21457005305E+02 -0.29920867167E+02  0.34274905002E+00  0.36820902292E+02  0.00000000000E+00 0. -1.
         11    1    4    4    0    0 -0.11021686854E+02 -0.48730970939E+01 -0.31945769358E+01  0.12467155989E+02  0.51100000000E-03 0. -1.
        -11    1    4    4    0    0 -0.15410480349E+02  0.29773192327E+02 -0.15713050210E+01  0.33561806949E+02  0.51100000000E-03 0.  1.
         12    1    4    4    0    0  0.49751618984E+01  0.50207719347E+01  0.44231329068E+01  0.83381347702E+01  0.00000000000E+00 0. -1.
</event>
<event>
 8    1  0.2512298E-006  0.9118800E+02  0.7816164E-02  0.1184000E+00
        -11   -1    0    0    0    0  0.00000000000E+00  0.00000000000E+00  0.45593999997E+02  0.45594000000E+02  0.51100000000E-03 0. -1.
         11   -1    0    0    0    0 -0.00000000000E+00 -0.00000000000E+00 -0.45593999997E+02  0.45594000000E+02  0.51100000000E-03 0.  1.
         23    2    1    2    0    0 -0.35527136788E-14  0.17763568394E-14  0.00000000000E+00  0.91188000000E+02  0.91188000000E+02 0.  0.
    9900012    2    3    3    0    0 -0.29999883570E+02  0.23711477274E+01 -0.21217097866E+02  0.54367073917E+02  0.39999976608E+02 0.  0.
         12    1    3    3    0    0  0.29999883570E+02 -0.23711477274E+01  0.21217097866E+02  0.36820926083E+02  0.00000000000E+00 0. -1.
         11    1    4    4    0    0 -0.17281772395E+02  0.17393015022E+02 -0.11626260141E+01  0.24546452456E+02  0.51100000000E-03 0. -1.
        -11    1    4    4    0    0  0.55125160785E+00 -0.34201638934E+01 -0.72482515551E+01  0.80335888780E+01  0.51100000000E-03 0.  1.
         12    1    4    4    0    0 -0.13269362783E+02 -0.11601703401E+02 -0.12806220296E+02  0.21787032583E+02  0.00000000000E+00 0. -1.
</event>
<event>
 8    1  0.2512298E-006  0.9118800E+02  0.7816164E-02  0.1184000E+00
        -11   -1    0    0    0    0  0.00000000000E+00  0.00000000000E+00  0.45593999997E+02  0.45594000000E+02  0.51100000000E-03 0.  1.
         11   -1    0    0    0    0 -0.00000000000E+00 -0.00000000000E+00 -0.45593999997E+02  0.45594000000E+02  0.51100000000E-03 0. -1.
         23    2    1    2    0    0  0.00000000000E+00  0.00000000000E+00  0.26645352591E-14  0.91188000000E+02  0.91188000000E+02 0.  0.
    9900012    2    3    3    0    0  0.28794089064E+02  0.21732149030E+02 -0.73752362932E+01  0.54367082347E+02  0.39999995826E+02 0.  0.
         12    1    3    3    0    0 -0.28794089064E+02 -0.21732149030E+02  0.73752362932E+01  0.36820917653E+02  0.00000000000E+00 0. -1.
         11    1    4    4    0    0  0.76346626056E+01  0.81201694689E+01 -0.19669107939E+02  0.22607499479E+02  0.51100000000E-03 0. -1.
        -11    1    4    4    0    0  0.53503206097E+01 -0.31706266335E+01  0.29233396686E+01  0.68720243709E+01  0.51100000000E-03 0.  1.
         12    1    4    4    0    0  0.15809105848E+02  0.16782606195E+02  0.93705319771E+01  0.24887558497E+02  0.00000000000E+00 0. -1.
</event>
<event>
 8    1  0.2512298E-006  0.9118800E+02  0.7816164E-02  0.1184000E+00
        -11   -1    0    0    0    0  0.00000000000E+00  0.00000000000E+00  0.45593999997E+02  0.45594000000E+02  0.51100000000E-03 0. -1.
         11   -1    0    0    0    0 -0.00000000000E+00 -0.00000000000E+00 -0.45593999997E+02  0.45594000000E+02  0.51100000000E-03 0.  1.
         23    2    1    2    0    0  0.00000000000E+00  0.00000000000E+00  0.88817841970E-15  0.91188000000E+02  0.91188000000E+02 0.  0.
    9900012    2    3    3    0    0 -0.31214870729E+02  0.18747136410E+02 -0.54732318878E+01  0.54367088204E+02  0.40000009179E+02 0.  0.
         12    1    3    3    0    0  0.31214870729E+02 -0.18747136410E+02  0.54732318878E+01  0.36820911796E+02  0.00000000000E+00 0. -1.
         11    1    4    4    0    0 -0.81113830863E+01  0.44141637341E+01  0.92600566104E+01  0.13077768377E+02  0.51100000000E-03 0. -1.
        -11    1    4    4    0    0 -0.22854972284E+02  0.12463242710E+02  0.40351085213E+00  0.26035456559E+02  0.51100000000E-03 0.  1.
         12    1    4    4    0    0 -0.24851535854E+00  0.18697299658E+01 -0.15136799350E+02  0.15253863268E+02  0.00000000000E+00 0. -1.
</event>
<event>
 8    1  0.2512298E-006  0.9118800E+02  0.7816164E-02  0.1184000E+00
        -11   -1    0    0    0    0  0.00000000000E+00  0.00000000000E+00  0.45593999997E+02  0.45594000000E+02  0.51100000000E-03 0.  1.
         11   -1    0    0    0    0 -0.00000000000E+00 -0.00000000000E+00 -0.45593999997E+02  0.45594000000E+02  0.51100000000E-03 0. -1.
         23    2    1    2    0    0  0.00000000000E+00 -0.38857805862E-15  0.00000000000E+00  0.91188000000E+02  0.91188000000E+02 0.  0.
    9900012    2    3    3    0    0 -0.11562190043E+02 -0.40353744119E+00  0.34956147008E+02  0.54367091610E+02  0.40000016943E+02 0.  0.
         12    1    3    3    0    0  0.11562190043E+02  0.40353744119E+00 -0.34956147008E+02  0.36820908390E+02  0.00000000000E+00 0. -1.
         11    1    4    4    0    0  0.56957005434E+01  0.73673794340E+01 -0.38640178711E+01  0.10082158438E+02  0.51100000000E-03 0. -1.
        -11    1    4    4    0    0 -0.94491799025E+01  0.60011761623E+00  0.21864921600E+02  0.23826916267E+02  0.51100000000E-03 0.  1.
         12    1    4    4    0    0 -0.78087106838E+01 -0.83710344915E+01  0.16955243279E+02  0.20458016904E+02  0.00000000000E+00 0. -1.
</event>
<event>
 8    1  0.2512298E-006  0.9118800E+02  0.7816164E-02  0.1184000E+00
        -11   -1    0    0    0    0  0.00000000000E+00  0.00000000000E+00  0.45593999997E+02  0.45594000000E+02  0.51100000000E-03 0.  1.
         11   -1    0    0    0    0 -0.00000000000E+00 -0.00000000000E+00 -0.45593999997E+02  0.45594000000E+02  0.51100000000E-03 0. -1.
         23    2    1    2    0    0  0.00000000000E+00  0.00000000000E+00  0.00000000000E+00  0.91188000000E+02  0.91188000000E+02 0.  0.
    9900012    2    3    3    0    0 -0.10847729405E+02 -0.20227099213E+02 -0.28791867749E+02  0.54367076271E+02  0.39999981974E+02 0.  0.
        -12    1    3    3    0    0  0.10847729405E+02  0.20227099213E+02  0.28791867749E+02  0.36820923729E+02  0.00000000000E+00 0.  1.
         11    1    4    4    0    0  0.78743571754E+01 -0.42542031695E+01 -0.19739432106E+01  0.91651621695E+01  0.51100000000E-03 0. -1.
        -11    1    4    4    0    0  0.36951502988E+00  0.66212016250E+01 -0.67128382073E+01  0.94360505178E+01  0.51100000000E-03 0.  1.
        -12    1    4    4    0    0 -0.19091601610E+02 -0.22594097668E+02 -0.20105086331E+02  0.35765863583E+02  0.00000000000E+00 0.  1.
</event>
<event>
 8    1  0.2512298E-006  0.9118800E+02  0.7816164E-02  0.1184000E+00
        -11   -1    0    0    0    0  0.00000000000E+00  0.00000000000E+00  0.45593999997E+02  0.45594000000E+02  0.51100000000E-03 0. -1.
         11   -1    0    0    0    0 -0.00000000000E+00 -0.00000000000E+00 -0.45593999997E+02  0.45594000000E+02  0.51100000000E-03 0.  1.
         23    2    1    2    0    0 -0.88817841970E-15  0.17763568394E-14  0.00000000000E+00  0.91188000000E+02  0.91188000000E+02 0.  0.
    9900012    2    3    3    0    0 -0.77256171466E+01 -0.10372148654E+02 -0.34474815076E+02  0.54367088788E+02  0.40000010509E+02 0.  0.
         12    1    3    3    0    0  0.77256171466E+01  0.10372148654E+02  0.34474815076E+02  0.36820911212E+02  0.00000000000E+00 0. -1.
         11    1    4    4    0    0  0.61865119762E+01 -0.12244670507E+02 -0.79699974847E+01  0.15865867339E+02  0.51100000000E-03 0. -1.
        -11    1    4    4    0    0 -0.49323665292E+01  0.59485882018E+01  0.22939647689E+01  0.80607825795E+01  0.51100000000E-03 0.  1.
        -12    1    4    4    0    0 -0.89797625936E+01 -0.40760663485E+01 -0.28798782360E+02  0.30440438869E+02  0.00000000000E+00 0.  1.
</event>
<event>
 8    1  0.2512298E-006  0.9118800E+02  0.7816164E-02  0.1184000E+00
        -11   -1    0    0    0    0  0.00000000000E+00  0.00000000000E+00  0.45593999997E+02  0.45594000000E+02  0.51100000000E-03 0.  1.
         11   -1    0    0    0    0 -0.00000000000E+00 -0.00000000000E+00 -0.45593999997E+02  0.45594000000E+02  0.51100000000E-03 0. -1.
         23    2    1    2    0    0  0.17763568394E-14  0.35527136788E-14  0.00000000000E+00  0.91188000000E+02  0.91188000000E+02 0.  0.
    9900012    2    3    3    0    0 -0.13004808333E+02 -0.24367054244E+02 -0.24349571993E+02  0.54367081644E+02  0.39999994225E+02 0.  0.
        -12    1    3    3    0    0  0.13004808333E+02  0.24367054244E+02  0.24349571993E+02  0.36820918356E+02  0.00000000000E+00 0.  1.
         11    1    4    4    0    0  0.56999856529E+00  0.10235944822E+02 -0.52560609297E+01  0.11520661506E+02  0.51100000000E-03 0. -1.
        -11    1    4    4    0    0 -0.27705084509E+01 -0.19809108220E+02 -0.10890171423E+02  0.22774378574E+02  0.51100000000E-03 0.  1.
         12    1    4    4    0    0 -0.10804298447E+02 -0.14793890846E+02 -0.82033396407E+01  0.20072041564E+02  0.00000000000E+00 0. -1.
</event>
<event>
 8    1  0.2512298E-006  0.9118800E+02  0.7816164E-02  0.1184000E+00
        -11   -1    0    0    0    0  0.00000000000E+00  0.00000000000E+00  0.45593999997E+02  0.45594000000E+02  0.51100000000E-03 0.  1.
         11   -1    0    0    0    0 -0.00000000000E+00 -0.00000000000E+00 -0.45593999997E+02  0.45594000000E+02  0.51100000000E-03 0. -1.
         23    2    1    2    0    0 -0.35527136788E-14  0.35527136788E-14  0.00000000000E+00  0.91188000000E+02  0.91188000000E+02 0.  0.
    9900012    2    3    3    0    0 -0.20285866563E+02  0.26267593092E+02 -0.15946030318E+02  0.54367099523E+02  0.40000034982E+02 0.  0.
        -12    1    3    3    0    0  0.20285866563E+02 -0.26267593092E+02  0.15946030318E+02  0.36820900477E+02  0.00000000000E+00 0.  1.
         11    1    4    4    0    0 -0.61009830521E+01  0.13270651632E+02 -0.43339376424E+01  0.15235327522E+02  0.51100000000E-03 0. -1.
        -11    1    4    4    0    0 -0.47753617378E+01 -0.10572970070E+02 -0.10700744988E+01  0.11650615243E+02  0.51100000000E-03 0.  1.
        -12    1    4    4    0    0 -0.94095217730E+01  0.23569911530E+02 -0.10542018177E+02  0.27481156758E+02  0.00000000000E+00 0.  1.
</event>
<event>
 8    1  0.2512298E-006  0.9118800E+02  0.7816164E-02  0.1184000E+00
        -11   -1    0    0    0    0  0.00000000000E+00  0.00000000000E+00  0.45593999997E+02  0.45594000000E+02  0.51100000000E-03 0. -1.
         11   -1    0    0    0    0 -0.00000000000E+00 -0.00000000000E+00 -0.45593999997E+02  0.45594000000E+02  0.51100000000E-03 0.  1.
         23    2    1    2    0    0 -0.17763568394E-14  0.00000000000E+00  0.00000000000E+00  0.91188000000E+02  0.91188000000E+02 0.  0.
    9900012    2    3    3    0    0  0.13064721710E+02  0.34399595599E+02 -0.13269618950E+01  0.54367082595E+02  0.39999996391E+02 0.  0.
         12    1    3    3    0    0 -0.13064721710E+02 -0.34399595599E+02  0.13269618950E+01  0.36820917405E+02  0.00000000000E+00 0. -1.
         11    1    4    4    0    0 -0.15005426969E+00  0.18177112937E+02  0.51844512281E+01  0.18902605265E+02  0.51100000000E-03 0. -1.
        -11    1    4    4    0    0  0.21843055689E+02  0.13029385983E+02 -0.29720031083E+01  0.25606967482E+02  0.51100000000E-03 0.  1.
        -12    1    4    4    0    0 -0.86282797087E+01  0.31930966785E+01 -0.35394100148E+01  0.98575098470E+01  0.00000000000E+00 0.  1.
</event>
<event>
 8    1  0.2512298E-006  0.9118800E+02  0.7816164E-02  0.1184000E+00
        -11   -1    0    0    0    0  0.00000000000E+00  0.00000000000E+00  0.45593999997E+02  0.45594000000E+02  0.51100000000E-03 0. -1.
         11   -1    0    0    0    0 -0.00000000000E+00 -0.00000000000E+00 -0.45593999997E+02  0.45594000000E+02  0.51100000000E-03 0.  1.
         23    2    1    2    0    0 -0.44408920985E-15 -0.71054273576E-14 -0.17763568394E-14  0.91188000000E+02  0.91188000000E+02 0.  0.
    9900012    2    3    3    0    0 -0.23183012151E+01 -0.35792835593E+02 -0.83232767894E+01  0.54367101901E+02  0.40000040404E+02 0.  0.
         12    1    3    3    0    0  0.23183012151E+01  0.35792835593E+02  0.83232767894E+01  0.36820898099E+02  0.00000000000E+00 0. -1.
         11    1    4    4    0    0 -0.13701827931E+01 -0.29339027670E+02  0.60475288259E+00  0.29377230499E+02  0.51100000000E-03 0. -1.
        -11    1    4    4    0    0 -0.14704273427E+01 -0.14494192409E+02 -0.27246846420E+01  0.14821190128E+02  0.51100000000E-03 0.  1.
        -12    1    4    4    0    0  0.52230892063E+00  0.80403844856E+01 -0.62033450300E+01  0.10168681274E+02  0.00000000000E+00 0.  1.
</event>
<event>
 8    1  0.2512298E-006  0.9118800E+02  0.7816164E-02  0.1184000E+00
        -11   -1    0    0    0    0  0.00000000000E+00  0.00000000000E+00  0.45593999997E+02  0.45594000000E+02  0.51100000000E-03 0.  1.
         11   -1    0    0    0    0 -0.00000000000E+00 -0.00000000000E+00 -0.45593999997E+02  0.45594000000E+02  0.51100000000E-03 0. -1.
         23    2    1    2    0    0  0.44408920985E-15  0.71054273576E-14  0.00000000000E+00  0.91188000000E+02  0.91188000000E+02 0.  0.
    9900012    2    3    3    0    0  0.38205661136E+01 -0.34245981792E+02 -0.12976770498E+02  0.54367074334E+02  0.39999977560E+02 0.  0.
         12    1    3    3    0    0 -0.38205661136E+01  0.34245981792E+02  0.12976770498E+02  0.36820925666E+02  0.00000000000E+00 0. -1.
         11    1    4    4    0    0  0.79979287770E+01 -0.22165181455E+01 -0.10059427221E+02  0.13041161516E+02  0.51100000000E-03 0. -1.
        -11    1    4    4    0    0  0.80957871171E+01 -0.45896810341E+01  0.45408551225E+01  0.10355013595E+02  0.51100000000E-03 0.  1.
         12    1    4    4    0    0 -0.12273149781E+02 -0.27439782613E+02 -0.74581983996E+01  0.30970899224E+02  0.00000000000E+00 0. -1.
</event>
<event>
 8    1  0.2512298E-006  0.9118800E+02  0.7816164E-02  0.1184000E+00
        -11   -1    0    0    0    0  0.00000000000E+00  0.00000000000E+00  0.45593999997E+02  0.45594000000E+02  0.51100000000E-03 0. -1.
         11   -1    0    0    0    0 -0.00000000000E+00 -0.00000000000E+00 -0.45593999997E+02  0.45594000000E+02  0.51100000000E-03 0.  1.
         23    2    1    2    0    0  0.00000000000E+00  0.00000000000E+00 -0.35527136788E-14  0.91188000000E+02  0.91188000000E+02 0.  0.
    9900012    2    3    3    0    0  0.24730314327E+02  0.21067549194E+02 -0.17330603800E+02  0.54367083338E+02  0.39999998086E+02 0.  0.
         12    1    3    3    0    0 -0.24730314327E+02 -0.21067549194E+02  0.17330603800E+02  0.36820916662E+02  0.00000000000E+00 0. -1.
         11    1    4    4    0    0  0.46168175277E+01 -0.24401993392E+01  0.40082075239E+01  0.65829556215E+01  0.51100000000E-03 0. -1.
        -11    1    4    4    0    0  0.20831478913E+02  0.24457274349E+02 -0.27020692320E+02  0.41978882739E+02  0.51100000000E-03 0.  1.
        -12    1    4    4    0    0 -0.71798211385E+00 -0.94952581592E+00  0.56818809964E+01  0.58052449774E+01  0.00000000000E+00 0.  1.
</event>
<event>
 8    1  0.2512298E-006  0.9118800E+02  0.7816164E-02  0.1184000E+00
        -11   -1    0    0    0    0  0.00000000000E+00  0.00000000000E+00  0.45593999997E+02  0.45594000000E+02  0.51100000000E-03 0. -1.
         11   -1    0    0    0    0 -0.00000000000E+00 -0.00000000000E+00 -0.45593999997E+02  0.45594000000E+02  0.51100000000E-03 0.  1.
         23    2    1    2    0    0  0.00000000000E+00  0.35527136788E-14  0.00000000000E+00  0.91188000000E+02  0.91188000000E+02 0.  0.
    9900012    2    3    3    0    0  0.79693683392E+01  0.27798273454E+02  0.22793106491E+02  0.54367074669E+02  0.39999978322E+02 0.  0.
        -12    1    3    3    0    0 -0.79693683392E+01 -0.27798273454E+02 -0.22793106491E+02  0.36820925331E+02  0.00000000000E+00 0.  1.
         11    1    4    4    0    0  0.69245209325E+00  0.17176357995E+02  0.26232439692E+02  0.31363157627E+02  0.51100000000E-03 0. -1.
        -11    1    4    4    0    0  0.11579968220E+02  0.41659094722E+01  0.32843692500E+01  0.12737250384E+02  0.51100000000E-03 0.  1.
         12    1    4    4    0    0 -0.43030519743E+01  0.64560059870E+01 -0.67237024516E+01  0.10266666657E+02  0.00000000000E+00 0. -1.
</event>
<event>
 8    1  0.2512298E-006  0.9118800E+02  0.7816164E-02  0.1184000E+00
        -11   -1    0    0    0    0  0.00000000000E+00  0.00000000000E+00  0.45593999997E+02  0.45594000000E+02  0.51100000000E-03 0.  1.
         11   -1    0    0    0    0 -0.00000000000E+00 -0.00000000000E+00 -0.45593999997E+02  0.45594000000E+02  0.51100000000E-03 0. -1.
         23    2    1    2    0    0  0.00000000000E+00  0.88817841970E-15  0.00000000000E+00  0.91188000000E+02  0.91188000000E+02 0.  0.
    9900012    2    3    3    0    0 -0.36134018141E+02  0.58136877380E+01 -0.40390286209E+01  0.54367082245E+02  0.39999995593E+02 0.  0.
        -12    1    3    3    0    0  0.36134018141E+02 -0.58136877380E+01  0.40390286209E+01  0.36820917755E+02  0.00000000000E+00 0.  1.
         11    1    4    4    0    0 -0.22636354090E+02 -0.76685481268E+01 -0.54770471007E+00  0.23906299119E+02  0.51100000000E-03 0.  1.
        -11    1    4    4    0    0 -0.16010087183E+02 -0.47641891025E+00 -0.28073887494E+01  0.16261343685E+02  0.51100000000E-03 0. -1.
        -12    1    4    4    0    0  0.25124231317E+01  0.13958654775E+02 -0.68393516150E+00  0.14199439441E+02  0.00000000000E+00 0.  1.
</event>
<event>
 8    1  0.2512298E-006  0.9118800E+02  0.7816164E-02  0.1184000E+00
        -11   -1    0    0    0    0  0.00000000000E+00  0.00000000000E+00  0.45593999997E+02  0.45594000000E+02  0.51100000000E-03 0.  1.
         11   -1    0    0    0    0 -0.00000000000E+00 -0.00000000000E+00 -0.45593999997E+02  0.45594000000E+02  0.51100000000E-03 0. -1.
         23    2    1    2    0    0  0.00000000000E+00  0.00000000000E+00  0.00000000000E+00  0.91188000000E+02  0.91188000000E+02 0.  0.
    9900012    2    3    3    0    0  0.88824883160E+01 -0.17679403602E+02  0.31053490758E+02  0.54367092913E+02  0.40000019915E+02 0.  0.
         12    1    3    3    0    0 -0.88824883160E+01  0.17679403602E+02 -0.31053490758E+02  0.36820907087E+02  0.00000000000E+00 0. -1.
         11    1    4    4    0    0 -0.62642284421E+00  0.98170581009E+01  0.76304544806E+01  0.12449532970E+02  0.51100000000E-03 0. -1.
        -11    1    4    4    0    0 -0.26844835174E+01 -0.31300080349E+01  0.11424019568E+02  0.12145436402E+02  0.51100000000E-03 0.  1.
        -12    1    4    4    0    0  0.12193394678E+02 -0.24366453668E+02  0.11999016710E+02  0.29772123541E+02  0.00000000000E+00 0.  1.
</event>
<event>
 8    1  0.2512298E-006  0.9118800E+02  0.7816164E-02  0.1184000E+00
        -11   -1    0    0    0    0  0.00000000000E+00  0.00000000000E+00  0.45593999997E+02  0.45594000000E+02  0.51100000000E-03 0. -1.
         11   -1    0    0    0    0 -0.00000000000E+00 -0.00000000000E+00 -0.45593999997E+02  0.45594000000E+02  0.51100000000E-03 0.  1.
         23    2    1    2    0    0  0.00000000000E+00 -0.35527136788E-14  0.44408920985E-15  0.91188000000E+02  0.91188000000E+02 0.  0.
    9900012    2    3    3    0    0 -0.32350173598E+02  0.17538777776E+02  0.12815761824E+01  0.54367015559E+02  0.39999843569E+02 0.  0.
         12    1    3    3    0    0  0.32350173598E+02 -0.17538777776E+02 -0.12815761824E+01  0.36820984441E+02  0.00000000000E+00 0. -1.
         11    1    4    4    0    0  0.15737637678E+01  0.12717008889E+02  0.19468903991E+01  0.12961073642E+02  0.51100000000E-03 0. -1.
        -11    1    4    4    0    0 -0.12608115372E+02 -0.66537458495E+01 -0.76912066834E+01  0.16198505103E+02  0.51100000000E-03 0.  1.
        -12    1    4    4    0    0 -0.21315821994E+02  0.11475514737E+02  0.70258924666E+01  0.25207436813E+02  0.00000000000E+00 0.  1.
</event>
<event>
 8    1  0.2512298E-006  0.9118800E+02  0.7816164E-02  0.1184000E+00
        -11   -1    0    0    0    0  0.00000000000E+00  0.00000000000E+00  0.45593999997E+02  0.45594000000E+02  0.51100000000E-03 0. -1.
         11   -1    0    0    0    0 -0.00000000000E+00 -0.00000000000E+00 -0.45593999997E+02  0.45594000000E+02  0.51100000000E-03 0.  1.
         23    2    1    2    0    0 -0.17763568394E-14 -0.35527136788E-14  0.35527136788E-14  0.91188000000E+02  0.91188000000E+02 0.  0.
    9900012    2    3    3    0    0 -0.10337954300E+02  0.24653357353E+02 -0.25320316806E+02  0.54367085142E+02  0.40000002197E+02 0.  0.
         12    1    3    3    0    0  0.10337954300E+02 -0.24653357353E+02  0.25320316806E+02  0.36820914858E+02  0.00000000000E+00 0. -1.
         11    1    4    4    0    0 -0.85734340858E+01 -0.59055289204E+01 -0.14305025502E+01  0.10508348189E+02  0.51100000000E-03 0. -1.
        -11    1    4    4    0    0 -0.10621780126E+02  0.21969351402E+02 -0.14883286490E+02  0.28582981494E+02  0.51100000000E-03 0.  1.
        -12    1    4    4    0    0  0.88572599119E+01  0.85895348709E+01 -0.90065277651E+01  0.15275755459E+02  0.00000000000E+00 0.  1.
</event>
<event>
 8    1  0.2512298E-006  0.9118800E+02  0.7816164E-02  0.1184000E+00
        -11   -1    0    0    0    0  0.00000000000E+00  0.00000000000E+00  0.45593999997E+02  0.45594000000E+02  0.51100000000E-03 0.  1.
         11   -1    0    0    0    0 -0.00000000000E+00 -0.00000000000E+00 -0.45593999997E+02  0.45594000000E+02  0.51100000000E-03 0. -1.
         23    2    1    2    0    0  0.00000000000E+00  0.35527136788E-14  0.00000000000E+00  0.91188000000E+02  0.91188000000E+02 0.  0.
    9900012    2    3    3    0    0 -0.20710890101E+02  0.24836548560E+02  0.17606102789E+02  0.54367218252E+02  0.40000305648E+02 0.  0.
         12    1    3    3    0    0  0.20710890101E+02 -0.24836548560E+02 -0.17606102789E+02  0.36820781748E+02  0.00000000000E+00 0. -1.
         11    1    4    4    0    0 -0.85151819563E+01  0.18003488260E+02 -0.67092808206E+01  0.21015431536E+02  0.51100000000E-03 0. -1.
        -11    1    4    4    0    0 -0.14155340413E+02  0.70293211540E+01  0.26218139344E+02  0.30613327964E+02  0.51100000000E-03 0.  1.
        -12    1    4    4    0    0  0.19596322683E+01 -0.19626085425E+00 -0.19027557347E+01  0.27384587519E+01  0.00000000000E+00 0.  1.
</event>
<event>
 8    1  0.2512298E-006  0.9118800E+02  0.7816164E-02  0.1184000E+00
        -11   -1    0    0    0    0  0.00000000000E+00  0.00000000000E+00  0.45593999997E+02  0.45594000000E+02  0.51100000000E-03 0.  1.
         11   -1    0    0    0    0 -0.00000000000E+00 -0.00000000000E+00 -0.45593999997E+02  0.45594000000E+02  0.51100000000E-03 0. -1.
         23    2    1    2    0    0  0.00000000000E+00 -0.35527136788E-14  0.17763568394E-14  0.91188000000E+02  0.91188000000E+02 0.  0.
    9900012    2    3    3    0    0 -0.32487839495E+02 -0.14409077778E+02  0.96283564673E+01  0.54366993960E+02  0.39999794331E+02 0.  0.
        -12    1    3    3    0    0  0.32487839495E+02  0.14409077778E+02 -0.96283564673E+01  0.36821006040E+02  0.00000000000E+00 0.  1.
         11    1    4    4    0    0 -0.15619843804E+02  0.92345328296E+01  0.11260405119E+02  0.21355393716E+02  0.51100000000E-03 0. -1.
        -11    1    4    4    0    0 -0.51915493888E+01  0.12127028584E+01  0.99719437428E+00  0.54237653121E+01  0.51100000000E-03 0.  1.
        -12    1    4    4    0    0 -0.11676446302E+02 -0.24856313466E+02 -0.26292430256E+01  0.27587834933E+02  0.00000000000E+00 0.  1.
</event>
<event>
 8    1  0.2512298E-006  0.9118800E+02  0.7816164E-02  0.1184000E+00
        -11   -1    0    0    0    0  0.00000000000E+00  0.00000000000E+00  0.45593999997E+02  0.45594000000E+02  0.51100000000E-03 0.  1.
         11   -1    0    0    0    0 -0.00000000000E+00 -0.00000000000E+00 -0.45593999997E+02  0.45594000000E+02  0.51100000000E-03 0. -1.
         23    2    1    2    0    0 -0.71054273576E-14  0.17763568394E-14  0.00000000000E+00  0.91188000000E+02  0.91188000000E+02 0.  0.
    9900012    2    3    3    0    0 -0.31701978757E+02  0.12699826246E+02 -0.13765117175E+02  0.54367088894E+02  0.40000010753E+02 0.  0.
        -12    1    3    3    0    0  0.31701978757E+02 -0.12699826246E+02  0.13765117175E+02  0.36820911106E+02  0.00000000000E+00 0.  1.
         11    1    4    4    0    0 -0.89356227470E+01 -0.12117086581E+01 -0.10958325415E+02  0.14191493505E+02  0.51100000000E-03 0. -1.
        -11    1    4    4    0    0  0.66810462985E+01 -0.14512117046E+01  0.71432468829E-01  0.68372141924E+01  0.51100000000E-03 0.  1.
        -12    1    4    4    0    0 -0.29447402309E+02  0.15362746609E+02 -0.28782242288E+01  0.33338381197E+02  0.00000000000E+00 0.  1.
</event>
<event>
 8    1  0.2512298E-006  0.9118800E+02  0.7816164E-02  0.1184000E+00
        -11   -1    0    0    0    0  0.00000000000E+00  0.00000000000E+00  0.45593999997E+02  0.45594000000E+02  0.51100000000E-03 0.  1.
         11   -1    0    0    0    0 -0.00000000000E+00 -0.00000000000E+00 -0.45593999997E+02  0.45594000000E+02  0.51100000000E-03 0. -1.
         23    2    1    2    0    0 -0.17763568394E-14 -0.71054273576E-14 -0.35527136788E-14  0.91188000000E+02  0.91188000000E+02 0.  0.
    9900012    2    3    3    0    0 -0.10354499535E+02 -0.25833622489E+02 -0.24107830325E+02  0.54367092970E+02  0.40000020043E+02 0.  0.
        -12    1    3    3    0    0  0.10354499535E+02  0.25833622489E+02  0.24107830325E+02  0.36820907030E+02  0.00000000000E+00 0.  1.
         11    1    4    4    0    0 -0.65366204246E+01  0.54514663524E+01  0.41687314966E+01  0.94775637439E+01  0.51100000000E-03 0.  1.
        -11    1    4    4    0    0 -0.40747772175E+01 -0.21007005825E+02 -0.93528589232E+01  0.23353245458E+02  0.51100000000E-03 0. -1.
        -12    1    4    4    0    0  0.25689810665E+00 -0.10278083017E+02 -0.18923702899E+02  0.21536283768E+02  0.00000000000E+00 0.  1.
</event>
<event>
 8    1  0.2512298E-006  0.9118800E+02  0.7816164E-02  0.1184000E+00
        -11   -1    0    0    0    0  0.00000000000E+00  0.00000000000E+00  0.45593999997E+02  0.45594000000E+02  0.51100000000E-03 0. -1.
         11   -1    0    0    0    0 -0.00000000000E+00 -0.00000000000E+00 -0.45593999997E+02  0.45594000000E+02  0.51100000000E-03 0.  1.
         23    2    1    2    0    0 -0.35527136788E-14  0.44408920985E-15 -0.10658141036E-13  0.91188000000E+02  0.91188000000E+02 0.  0.
    9900012    2    3    3    0    0 -0.25044953154E+02 -0.18470668844E+01 -0.26928020060E+02  0.54367087479E+02  0.40000007525E+02 0.  0.
         12    1    3    3    0    0  0.25044953154E+02  0.18470668844E+01  0.26928020060E+02  0.36820912521E+02  0.00000000000E+00 0. -1.
         11    1    4    4    0    0 -0.12650978949E+02  0.56156122345E+01 -0.11253010513E+02  0.17838514933E+02  0.51100000000E-03 0. -1.
        -11    1    4    4    0    0 -0.68530057971E+01 -0.24935541129E+01  0.85199273954E+01  0.11214752055E+02  0.51100000000E-03 0.  1.
        -12    1    4    4    0    0 -0.55409684077E+01 -0.49691250059E+01 -0.24194936942E+02  0.25313820491E+02  0.00000000000E+00 0.  1.
</event>
<event>
 8    1  0.2512298E-006  0.9118800E+02  0.7816164E-02  0.1184000E+00
        -11   -1    0    0    0    0  0.00000000000E+00  0.00000000000E+00  0.45593999997E+02  0.45594000000E+02  0.51100000000E-03 0. -1.
         11   -1    0    0    0    0 -0.00000000000E+00 -0.00000000000E+00 -0.45593999997E+02  0.45594000000E+02  0.51100000000E-03 0.  1.
         23    2    1    2    0    0  0.00000000000E+00  0.17763568394E-14  0.00000000000E+00  0.91188000000E+02  0.91188000000E+02 0.  0.
    9900012    2    3    3    0    0 -0.24294537978E+02  0.11942915221E+02 -0.24958415624E+02  0.54367077822E+02  0.39999985512E+02 0.  0.
         12    1    3    3    0    0  0.24294537978E+02 -0.11942915221E+02  0.24958415624E+02  0.36820922178E+02  0.00000000000E+00 0. -1.
         11    1    4    4    0    0  0.37642406045E+01  0.13922788036E+02 -0.18553152494E+02  0.23499638332E+02  0.51100000000E-03 0. -1.
        -11    1    4    4    0    0 -0.44216625200E+01  0.34880020606E+01 -0.29613272318E+01  0.63629173380E+01  0.51100000000E-03 0.  1.
         12    1    4    4    0    0 -0.23637116063E+02 -0.54678748760E+01 -0.34439358985E+01  0.24504522152E+02  0.00000000000E+00 0. -1.
</event>
<event>
 8    1  0.2512298E-006  0.9118800E+02  0.7816164E-02  0.1184000E+00
        -11   -1    0    0    0    0  0.00000000000E+00  0.00000000000E+00  0.45593999997E+02  0.45594000000E+02  0.51100000000E-03 0.  1.
         11   -1    0    0    0    0 -0.00000000000E+00 -0.00000000000E+00 -0.45593999997E+02  0.45594000000E+02  0.51100000000E-03 0. -1.
         23    2    1    2    0    0 -0.88817841970E-15  0.00000000000E+00 -0.88817841970E-15  0.91188000000E+02  0.91188000000E+02 0.  0.
    9900012    2    3    3    0    0  0.75318641891E+01  0.35686954767E+02  0.50502481654E+01  0.54366909234E+02  0.39999601179E+02 0.  0.
        -12    1    3    3    0    0 -0.75318641891E+01 -0.35686954767E+02 -0.50502481654E+01  0.36821090766E+02  0.00000000000E+00 0.  1.
         11    1    4    4    0    0  0.16920774489E+02  0.15954097865E+02 -0.59050042618E+01  0.23994060173E+02  0.51100000000E-03 0. -1.
        -11    1    4    4    0    0 -0.81018116843E+01  0.17301366758E+02  0.15806634880E+02  0.24795692181E+02  0.51100000000E-03 0.  1.
         12    1    4    4    0    0 -0.12870986155E+01  0.24314901443E+01 -0.48513824525E+01  0.55771568804E+01  0.00000000000E+00 0. -1.
</event>
<event>
 8    1  0.2512298E-006  0.9118800E+02  0.7816164E-02  0.1184000E+00
        -11   -1    0    0    0    0  0.00000000000E+00  0.00000000000E+00  0.45593999997E+02  0.45594000000E+02  0.51100000000E-03 0.  1.
         11   -1    0    0    0    0 -0.00000000000E+00 -0.00000000000E+00 -0.45593999997E+02  0.45594000000E+02  0.51100000000E-03 0. -1.
         23    2    1    2    0    0 -0.35527136788E-14  0.88817841970E-15 -0.35527136788E-14  0.91188000000E+02  0.91188000000E+02 0.  0.
    9900012    2    3    3    0    0 -0.27335217980E+02  0.27905332558E+01 -0.24510782982E+02  0.54367086103E+02  0.40000004389E+02 0.  0.
        -12    1    3    3    0    0  0.27335217980E+02 -0.27905332558E+01  0.24510782982E+02  0.36820913897E+02  0.00000000000E+00 0.  1.
         11    1    4    4    0    0 -0.30396422304E+02 -0.49021454423E+01 -0.78762789768E+01  0.31780643316E+02  0.51100000000E-03 0. -1.
        -11    1    4    4    0    0 -0.43466417120E+01  0.26818767048E+01 -0.10690629168E+02  0.11848008655E+02  0.51100000000E-03 0.  1.
        -12    1    4    4    0    0  0.74078460361E+01  0.50108019934E+01 -0.59438748370E+01  0.10738434131E+02  0.00000000000E+00 0.  1.
</event>
<event>
 8    1  0.2512298E-006  0.9118800E+02  0.7816164E-02  0.1184000E+00
        -11   -1    0    0    0    0  0.00000000000E+00  0.00000000000E+00  0.45593999997E+02  0.45594000000E+02  0.51100000000E-03 0.  1.
         11   -1    0    0    0    0 -0.00000000000E+00 -0.00000000000E+00 -0.45593999997E+02  0.45594000000E+02  0.51100000000E-03 0. -1.
         23    2    1    2    0    0  0.35527136788E-14 -0.35527136788E-14 -0.17763568394E-14  0.91188000000E+02  0.91188000000E+02 0.  0.
    9900012    2    3    3    0    0  0.20151466236E+02 -0.28027838671E+02  0.12811621313E+02  0.54367095982E+02  0.40000026909E+02 0.  0.
        -12    1    3    3    0    0 -0.20151466236E+02  0.28027838671E+02 -0.12811621313E+02  0.36820904018E+02  0.00000000000E+00 0.  1.
         11    1    4    4    0    0 -0.55580345602E+01 -0.12127158251E+01  0.36499078514E+01  0.67590129035E+01  0.51100000000E-03 0. -1.
        -11    1    4    4    0    0  0.11911229457E+02  0.38977978827E+01 -0.61327277026E+00  0.12547761524E+02  0.51100000000E-03 0.  1.
         12    1    4    4    0    0  0.13798271340E+02 -0.30712920729E+02  0.97749862315E+01  0.35060321554E+02  0.00000000000E+00 0. -1.
</event>
<event>
 8    1  0.2512298E-006  0.9118800E+02  0.7816164E-02  0.1184000E+00
        -11   -1    0    0    0    0  0.00000000000E+00  0.00000000000E+00  0.45593999997E+02  0.45594000000E+02  0.51100000000E-03 0. -1.
         11   -1    0    0    0    0 -0.00000000000E+00 -0.00000000000E+00 -0.45593999997E+02  0.45594000000E+02  0.51100000000E-03 0.  1.
         23    2    1    2    0    0  0.00000000000E+00  0.44408920985E-15  0.00000000000E+00  0.91188000000E+02  0.91188000000E+02 0.  0.
    9900012    2    3    3    0    0 -0.21302930678E+02 -0.37100304412E+01  0.29802694918E+02  0.54367084670E+02  0.40000001122E+02 0.  0.
        -12    1    3    3    0    0  0.21302930678E+02  0.37100304412E+01 -0.29802694918E+02  0.36820915330E+02  0.00000000000E+00 0.  1.
         11    1    4    4    0    0  0.34089211981E+01  0.46035907701E+01 -0.55641347034E+00  0.57552921667E+01  0.51100000000E-03 0. -1.
        -11    1    4    4    0    0 -0.12811164521E+02  0.27241543533E+01 -0.11701892263E+01  0.13149764120E+02  0.51100000000E-03 0.  1.
         12    1    4    4    0    0 -0.11900687355E+02 -0.11037775565E+02  0.31529297615E+02  0.35462028383E+02  0.00000000000E+00 0. -1.
</event>
<event>
 8    1  0.2512298E-006  0.9118800E+02  0.7816164E-02  0.1184000E+00
        -11   -1    0    0    0    0  0.00000000000E+00  0.00000000000E+00  0.45593999997E+02  0.45594000000E+02  0.51100000000E-03 0.  1.
         11   -1    0    0    0    0 -0.00000000000E+00 -0.00000000000E+00 -0.45593999997E+02  0.45594000000E+02  0.51100000000E-03 0. -1.
         23    2    1    2    0    0 -0.35527136788E-14  0.35527136788E-14 -0.17763568394E-14  0.91188000000E+02  0.91188000000E+02 0.  0.
    9900012    2    3    3    0    0  0.25387581345E+02 -0.22872595186E+02  0.13714780696E+02  0.54367080584E+02  0.39999991808E+02 0.  0.
         12    1    3    3    0    0 -0.25387581345E+02  0.22872595186E+02 -0.13714780696E+02  0.36820919416E+02  0.00000000000E+00 0. -1.
         11    1    4    4    0    0  0.72663554763E+01 -0.11060700331E+02 -0.24963863306E+01  0.13467403562E+02  0.51100000000E-03 0. -1.
        -11    1    4    4    0    0  0.10829635394E+02 -0.20942395460E+02  0.17183917399E+02  0.29174508527E+02  0.51100000000E-03 0.  1.
        -12    1    4    4    0    0  0.72915904741E+01  0.91305006054E+01 -0.97275037271E+00  0.11725168495E+02  0.00000000000E+00 0.  1.
</event>
<event>
 8    1  0.2512298E-006  0.9118800E+02  0.7816164E-02  0.1184000E+00
        -11   -1    0    0    0    0  0.00000000000E+00  0.00000000000E+00  0.45593999997E+02  0.45594000000E+02  0.51100000000E-03 0.  1.
         11   -1    0    0    0    0 -0.00000000000E+00 -0.00000000000E+00 -0.45593999997E+02  0.45594000000E+02  0.51100000000E-03 0. -1.
         23    2    1    2    0    0  0.88817841970E-15  0.00000000000E+00  0.17763568394E-14  0.91188000000E+02  0.91188000000E+02 0.  0.
    9900012    2    3    3    0    0  0.47676110194E+01 -0.33261632645E+02  0.15057015041E+02  0.54367081720E+02  0.39999994397E+02 0.  0.
         12    1    3    3    0    0 -0.47676110194E+01  0.33261632645E+02 -0.15057015041E+02  0.36820918280E+02  0.00000000000E+00 0. -1.
         11    1    4    4    0    0 -0.42512152413E+01  0.13206897156E+01 -0.34993833526E+01  0.56623967065E+01  0.51100000000E-03 0. -1.
        -11    1    4    4    0    0 -0.47068185549E+01 -0.19059184649E+01  0.11494050893E+02  0.12565821592E+02  0.51100000000E-03 0.  1.
         12    1    4    4    0    0  0.13725644816E+02 -0.32676403896E+02  0.70623475007E+01  0.36138863421E+02  0.00000000000E+00 0. -1.
</event>
<event>
 8    1  0.2512298E-006  0.9118800E+02  0.7816164E-02  0.1184000E+00
        -11   -1    0    0    0    0  0.00000000000E+00  0.00000000000E+00  0.45593999997E+02  0.45594000000E+02  0.51100000000E-03 0. -1.
         11   -1    0    0    0    0 -0.00000000000E+00 -0.00000000000E+00 -0.45593999997E+02  0.45594000000E+02  0.51100000000E-03 0.  1.
         23    2    1    2    0    0  0.00000000000E+00  0.00000000000E+00  0.00000000000E+00  0.91188000000E+02  0.91188000000E+02 0.  0.
    9900012    2    3    3    0    0  0.19922567265E+02 -0.16352913478E+02  0.26295517648E+02  0.54367072336E+02  0.39999973005E+02 0.  0.
        -12    1    3    3    0    0 -0.19922567265E+02  0.16352913478E+02 -0.26295517648E+02  0.36820927664E+02  0.00000000000E+00 0.  1.
         11    1    4    4    0    0 -0.32302317595E+01  0.27617375372E+00  0.57178826878E+01  0.65730397728E+01  0.51100000000E-03 0. -1.
        -11    1    4    4    0    0  0.20336543422E+02  0.45026006867E+01  0.50853036951E+01  0.21440819136E+02  0.51100000000E-03 0.  1.
        -12    1    4    4    0    0  0.28162556025E+01 -0.21131687918E+02  0.15492331265E+02  0.26353213427E+02  0.00000000000E+00 0.  1.
</event>
<event>
 8    1  0.2512298E-006  0.9118800E+02  0.7816164E-02  0.1184000E+00
        -11   -1    0    0    0    0  0.00000000000E+00  0.00000000000E+00  0.45593999997E+02  0.45594000000E+02  0.51100000000E-03 0.  1.
         11   -1    0    0    0    0 -0.00000000000E+00 -0.00000000000E+00 -0.45593999997E+02  0.45594000000E+02  0.51100000000E-03 0. -1.
         23    2    1    2    0    0  0.00000000000E+00  0.00000000000E+00  0.00000000000E+00  0.91188000000E+02  0.91188000000E+02 0.  0.
    9900012    2    3    3    0    0  0.14297836958E+02  0.21318637200E+02 -0.26398107763E+02  0.54367183507E+02  0.40000226440E+02 0.  0.
        -12    1    3    3    0    0 -0.14297836958E+02 -0.21318637200E+02  0.26398107763E+02  0.36820816493E+02  0.00000000000E+00 0.  1.
         11    1    4    4    0    0  0.55894547961E+01  0.55124335923E+01 -0.55543320536E+01  0.96166279875E+01  0.51100000000E-03 0. -1.
        -11    1    4    4    0    0 -0.12513884242E+02  0.13195231002E+02 -0.86832323637E+01  0.20152169724E+02  0.51100000000E-03 0.  1.
        -12    1    4    4    0    0  0.21222266405E+02  0.26109726052E+01 -0.12160543346E+02  0.24598385796E+02  0.00000000000E+00 0.  1.
</event>
<event>
 8    1  0.2512298E-006  0.9118800E+02  0.7816164E-02  0.1184000E+00
        -11   -1    0    0    0    0  0.00000000000E+00  0.00000000000E+00  0.45593999997E+02  0.45594000000E+02  0.51100000000E-03 0. -1.
         11   -1    0    0    0    0 -0.00000000000E+00 -0.00000000000E+00 -0.45593999997E+02  0.45594000000E+02  0.51100000000E-03 0.  1.
         23    2    1    2    0    0  0.00000000000E+00  0.71054273576E-14 -0.88817841970E-15  0.91188000000E+02  0.91188000000E+02 0.  0.
    9900012    2    3    3    0    0 -0.96332965953E+01 -0.35206049192E+02  0.48490684983E+01  0.54367085179E+02  0.40000002282E+02 0.  0.
        -12    1    3    3    0    0  0.96332965953E+01  0.35206049192E+02 -0.48490684983E+01  0.36820914821E+02  0.00000000000E+00 0.  1.
         11    1    4    4    0    0 -0.67820007869E+01  0.15587735684E+01  0.11134188049E+02  0.13129944915E+02  0.51100000000E-03 0. -1.
        -11    1    4    4    0    0  0.63818736837E+01 -0.24982966599E+02 -0.38120651411E+01  0.26065470889E+02  0.51100000000E-03 0.  1.
        -12    1    4    4    0    0 -0.92331694921E+01 -0.11781856161E+02 -0.24730544097E+01  0.15171669374E+02  0.00000000000E+00 0.  1.
</event>
<event>
 8    1  0.2512298E-006  0.9118800E+02  0.7816164E-02  0.1184000E+00
        -11   -1    0    0    0    0  0.00000000000E+00  0.00000000000E+00  0.45593999997E+02  0.45594000000E+02  0.51100000000E-03 0. -1.
         11   -1    0    0    0    0 -0.00000000000E+00 -0.00000000000E+00 -0.45593999997E+02  0.45594000000E+02  0.51100000000E-03 0.  1.
         23    2    1    2    0    0  0.35527136788E-14 -0.17763568394E-14  0.00000000000E+00  0.91188000000E+02  0.91188000000E+02 0.  0.
    9900012    2    3    3    0    0 -0.30477574006E+02 -0.12964683753E+02  0.16087892206E+02  0.54367003031E+02  0.39999815010E+02 0.  0.
        -12    1    3    3    0    0  0.30477574006E+02  0.12964683753E+02 -0.16087892206E+02  0.36820996969E+02  0.00000000000E+00 0.  1.
         11    1    4    4    0    0 -0.63838032402E+01  0.18050445402E+01  0.16723312306E+02  0.17991117373E+02  0.51100000000E-03 0. -1.
        -11    1    4    4    0    0 -0.75979766719E+01  0.34549852214E+01 -0.71006628454E+01  0.10958356879E+02  0.51100000000E-03 0.  1.
         12    1    4    4    0    0 -0.16495794094E+02 -0.18224713514E+02  0.64652427457E+01  0.25417528779E+02  0.00000000000E+00 0. -1.
</event>
<event>
 8    1  0.2512298E-006  0.9118800E+02  0.7816164E-02  0.1184000E+00
        -11   -1    0    0    0    0  0.00000000000E+00  0.00000000000E+00  0.45593999997E+02  0.45594000000E+02  0.51100000000E-03 0. -1.
         11   -1    0    0    0    0 -0.00000000000E+00 -0.00000000000E+00 -0.45593999997E+02  0.45594000000E+02  0.51100000000E-03 0.  1.
         23    2    1    2    0    0 -0.17763568394E-14  0.00000000000E+00  0.71054273576E-14  0.91188000000E+02  0.91188000000E+02 0.  0.
    9900012    2    3    3    0    0 -0.60012020820E+01 -0.28516372754E+02  0.22507289382E+02  0.54367136121E+02  0.40000118415E+02 0.  0.
        -12    1    3    3    0    0  0.60012020820E+01  0.28516372754E+02 -0.22507289382E+02  0.36820863879E+02  0.00000000000E+00 0.  1.
         11    1    4    4    0    0 -0.37598105124E+01  0.58194511797E+01  0.15082869929E+02  0.16598046652E+02  0.51100000000E-03 0. -1.
        -11    1    4    4    0    0 -0.21346859590E+01 -0.35017711644E+01  0.55191186944E+01  0.68760422378E+01  0.51100000000E-03 0.  1.
        -12    1    4    4    0    0 -0.10670561065E+00 -0.30834052769E+02  0.19053007594E+01  0.30893047231E+02  0.00000000000E+00 0.  1.
</event>
<event>
 8    1  0.2512298E-006  0.9118800E+02  0.7816164E-02  0.1184000E+00
        -11   -1    0    0    0    0  0.00000000000E+00  0.00000000000E+00  0.45593999997E+02  0.45594000000E+02  0.51100000000E-03 0. -1.
         11   -1    0    0    0    0 -0.00000000000E+00 -0.00000000000E+00 -0.45593999997E+02  0.45594000000E+02  0.51100000000E-03 0.  1.
         23    2    1    2    0    0  0.71054273576E-14  0.00000000000E+00  0.17763568394E-14  0.91188000000E+02  0.91188000000E+02 0.  0.
    9900012    2    3    3    0    0 -0.34362840343E+02 -0.92459919694E+01  0.94597549314E+01  0.54367080303E+02  0.39999991168E+02 0.  0.
         12    1    3    3    0    0  0.34362840343E+02  0.92459919694E+01 -0.94597549314E+01  0.36820919697E+02  0.00000000000E+00 0. -1.
         11    1    4    4    0    0  0.38527078828E+01 -0.46643530241E+01 -0.26979372503E+01  0.66240782627E+01  0.51100000000E-03 0. -1.
        -11    1    4    4    0    0 -0.14358929858E+02  0.52360349272E+01 -0.57601505316E+01  0.16333225733E+02  0.51100000000E-03 0.  1.
         12    1    4    4    0    0 -0.23856618367E+02 -0.98176738725E+01  0.17917842713E+02  0.31409776308E+02  0.00000000000E+00 0. -1.
</event>
<event>
 8    1  0.2512298E-006  0.9118800E+02  0.7816164E-02  0.1184000E+00
        -11   -1    0    0    0    0  0.00000000000E+00  0.00000000000E+00  0.45593999997E+02  0.45594000000E+02  0.51100000000E-03 0.  1.
         11   -1    0    0    0    0 -0.00000000000E+00 -0.00000000000E+00 -0.45593999997E+02  0.45594000000E+02  0.51100000000E-03 0. -1.
         23    2    1    2    0    0  0.35527136788E-14  0.35527136788E-14  0.00000000000E+00  0.91188000000E+02  0.91188000000E+02 0.  0.
    9900012    2    3    3    0    0 -0.24392166177E+02 -0.25313098421E+02 -0.10956620941E+02  0.54367105594E+02  0.40000048822E+02 0.  0.
         12    1    3    3    0    0  0.24392166177E+02  0.25313098421E+02  0.10956620941E+02  0.36820894406E+02  0.00000000000E+00 0. -1.
         11    1    4    4    0    0  0.24876128694E+01 -0.75736485531E+01 -0.46660619365E+00  0.79853673550E+01  0.51100000000E-03 0. -1.
        -11    1    4    4    0    0 -0.77490870821E+01 -0.23863535319E+02 -0.55717682085E+01  0.25701386533E+02  0.51100000000E-03 0.  1.
         12    1    4    4    0    0 -0.19130691964E+02  0.61240854511E+01 -0.49182465388E+01  0.20680351705E+02  0.00000000000E+00 0. -1.
</event>
<event>
 8    1  0.2512298E-006  0.9118800E+02  0.7816164E-02  0.1184000E+00
        -11   -1    0    0    0    0  0.00000000000E+00  0.00000000000E+00  0.45593999997E+02  0.45594000000E+02  0.51100000000E-03 0. -1.
         11   -1    0    0    0    0 -0.00000000000E+00 -0.00000000000E+00 -0.45593999997E+02  0.45594000000E+02  0.51100000000E-03 0.  1.
         23    2    1    2    0    0  0.00000000000E+00 -0.35527136788E-14 -0.35527136788E-14  0.91188000000E+02  0.91188000000E+02 0.  0.
    9900012    2    3    3    0    0  0.18702183427E+02  0.19340835810E+02  0.25138399155E+02  0.54367099592E+02  0.40000035139E+02 0.  0.
        -12    1    3    3    0    0 -0.18702183427E+02 -0.19340835810E+02 -0.25138399155E+02  0.36820900408E+02  0.00000000000E+00 0.  1.
         11    1    4    4    0    0  0.11437150736E+02  0.11541930536E+02  0.28347348392E+02  0.32674098895E+02  0.51100000000E-03 0. -1.
        -11    1    4    4    0    0  0.92077350323E+01  0.12808085773E+02 -0.39711083271E+01  0.16266503840E+02  0.51100000000E-03 0.  1.
        -12    1    4    4    0    0 -0.19427023411E+01 -0.50091804987E+01  0.76215909067E+00  0.54264968566E+01  0.00000000000E+00 0.  1.
</event>
<event>
 8    1  0.2512298E-006  0.9118800E+02  0.7816164E-02  0.1184000E+00
        -11   -1    0    0    0    0  0.00000000000E+00  0.00000000000E+00  0.45593999997E+02  0.45594000000E+02  0.51100000000E-03 0. -1.
         11   -1    0    0    0    0 -0.00000000000E+00 -0.00000000000E+00 -0.45593999997E+02  0.45594000000E+02  0.51100000000E-03 0.  1.
         23    2    1    2    0    0  0.00000000000E+00  0.00000000000E+00  0.35527136788E-14  0.91188000000E+02  0.91188000000E+02 0.  0.
    9900012    2    3    3    0    0 -0.24925848680E+02  0.67847679912E+01 -0.26238327474E+02  0.54367070656E+02  0.39999969175E+02 0.  0.
         12    1    3    3    0    0  0.24925848680E+02 -0.67847679912E+01  0.26238327474E+02  0.36820929344E+02  0.00000000000E+00 0. -1.
         11    1    4    4    0    0 -0.15303136197E+02  0.14819033482E+01  0.47235419929E+01  0.16083962952E+02  0.51100000000E-03 0. -1.
        -11    1    4    4    0    0  0.24713484207E+01  0.78255878785E+01 -0.52088780136E+01  0.97200719690E+01  0.51100000000E-03 0.  1.
        -12    1    4    4    0    0 -0.12094060903E+02 -0.25227232355E+01 -0.25752991453E+02  0.28563035736E+02  0.00000000000E+00 0.  1.
</event>
<event>
 8    1  0.2512298E-006  0.9118800E+02  0.7816164E-02  0.1184000E+00
        -11   -1    0    0    0    0  0.00000000000E+00  0.00000000000E+00  0.45593999997E+02  0.45594000000E+02  0.51100000000E-03 0. -1.
         11   -1    0    0    0    0 -0.00000000000E+00 -0.00000000000E+00 -0.45593999997E+02  0.45594000000E+02  0.51100000000E-03 0.  1.
         23    2    1    2    0    0  0.00000000000E+00  0.00000000000E+00 -0.17763568394E-14  0.91188000000E+02  0.91188000000E+02 0.  0.
    9900012    2    3    3    0    0  0.30831507887E+02  0.15737188187E+02  0.12551448717E+02  0.54367084266E+02  0.40000000201E+02 0.  0.
        -12    1    3    3    0    0 -0.30831507887E+02 -0.15737188187E+02 -0.12551448717E+02  0.36820915734E+02  0.00000000000E+00 0.  1.
         11    1    4    4    0    0 -0.87277723683E+00  0.56136863231E+01  0.94419133545E+01  0.11019298630E+02  0.51100000000E-03 0. -1.
        -11    1    4    4    0    0  0.95220396852E+01  0.14378895544E+02 -0.69864842333E+01  0.18607332937E+02  0.51100000000E-03 0.  1.
        -12    1    4    4    0    0  0.22182245438E+02 -0.42553936804E+01  0.10096019596E+02  0.24740452699E+02  0.00000000000E+00 0.  1.
</event>
<event>
 8    1  0.2512298E-006  0.9118800E+02  0.7816164E-02  0.1184000E+00
        -11   -1    0    0    0    0  0.00000000000E+00  0.00000000000E+00  0.45593999997E+02  0.45594000000E+02  0.51100000000E-03 0.  1.
         11   -1    0    0    0    0 -0.00000000000E+00 -0.00000000000E+00 -0.45593999997E+02  0.45594000000E+02  0.51100000000E-03 0. -1.
         23    2    1    2    0    0  0.00000000000E+00  0.00000000000E+00  0.00000000000E+00  0.91188000000E+02  0.91188000000E+02 0.  0.
    9900012    2    3    3    0    0 -0.33125163071E+02 -0.10063858437E+02 -0.12538847779E+02  0.54367076889E+02  0.39999983383E+02 0.  0.
        -12    1    3    3    0    0  0.33125163071E+02  0.10063858437E+02  0.12538847779E+02  0.36820923111E+02  0.00000000000E+00 0.  1.
         11    1    4    4    0    0 -0.14974775639E+02 -0.13852043857E+02 -0.19809612670E+01  0.20495053849E+02  0.51100000000E-03 0. -1.
        -11    1    4    4    0    0 -0.39718443939E+01  0.72135424336E+01  0.71670957401E+01  0.10916867863E+02  0.51100000000E-03 0.  1.
        -12    1    4    4    0    0 -0.14178543038E+02 -0.34253570136E+01 -0.17724982252E+02  0.22955155177E+02  0.00000000000E+00 0.  1.
</event>
<event>
 8    1  0.2512298E-006  0.9118800E+02  0.7816164E-02  0.1184000E+00
        -11   -1    0    0    0    0  0.00000000000E+00  0.00000000000E+00  0.45593999997E+02  0.45594000000E+02  0.51100000000E-03 0.  1.
         11   -1    0    0    0    0 -0.00000000000E+00 -0.00000000000E+00 -0.45593999997E+02  0.45594000000E+02  0.51100000000E-03 0. -1.
         23    2    1    2    0    0  0.00000000000E+00  0.88817841970E-15  0.00000000000E+00  0.91188000000E+02  0.91188000000E+02 0.  0.
    9900012    2    3    3    0    0 -0.35804975367E+02  0.74087938699E+01  0.43466888393E+01  0.54367079431E+02  0.39999989179E+02 0.  0.
        -12    1    3    3    0    0  0.35804975367E+02 -0.74087938699E+01 -0.43466888393E+01  0.36820920569E+02  0.00000000000E+00 0.  1.
         11    1    4    4    0    0  0.16941528021E+00  0.91936165287E+01  0.79521537237E+01  0.12156810253E+02  0.51100000000E-03 0. -1.
        -11    1    4    4    0    0 -0.82482664491E+01  0.90849494764E+01 -0.13360993853E+01  0.12343231677E+02  0.51100000000E-03 0.  1.
         12    1    4    4    0    0 -0.27726124198E+02 -0.10869772135E+02 -0.22693654991E+01  0.29867037501E+02  0.00000000000E+00 0. -1.
</event>
<event>
 8    1  0.2512298E-006  0.9118800E+02  0.7816164E-02  0.1184000E+00
        -11   -1    0    0    0    0  0.00000000000E+00  0.00000000000E+00  0.45593999997E+02  0.45594000000E+02  0.51100000000E-03 0.  1.
         11   -1    0    0    0    0 -0.00000000000E+00 -0.00000000000E+00 -0.45593999997E+02  0.45594000000E+02  0.51100000000E-03 0. -1.
         23    2    1    2    0    0 -0.35527136788E-14  0.35527136788E-14 -0.35527136788E-14  0.91188000000E+02  0.91188000000E+02 0.  0.
    9900012    2    3    3    0    0  0.17503518684E+02 -0.21799112524E+02  0.23962591518E+02  0.54367078428E+02  0.39999986892E+02 0.  0.
         12    1    3    3    0    0 -0.17503518684E+02  0.21799112524E+02 -0.23962591518E+02  0.36820921572E+02  0.00000000000E+00 0. -1.
         11    1    4    4    0    0 -0.19069818687E+01 -0.10445412346E+01  0.41414341581E+01  0.46775125211E+01  0.51100000000E-03 0. -1.
        -11    1    4    4    0    0  0.28183944237E+01 -0.16498611205E+02  0.26467773509E+02  0.31315979205E+02  0.51100000000E-03 0.  1.
         12    1    4    4    0    0  0.16592106129E+02 -0.42559600844E+01 -0.66466161490E+01  0.18373586702E+02  0.00000000000E+00 0. -1.
</event>
<event>
 8    1  0.2512298E-006  0.9118800E+02  0.7816164E-02  0.1184000E+00
        -11   -1    0    0    0    0  0.00000000000E+00  0.00000000000E+00  0.45593999997E+02  0.45594000000E+02  0.51100000000E-03 0.  1.
         11   -1    0    0    0    0 -0.00000000000E+00 -0.00000000000E+00 -0.45593999997E+02  0.45594000000E+02  0.51100000000E-03 0. -1.
         23    2    1    2    0    0  0.00000000000E+00  0.00000000000E+00  0.88817841970E-15  0.91188000000E+02  0.91188000000E+02 0.  0.
    9900012    2    3    3    0    0 -0.23012104343E+02  0.27831588308E+02 -0.71850597458E+01  0.54367091027E+02  0.40000015615E+02 0.  0.
        -12    1    3    3    0    0  0.23012104343E+02 -0.27831588308E+02  0.71850597458E+01  0.36820908973E+02  0.00000000000E+00 0.  1.
         11    1    4    4    0    0 -0.15947417943E+02  0.18792380890E+02 -0.95385381301E+01  0.26428345171E+02  0.51100000000E-03 0. -1.
        -11    1    4    4    0    0  0.14418040186E+01  0.16343426823E+02 -0.32894774453E+00  0.16410198233E+02  0.51100000000E-03 0.  1.
        -12    1    4    4    0    0 -0.85064904183E+01 -0.73042194058E+01  0.26824261288E+01  0.11528547623E+02  0.00000000000E+00 0.  1.
</event>
<event>
 8    1  0.2512298E-006  0.9118800E+02  0.7816164E-02  0.1184000E+00
        -11   -1    0    0    0    0  0.00000000000E+00  0.00000000000E+00  0.45593999997E+02  0.45594000000E+02  0.51100000000E-03 0.  1.
         11   -1    0    0    0    0 -0.00000000000E+00 -0.00000000000E+00 -0.45593999997E+02  0.45594000000E+02  0.51100000000E-03 0. -1.
         23    2    1    2    0    0  0.35527136788E-14  0.17763568394E-14  0.17763568394E-14  0.91188000000E+02  0.91188000000E+02 0.  0.
    9900012    2    3    3    0    0 -0.31693225221E+02 -0.10713293928E+02 -0.15380023160E+02  0.54367077903E+02  0.39999985695E+02 0.  0.
        -12    1    3    3    0    0  0.31693225221E+02  0.10713293928E+02  0.15380023160E+02  0.36820922097E+02  0.00000000000E+00 0.  1.
         11    1    4    4    0    0 -0.84988376535E+01  0.32677855798E-01  0.11100821077E+01  0.85710904703E+01  0.51100000000E-03 0. -1.
        -11    1    4    4    0    0 -0.73356297121E+01 -0.17236519846E+02  0.39283300473E+01  0.19140032834E+02  0.51100000000E-03 0.  1.
         12    1    4    4    0    0 -0.15858757855E+02  0.64905480618E+01 -0.20418435315E+02  0.26655954599E+02  0.00000000000E+00 0. -1.
</event>
<event>
 8    1  0.2512298E-006  0.9118800E+02  0.7816164E-02  0.1184000E+00
        -11   -1    0    0    0    0  0.00000000000E+00  0.00000000000E+00  0.45593999997E+02  0.45594000000E+02  0.51100000000E-03 0. -1.
         11   -1    0    0    0    0 -0.00000000000E+00 -0.00000000000E+00 -0.45593999997E+02  0.45594000000E+02  0.51100000000E-03 0.  1.
         23    2    1    2    0    0 -0.35527136788E-14  0.35527136788E-14 -0.35527136788E-14  0.91188000000E+02  0.91188000000E+02 0.  0.
    9900012    2    3    3    0    0  0.17476301171E+02 -0.27376088899E+02  0.17346727744E+02  0.54367077830E+02  0.39999985530E+02 0.  0.
        -12    1    3    3    0    0 -0.17476301171E+02  0.27376088899E+02 -0.17346727744E+02  0.36820922170E+02  0.00000000000E+00 0.  1.
         11    1    4    4    0    0  0.16383661495E+02  0.43055421020E+01  0.79017956017E+01  0.18692255904E+02  0.51100000000E-03 0. -1.
        -11    1    4    4    0    0 -0.26370453141E+01 -0.17801661832E+01  0.39042627126E+01  0.50364935440E+01  0.51100000000E-03 0.  1.
        -12    1    4    4    0    0  0.37296849899E+01 -0.29901464817E+02  0.55406694298E+01  0.30638328383E+02  0.00000000000E+00 0.  1.
</event>
<event>
 8    1  0.2512298E-006  0.9118800E+02  0.7816164E-02  0.1184000E+00
        -11   -1    0    0    0    0  0.00000000000E+00  0.00000000000E+00  0.45593999997E+02  0.45594000000E+02  0.51100000000E-03 0.  1.
         11   -1    0    0    0    0 -0.00000000000E+00 -0.00000000000E+00 -0.45593999997E+02  0.45594000000E+02  0.51100000000E-03 0. -1.
         23    2    1    2    0    0  0.00000000000E+00  0.00000000000E+00 -0.17763568394E-14  0.91188000000E+02  0.91188000000E+02 0.  0.
    9900012    2    3    3    0    0 -0.35164849053E+02  0.84191604888E+01  0.69520258212E+01  0.54367088343E+02  0.40000009495E+02 0.  0.
         12    1    3    3    0    0  0.35164849053E+02 -0.84191604888E+01 -0.69520258212E+01  0.36820911657E+02  0.00000000000E+00 0. -1.
         11    1    4    4    0    0  0.34745948037E+01  0.83534841202E+01 -0.91037253834E+00  0.90929799525E+01  0.51100000000E-03 0. -1.
        -11    1    4    4    0    0 -0.80236265321E+01 -0.89056925243E+01 -0.13617911822E+01  0.12064179108E+02  0.51100000000E-03 0.  1.
         12    1    4    4    0    0 -0.30615817324E+02  0.89713688929E+01  0.92241895418E+01  0.33209929282E+02  0.00000000000E+00 0. -1.
</event>
<event>
 8    1  0.2512298E-006  0.9118800E+02  0.7816164E-02  0.1184000E+00
        -11   -1    0    0    0    0  0.00000000000E+00  0.00000000000E+00  0.45593999997E+02  0.45594000000E+02  0.51100000000E-03 0. -1.
         11   -1    0    0    0    0 -0.00000000000E+00 -0.00000000000E+00 -0.45593999997E+02  0.45594000000E+02  0.51100000000E-03 0.  1.
         23    2    1    2    0    0  0.00000000000E+00  0.00000000000E+00  0.00000000000E+00  0.91188000000E+02  0.91188000000E+02 0.  0.
    9900012    2    3    3    0    0  0.72518324491E+01  0.26260970406E+02 -0.24769973409E+02  0.54367092580E+02  0.40000019154E+02 0.  0.
         12    1    3    3    0    0 -0.72518324491E+01 -0.26260970406E+02  0.24769973409E+02  0.36820907420E+02  0.00000000000E+00 0. -1.
         11    1    4    4    0    0 -0.76963699147E+01 -0.73893478965E+01 -0.64081301561E+01  0.12445911158E+02  0.51100000000E-03 0.  1.
        -11    1    4    4    0    0  0.46284635695E+01  0.66790701781E+01 -0.90386156192E+00  0.81761616571E+01  0.51100000000E-03 0. -1.
        -12    1    4    4    0    0  0.10319738794E+02  0.26971248125E+02 -0.17457981691E+02  0.33745019765E+02  0.00000000000E+00 0.  1.
</event>
<event>
 8    1  0.2512298E-006  0.9118800E+02  0.7816164E-02  0.1184000E+00
        -11   -1    0    0    0    0  0.00000000000E+00  0.00000000000E+00  0.45593999997E+02  0.45594000000E+02  0.51100000000E-03 0. -1.
         11   -1    0    0    0    0 -0.00000000000E+00 -0.00000000000E+00 -0.45593999997E+02  0.45594000000E+02  0.51100000000E-03 0.  1.
         23    2    1    2    0    0 -0.17763568394E-14  0.00000000000E+00  0.88817841970E-15  0.91188000000E+02  0.91188000000E+02 0.  0.
    9900012    2    3    3    0    0 -0.60500623869E+01  0.35683201362E+02 -0.67739025307E+01  0.54367083800E+02  0.39999999139E+02 0.  0.
         12    1    3    3    0    0  0.60500623869E+01 -0.35683201362E+02  0.67739025307E+01  0.36820916200E+02  0.00000000000E+00 0. -1.
         11    1    4    4    0    0 -0.16635148507E+02  0.29790546736E+02 -0.29874090952E+01  0.34250977418E+02  0.51100000000E-03 0. -1.
        -11    1    4    4    0    0  0.34248373527E+01 -0.53777568450E+01 -0.17284549533E+01  0.66058562172E+01  0.51100000000E-03 0.  1.
        -12    1    4    4    0    0  0.71602487677E+01  0.11270411470E+02 -0.20580384822E+01  0.13510250165E+02  0.00000000000E+00 0.  1.
</event>
<event>
 8    1  0.2512298E-006  0.9118800E+02  0.7816164E-02  0.1184000E+00
        -11   -1    0    0    0    0  0.00000000000E+00  0.00000000000E+00  0.45593999997E+02  0.45594000000E+02  0.51100000000E-03 0. -1.
         11   -1    0    0    0    0 -0.00000000000E+00 -0.00000000000E+00 -0.45593999997E+02  0.45594000000E+02  0.51100000000E-03 0.  1.
         23    2    1    2    0    0  0.00000000000E+00  0.00000000000E+00  0.00000000000E+00  0.91188000000E+02  0.91188000000E+02 0.  0.
    9900012    2    3    3    0    0 -0.20652352757E+02 -0.15785752629E+02 -0.26078047278E+02  0.54367160652E+02  0.40000174338E+02 0.  0.
         12    1    3    3    0    0  0.20652352757E+02  0.15785752629E+02  0.26078047278E+02  0.36820839348E+02  0.00000000000E+00 0. -1.
         11    1    4    4    0    0  0.73157683094E+00  0.43933107406E+01 -0.38972093290E+01  0.59181605874E+01  0.51100000000E-03 0. -1.
        -11    1    4    4    0    0 -0.12621008920E+02 -0.93995385297E+01  0.61498653290E+01  0.16895621757E+02  0.51100000000E-03 0.  1.
        -12    1    4    4    0    0 -0.87629206685E+01 -0.10779524840E+02 -0.28330703278E+02  0.31553378308E+02  0.00000000000E+00 0.  1.
</event>
<event>
 8    1  0.2512298E-006  0.9118800E+02  0.7816164E-02  0.1184000E+00
        -11   -1    0    0    0    0  0.00000000000E+00  0.00000000000E+00  0.45593999997E+02  0.45594000000E+02  0.51100000000E-03 0.  1.
         11   -1    0    0    0    0 -0.00000000000E+00 -0.00000000000E+00 -0.45593999997E+02  0.45594000000E+02  0.51100000000E-03 0. -1.
         23    2    1    2    0    0  0.00000000000E+00  0.00000000000E+00  0.00000000000E+00  0.91188000000E+02  0.91188000000E+02 0.  0.
    9900012    2    3    3    0    0 -0.77785378978E+01  0.19401916248E+02 -0.30312362087E+02  0.54367091521E+02  0.40000016740E+02 0.  0.
        -12    1    3    3    0    0  0.77785378978E+01 -0.19401916248E+02  0.30312362087E+02  0.36820908479E+02  0.00000000000E+00 0.  1.
         11    1    4    4    0    0 -0.11059587282E+02 -0.60264524955E+01 -0.76576950330E+01  0.14740179578E+02  0.51100000000E-03 0. -1.
        -11    1    4    4    0    0 -0.84431857673E+01  0.12038186909E+02 -0.97390150216E+01  0.17636715789E+02  0.51100000000E-03 0.  1.
         12    1    4    4    0    0  0.11724235151E+02  0.13390181835E+02 -0.12915652033E+02  0.21990196154E+02  0.00000000000E+00 0. -1.
</event>
<event>
 8    1  0.2512298E-006  0.9118800E+02  0.7816164E-02  0.1184000E+00
        -11   -1    0    0    0    0  0.00000000000E+00  0.00000000000E+00  0.45593999997E+02  0.45594000000E+02  0.51100000000E-03 0. -1.
         11   -1    0    0    0    0 -0.00000000000E+00 -0.00000000000E+00 -0.45593999997E+02  0.45594000000E+02  0.51100000000E-03 0.  1.
         23    2    1    2    0    0  0.00000000000E+00  0.00000000000E+00 -0.17763568394E-14  0.91188000000E+02  0.91188000000E+02 0.  0.
    9900012    2    3    3    0    0 -0.36581020711E+02  0.26167735249E+01 -0.32805520324E+01  0.54367073863E+02  0.39999976486E+02 0.  0.
         12    1    3    3    0    0  0.36581020711E+02 -0.26167735249E+01  0.32805520324E+01  0.36820926137E+02  0.00000000000E+00 0. -1.
         11    1    4    4    0    0 -0.39504546396E+01 -0.50758056100E+00  0.74996473984E+01  0.84916689318E+01  0.51100000000E-03 0. -1.
        -11    1    4    4    0    0 -0.24422940665E+01 -0.96359560630E+01  0.29083013934E+01  0.10357348445E+02  0.51100000000E-03 0.  1.
         12    1    4    4    0    0 -0.30188272005E+02  0.12760310149E+02 -0.13688500824E+02  0.35518056486E+02  0.00000000000E+00 0. -1.
</event>
<event>
 8    1  0.2512298E-006  0.9118800E+02  0.7816164E-02  0.1184000E+00
        -11   -1    0    0    0    0  0.00000000000E+00  0.00000000000E+00  0.45593999997E+02  0.45594000000E+02  0.51100000000E-03 0.  1.
         11   -1    0    0    0    0 -0.00000000000E+00 -0.00000000000E+00 -0.45593999997E+02  0.45594000000E+02  0.51100000000E-03 0. -1.
         23    2    1    2    0    0 -0.35527136788E-14  0.00000000000E+00  0.88817841970E-15  0.91188000000E+02  0.91188000000E+02 0.  0.
    9900012    2    3    3    0    0 -0.31676579337E+02  0.17728127463E+02  0.61714408587E+01  0.54367097456E+02  0.40000030270E+02 0.  0.
         12    1    3    3    0    0  0.31676579337E+02 -0.17728127463E+02 -0.61714408587E+01  0.36820902544E+02  0.00000000000E+00 0. -1.
         11    1    4    4    0    0 -0.11520449378E+02 -0.18859529405E+01  0.15549336989E+01  0.11776900757E+02  0.51100000000E-03 0. -1.
        -11    1    4    4    0    0 -0.21777717409E+02  0.26524100256E+02  0.37382513580E+00  0.34321081210E+02  0.51100000000E-03 0.  1.
         12    1    4    4    0    0  0.16215874502E+01 -0.69100198518E+01  0.42426820241E+01  0.82691154888E+01  0.00000000000E+00 0. -1.
</event>
<event>
 8    1  0.2512298E-006  0.9118800E+02  0.7816164E-02  0.1184000E+00
        -11   -1    0    0    0    0  0.00000000000E+00  0.00000000000E+00  0.45593999997E+02  0.45594000000E+02  0.51100000000E-03 0.  1.
         11   -1    0    0    0    0 -0.00000000000E+00 -0.00000000000E+00 -0.45593999997E+02  0.45594000000E+02  0.51100000000E-03 0. -1.
         23    2    1    2    0    0 -0.35527136788E-14  0.35527136788E-14  0.44408920985E-15  0.91188000000E+02  0.91188000000E+02 0.  0.
    9900012    2    3    3    0    0  0.24253066801E+02 -0.27426861983E+02 -0.39161493261E+01  0.54367078867E+02  0.39999987894E+02 0.  0.
        -12    1    3    3    0    0 -0.24253066801E+02  0.27426861983E+02  0.39161493261E+01  0.36820921133E+02  0.00000000000E+00 0.  1.
         11    1    4    4    0    0  0.31896136238E+01 -0.62500222080E+01  0.15221018613E+02  0.16760543563E+02  0.51100000000E-03 0. -1.
        -11    1    4    4    0    0 -0.21142712203E+00  0.13368769018E+01 -0.12205935711E+01  0.18225779011E+01  0.51100000000E-03 0.  1.
         12    1    4    4    0    0  0.21274880299E+02 -0.22513716677E+02 -0.17916574368E+02  0.35783957403E+02  0.00000000000E+00 0. -1.
</event>
<event>
 8    1  0.2512298E-006  0.9118800E+02  0.7816164E-02  0.1184000E+00
        -11   -1    0    0    0    0  0.00000000000E+00  0.00000000000E+00  0.45593999997E+02  0.45594000000E+02  0.51100000000E-03 0.  1.
         11   -1    0    0    0    0 -0.00000000000E+00 -0.00000000000E+00 -0.45593999997E+02  0.45594000000E+02  0.51100000000E-03 0. -1.
         23    2    1    2    0    0  0.00000000000E+00  0.17763568394E-14  0.00000000000E+00  0.91188000000E+02  0.91188000000E+02 0.  0.
    9900012    2    3    3    0    0 -0.22548920464E+02  0.97572744215E+01  0.27424946631E+02  0.54367001698E+02  0.39999811971E+02 0.  0.
         12    1    3    3    0    0  0.22548920464E+02 -0.97572744215E+01 -0.27424946631E+02  0.36820998302E+02  0.00000000000E+00 0. -1.
         11    1    4    4    0    0 -0.67828314356E+01 -0.10464911774E+02  0.25346603426E+02  0.28248389091E+02  0.51100000000E-03 0. -1.
        -11    1    4    4    0    0 -0.13813989245E+02  0.15059277849E+02  0.24747587692E+01  0.20584765712E+02  0.51100000000E-03 0.  1.
         12    1    4    4    0    0 -0.19520997835E+01  0.51629083468E+01 -0.39641556454E+00  0.55338468954E+01  0.00000000000E+00 0. -1.
</event>
<event>
 8    1  0.2512298E-006  0.9118800E+02  0.7816164E-02  0.1184000E+00
        -11   -1    0    0    0    0  0.00000000000E+00  0.00000000000E+00  0.45593999997E+02  0.45594000000E+02  0.51100000000E-03 0.  1.
         11   -1    0    0    0    0 -0.00000000000E+00 -0.00000000000E+00 -0.45593999997E+02  0.45594000000E+02  0.51100000000E-03 0. -1.
         23    2    1    2    0    0  0.00000000000E+00  0.35527136788E-14  0.00000000000E+00  0.91188000000E+02  0.91188000000E+02 0.  0.
    9900012    2    3    3    0    0 -0.16390347530E+02  0.28506462246E+02 -0.16568623704E+02  0.54367066098E+02  0.39999958784E+02 0.  0.
        -12    1    3    3    0    0  0.16390347530E+02 -0.28506462246E+02  0.16568623704E+02  0.36820933902E+02  0.00000000000E+00 0.  1.
         11    1    4    4    0    0 -0.18758715175E+02  0.31253528626E+02 -0.23200260778E+02  0.43207922271E+02  0.51100000000E-03 0. -1.
        -11    1    4    4    0    0 -0.13872866788E+01  0.14630211150E+01  0.48344493019E+01  0.52380240001E+01  0.51100000000E-03 0.  1.
         12    1    4    4    0    0  0.37556543241E+01 -0.42100874949E+01  0.17971877714E+01  0.59211198267E+01  0.00000000000E+00 0. -1.
</event>
<event>
 8    1  0.2512298E-006  0.9118800E+02  0.7816164E-02  0.1184000E+00
        -11   -1    0    0    0    0  0.00000000000E+00  0.00000000000E+00  0.45593999997E+02  0.45594000000E+02  0.51100000000E-03 0.  1.
         11   -1    0    0    0    0 -0.00000000000E+00 -0.00000000000E+00 -0.45593999997E+02  0.45594000000E+02  0.51100000000E-03 0. -1.
         23    2    1    2    0    0 -0.35527136788E-14  0.17763568394E-14  0.00000000000E+00  0.91188000000E+02  0.91188000000E+02 0.  0.
    9900012    2    3    3    0    0 -0.28308779691E+02  0.12867668653E+02  0.19718412336E+02  0.54367086252E+02  0.40000004729E+02 0.  0.
         12    1    3    3    0    0  0.28308779691E+02 -0.12867668653E+02 -0.19718412336E+02  0.36820913748E+02  0.00000000000E+00 0. -1.
         11    1    4    4    0    0  0.15701802565E+01 -0.45883226665E+01 -0.36971747875E+01  0.60981368138E+01  0.51100000000E-03 0. -1.
        -11    1    4    4    0    0  0.29499670834E+01  0.51791872691E+01 -0.27061255279E+00  0.59665331623E+01  0.51100000000E-03 0.  1.
        -12    1    4    4    0    0 -0.32828927031E+02  0.12276804051E+02  0.23686199677E+02  0.42302416276E+02  0.00000000000E+00 0.  1.
</event>
<event>
 8    1  0.2512298E-006  0.9118800E+02  0.7816164E-02  0.1184000E+00
        -11   -1    0    0    0    0  0.00000000000E+00  0.00000000000E+00  0.45593999997E+02  0.45594000000E+02  0.51100000000E-03 0.  1.
         11   -1    0    0    0    0 -0.00000000000E+00 -0.00000000000E+00 -0.45593999997E+02  0.45594000000E+02  0.51100000000E-03 0. -1.
         23    2    1    2    0    0  0.00000000000E+00  0.35527136788E-14  0.00000000000E+00  0.91188000000E+02  0.91188000000E+02 0.  0.
    9900012    2    3    3    0    0 -0.23171035286E+02 -0.24081845557E+02  0.15457934577E+02  0.54367083348E+02  0.39999998109E+02 0.  0.
         12    1    3    3    0    0  0.23171035286E+02  0.24081845557E+02 -0.15457934577E+02  0.36820916652E+02  0.00000000000E+00 0. -1.
         11    1    4    4    0    0 -0.23516785291E+01 -0.17272247690E+02  0.76039882149E+01  0.19017927574E+02  0.51100000000E-03 0. -1.
        -11    1    4    4    0    0 -0.25694809207E+02 -0.20690428506E+00  0.86269722029E+01  0.27105178089E+02  0.51100000000E-03 0.  1.
        -12    1    4    4    0    0  0.48754524496E+01 -0.66026935819E+01 -0.77302584064E+00  0.82439776853E+01  0.00000000000E+00 0.  1.
</event>
<event>
 8    1  0.2512298E-006  0.9118800E+02  0.7816164E-02  0.1184000E+00
        -11   -1    0    0    0    0  0.00000000000E+00  0.00000000000E+00  0.45593999997E+02  0.45594000000E+02  0.51100000000E-03 0.  1.
         11   -1    0    0    0    0 -0.00000000000E+00 -0.00000000000E+00 -0.45593999997E+02  0.45594000000E+02  0.51100000000E-03 0. -1.
         23    2    1    2    0    0  0.00000000000E+00 -0.88817841970E-15  0.35527136788E-14  0.91188000000E+02  0.91188000000E+02 0.  0.
    9900012    2    3    3    0    0 -0.25514164298E+02 -0.51884756705E+01  0.26036265756E+02  0.54367082112E+02  0.39999995291E+02 0.  0.
         12    1    3    3    0    0  0.25514164298E+02  0.51884756705E+01 -0.26036265756E+02  0.36820917888E+02  0.00000000000E+00 0. -1.
         11    1    4    4    0    0  0.12208669723E+00 -0.32145957793E+01  0.21039522321E+01  0.38438452677E+01  0.51100000000E-03 0. -1.
        -11    1    4    4    0    0 -0.23294311023E+02 -0.15374226892E+02  0.24164684882E+02  0.36917797527E+02  0.51100000000E-03 0.  1.
        -12    1    4    4    0    0 -0.23419399718E+01  0.13400347001E+02 -0.23237135811E+00  0.13605439317E+02  0.00000000000E+00 0.  1.
</event>
<event>
 8    1  0.2512298E-006  0.9118800E+02  0.7816164E-02  0.1184000E+00
        -11   -1    0    0    0    0  0.00000000000E+00  0.00000000000E+00  0.45593999997E+02  0.45594000000E+02  0.51100000000E-03 0.  1.
         11   -1    0    0    0    0 -0.00000000000E+00 -0.00000000000E+00 -0.45593999997E+02  0.45594000000E+02  0.51100000000E-03 0. -1.
         23    2    1    2    0    0  0.00000000000E+00 -0.35527136788E-14  0.00000000000E+00  0.91188000000E+02  0.91188000000E+02 0.  0.
    9900012    2    3    3    0    0 -0.14240601698E+02  0.31709145713E+02  0.12145581279E+02  0.54367084705E+02  0.40000001202E+02 0.  0.
        -12    1    3    3    0    0  0.14240601698E+02 -0.31709145713E+02 -0.12145581279E+02  0.36820915295E+02  0.00000000000E+00 0.  1.
         11    1    4    4    0    0 -0.43992551246E+01  0.12364901676E+02  0.29895481871E+01  0.13460372867E+02  0.51100000000E-03 0. -1.
        -11    1    4    4    0    0 -0.32883766645E+01  0.14034870899E+02 -0.11599922829E+02  0.18502681756E+02  0.51100000000E-03 0.  1.
        -12    1    4    4    0    0 -0.65529699089E+01  0.53093731376E+01  0.20755955921E+02  0.22404030082E+02  0.00000000000E+00 0.  1.
</event>
<event>
 8    1  0.2512298E-006  0.9118800E+02  0.7816164E-02  0.1184000E+00
        -11   -1    0    0    0    0  0.00000000000E+00  0.00000000000E+00  0.45593999997E+02  0.45594000000E+02  0.51100000000E-03 0. -1.
         11   -1    0    0    0    0 -0.00000000000E+00 -0.00000000000E+00 -0.45593999997E+02  0.45594000000E+02  0.51100000000E-03 0.  1.
         23    2    1    2    0    0  0.35527136788E-14  0.00000000000E+00  0.00000000000E+00  0.91188000000E+02  0.91188000000E+02 0.  0.
    9900012    2    3    3    0    0  0.22176649233E+02  0.21241884853E+02  0.20316445818E+02  0.54367089990E+02  0.40000013250E+02 0.  0.
        -12    1    3    3    0    0 -0.22176649233E+02 -0.21241884853E+02 -0.20316445818E+02  0.36820910010E+02  0.00000000000E+00 0.  1.
         11    1    4    4    0    0 -0.93356732057E+00  0.72453297175E+01  0.97822131970E+01  0.12208933039E+02  0.51100000000E-03 0. -1.
        -11    1    4    4    0    0 -0.22781920474E+01  0.11042647915E+02  0.12114521225E+02  0.16549678448E+02  0.51100000000E-03 0.  1.
        -12    1    4    4    0    0  0.25388408601E+02  0.29539072205E+01 -0.15802886033E+01  0.25608478503E+02  0.00000000000E+00 0.  1.
</event>
<event>
 8    1  0.2512298E-006  0.9118800E+02  0.7816164E-02  0.1184000E+00
        -11   -1    0    0    0    0  0.00000000000E+00  0.00000000000E+00  0.45593999997E+02  0.45594000000E+02  0.51100000000E-03 0. -1.
         11   -1    0    0    0    0 -0.00000000000E+00 -0.00000000000E+00 -0.45593999997E+02  0.45594000000E+02  0.51100000000E-03 0.  1.
         23    2    1    2    0    0  0.00000000000E+00  0.00000000000E+00  0.00000000000E+00  0.91188000000E+02  0.91188000000E+02 0.  0.
    9900012    2    3    3    0    0 -0.11495363041E+02 -0.16024833793E+02 -0.31094047465E+02  0.54367102981E+02  0.40000042866E+02 0.  0.
         12    1    3    3    0    0  0.11495363041E+02  0.16024833793E+02  0.31094047465E+02  0.36820897019E+02  0.00000000000E+00 0. -1.
         11    1    4    4    0    0 -0.22130351612E+02 -0.67072913915E+01 -0.17914549021E+02  0.29251859551E+02  0.51100000000E-03 0. -1.
        -11    1    4    4    0    0  0.54943800479E+01 -0.10347977093E+02 -0.15459935034E+02  0.19397897658E+02  0.51100000000E-03 0.  1.
        -12    1    4    4    0    0  0.51406085227E+01  0.10304346915E+01  0.22804365906E+01  0.57173457724E+01  0.00000000000E+00 0.  1.
</event>
<event>
 8    1  0.2512298E-006  0.9118800E+02  0.7816164E-02  0.1184000E+00
        -11   -1    0    0    0    0  0.00000000000E+00  0.00000000000E+00  0.45593999997E+02  0.45594000000E+02  0.51100000000E-03 0.  1.
         11   -1    0    0    0    0 -0.00000000000E+00 -0.00000000000E+00 -0.45593999997E+02  0.45594000000E+02  0.51100000000E-03 0. -1.
         23    2    1    2    0    0  0.00000000000E+00  0.00000000000E+00 -0.44408920985E-15  0.91188000000E+02  0.91188000000E+02 0.  0.
    9900012    2    3    3    0    0  0.30874968201E+02  0.19939134576E+02  0.22241776941E+01  0.54367085896E+02  0.40000003916E+02 0.  0.
         12    1    3    3    0    0 -0.30874968201E+02 -0.19939134576E+02 -0.22241776941E+01  0.36820914104E+02  0.00000000000E+00 0. -1.
         11    1    4    4    0    0  0.14449589061E+02  0.36608851797E+01 -0.11786482711E+02  0.19002996587E+02  0.51100000000E-03 0. -1.
        -11    1    4    4    0    0  0.19213548785E+02  0.14038055048E+02  0.18125157263E+02  0.29912351505E+02  0.51100000000E-03 0.  1.
        -12    1    4    4    0    0 -0.27881696449E+01  0.22401943477E+01 -0.41144968582E+01  0.54517378037E+01  0.00000000000E+00 0.  1.
</event>
<event>
 8    1  0.2512298E-006  0.9118800E+02  0.7816164E-02  0.1184000E+00
        -11   -1    0    0    0    0  0.00000000000E+00  0.00000000000E+00  0.45593999997E+02  0.45594000000E+02  0.51100000000E-03 0.  1.
         11   -1    0    0    0    0 -0.00000000000E+00 -0.00000000000E+00 -0.45593999997E+02  0.45594000000E+02  0.51100000000E-03 0. -1.
         23    2    1    2    0    0 -0.88817841970E-15  0.00000000000E+00  0.00000000000E+00  0.91188000000E+02  0.91188000000E+02 0.  0.
    9900012    2    3    3    0    0 -0.47540180533E+01  0.22540365659E+02 -0.28724716974E+02  0.54367107331E+02  0.40000052782E+02 0.  0.
        -12    1    3    3    0    0  0.47540180533E+01 -0.22540365659E+02  0.28724716974E+02  0.36820892669E+02  0.00000000000E+00 0.  1.
         11    1    4    4    0    0 -0.40592430978E+01 -0.66688382391E+01 -0.38083970000E+00  0.78163864493E+01  0.51100000000E-03 0. -1.
        -11    1    4    4    0    0  0.73152715669E+01  0.10792756308E+02 -0.16447786061E+01  0.13141616482E+02  0.51100000000E-03 0.  1.
         12    1    4    4    0    0 -0.80100465223E+01  0.18416447590E+02 -0.26699098668E+02  0.33409104400E+02  0.00000000000E+00 0. -1.
</event>
<event>
 8    1  0.2512298E-006  0.9118800E+02  0.7816164E-02  0.1184000E+00
        -11   -1    0    0    0    0  0.00000000000E+00  0.00000000000E+00  0.45593999997E+02  0.45594000000E+02  0.51100000000E-03 0.  1.
         11   -1    0    0    0    0 -0.00000000000E+00 -0.00000000000E+00 -0.45593999997E+02  0.45594000000E+02  0.51100000000E-03 0. -1.
         23    2    1    2    0    0  0.00000000000E+00  0.00000000000E+00 -0.17763568394E-14  0.91188000000E+02  0.91188000000E+02 0.  0.
    9900012    2    3    3    0    0 -0.25249009999E+02  0.23142957877E+02  0.13515618579E+02  0.54367069121E+02  0.39999965676E+02 0.  0.
         12    1    3    3    0    0  0.25249009999E+02 -0.23142957877E+02 -0.13515618579E+02  0.36820930879E+02  0.00000000000E+00 0. -1.
         11    1    4    4    0    0 -0.93638514579E+01  0.20116164548E+02 -0.88791813262E+00  0.22206534830E+02  0.51100000000E-03 0. -1.
        -11    1    4    4    0    0 -0.26391468232E+01  0.24695237177E+01  0.18051733796E+02  0.18410017290E+02  0.51100000000E-03 0.  1.
         12    1    4    4    0    0 -0.13246011718E+02  0.55726961035E+00 -0.36481970836E+01  0.13750517001E+02  0.00000000000E+00 0. -1.
</event>
<event>
 8    1  0.2512298E-006  0.9118800E+02  0.7816164E-02  0.1184000E+00
        -11   -1    0    0    0    0  0.00000000000E+00  0.00000000000E+00  0.45593999997E+02  0.45594000000E+02  0.51100000000E-03 0.  1.
         11   -1    0    0    0    0 -0.00000000000E+00 -0.00000000000E+00 -0.45593999997E+02  0.45594000000E+02  0.51100000000E-03 0. -1.
         23    2    1    2    0    0  0.00000000000E+00  0.00000000000E+00  0.00000000000E+00  0.91188000000E+02  0.91188000000E+02 0.  0.
    9900012    2    3    3    0    0 -0.16122796991E+02  0.24169886683E+02 -0.22619676790E+02  0.54367112135E+02  0.40000063734E+02 0.  0.
        -12    1    3    3    0    0  0.16122796991E+02 -0.24169886683E+02  0.22619676790E+02  0.36820887865E+02  0.00000000000E+00 0.  1.
         11    1    4    4    0    0 -0.25636177109E+02  0.19876228473E+02 -0.20532809685E+02  0.38391070693E+02  0.51100000000E-03 0. -1.
        -11    1    4    4    0    0  0.10528177747E+02  0.71751772019E+01 -0.12118779003E+01  0.12798216394E+02  0.51100000000E-03 0.  1.
        -12    1    4    4    0    0 -0.10147976295E+01 -0.28815189924E+01 -0.87498920437E+00  0.31778250487E+01  0.00000000000E+00 0.  1.
</event>
<event>
 8    1  0.2512298E-006  0.9118800E+02  0.7816164E-02  0.1184000E+00
        -11   -1    0    0    0    0  0.00000000000E+00  0.00000000000E+00  0.45593999997E+02  0.45594000000E+02  0.51100000000E-03 0. -1.
         11   -1    0    0    0    0 -0.00000000000E+00 -0.00000000000E+00 -0.45593999997E+02  0.45594000000E+02  0.51100000000E-03 0.  1.
         23    2    1    2    0    0  0.00000000000E+00  0.00000000000E+00  0.71054273576E-14  0.91188000000E+02  0.91188000000E+02 0.  0.
    9900012    2    3    3    0    0 -0.13065769113E+02  0.75526543611E+01  0.33586074552E+02  0.54367064186E+02  0.39999954425E+02 0.  0.
        -12    1    3    3    0    0  0.13065769113E+02 -0.75526543611E+01 -0.33586074552E+02  0.36820935814E+02  0.00000000000E+00 0.  1.
         11    1    4    4    0    0 -0.50744095494E+01  0.95216547193E+00  0.14138016398E+01  0.53530446196E+01  0.51100000000E-03 0. -1.
        -11    1    4    4    0    0 -0.38315242312E+01 -0.47345576152E+00  0.38473991102E+02  0.38667204836E+02  0.51100000000E-03 0.  1.
        -12    1    4    4    0    0 -0.41598353327E+01  0.70739446507E+01 -0.63017181898E+01  0.10346814730E+02  0.00000000000E+00 0.  1.
</event>
<event>
 8    1  0.2512298E-006  0.9118800E+02  0.7816164E-02  0.1184000E+00
        -11   -1    0    0    0    0  0.00000000000E+00  0.00000000000E+00  0.45593999997E+02  0.45594000000E+02  0.51100000000E-03 0.  1.
         11   -1    0    0    0    0 -0.00000000000E+00 -0.00000000000E+00 -0.45593999997E+02  0.45594000000E+02  0.51100000000E-03 0. -1.
         23    2    1    2    0    0 -0.17763568394E-14  0.00000000000E+00  0.00000000000E+00  0.91188000000E+02  0.91188000000E+02 0.  0.
    9900012    2    3    3    0    0 -0.45895658030E+01 -0.29027211000E+02  0.22184003244E+02  0.54367175829E+02  0.40000208938E+02 0.  0.
         12    1    3    3    0    0  0.45895658030E+01  0.29027211000E+02 -0.22184003244E+02  0.36820824171E+02  0.00000000000E+00 0. -1.
         11    1    4    4    0    0  0.57248355589E+01 -0.88906889357E+00  0.43879914038E+00  0.58100542700E+01  0.51100000000E-03 0. -1.
        -11    1    4    4    0    0 -0.17093154864E+02 -0.27521773548E+02  0.25085987850E+02  0.40974757463E+02  0.51100000000E-03 0.  1.
        -12    1    4    4    0    0  0.67787535025E+01 -0.61636855772E+00 -0.33407837467E+01  0.75823640963E+01  0.00000000000E+00 0.  1.
</event>
<event>
 8    1  0.2512298E-006  0.9118800E+02  0.7816164E-02  0.1184000E+00
        -11   -1    0    0    0    0  0.00000000000E+00  0.00000000000E+00  0.45593999997E+02  0.45594000000E+02  0.51100000000E-03 0.  1.
         11   -1    0    0    0    0 -0.00000000000E+00 -0.00000000000E+00 -0.45593999997E+02  0.45594000000E+02  0.51100000000E-03 0. -1.
         23    2    1    2    0    0  0.35527136788E-14  0.35527136788E-14  0.00000000000E+00  0.91188000000E+02  0.91188000000E+02 0.  0.
    9900012    2    3    3    0    0 -0.25748926349E+02 -0.21289714562E+02  0.15476481814E+02  0.54367073292E+02  0.39999975185E+02 0.  0.
         12    1    3    3    0    0  0.25748926349E+02  0.21289714562E+02 -0.15476481814E+02  0.36820926708E+02  0.00000000000E+00 0. -1.
         11    1    4    4    0    0  0.48169444445E+00 -0.42103171393E+01 -0.47341459587E+01  0.63538128844E+01  0.51100000000E-03 0. -1.
        -11    1    4    4    0    0 -0.11751313285E+02  0.80607014298E+01  0.40989316206E+01  0.14827997577E+02  0.51100000000E-03 0.  1.
        -12    1    4    4    0    0 -0.14479307508E+02 -0.25140098853E+02  0.16111696152E+02  0.33185262831E+02  0.00000000000E+00 0.  1.
</event>
<event>
 8    1  0.2512298E-006  0.9118800E+02  0.7816164E-02  0.1184000E+00
        -11   -1    0    0    0    0  0.00000000000E+00  0.00000000000E+00  0.45593999997E+02  0.45594000000E+02  0.51100000000E-03 0. -1.
         11   -1    0    0    0    0 -0.00000000000E+00 -0.00000000000E+00 -0.45593999997E+02  0.45594000000E+02  0.51100000000E-03 0.  1.
         23    2    1    2    0    0  0.00000000000E+00  0.00000000000E+00  0.35527136788E-14  0.91188000000E+02  0.91188000000E+02 0.  0.
    9900012    2    3    3    0    0 -0.27374600101E+02  0.19316651316E+02 -0.15273445562E+02  0.54367083552E+02  0.39999998573E+02 0.  0.
         12    1    3    3    0    0  0.27374600101E+02 -0.19316651316E+02  0.15273445562E+02  0.36820916448E+02  0.00000000000E+00 0. -1.
         11    1    4    4    0    0 -0.18514021352E+02  0.13017313831E+02 -0.25032586271E+02  0.33746849063E+02  0.51100000000E-03 0. -1.
        -11    1    4    4    0    0  0.18325967418E+00  0.39012041830E+01 -0.29101628317E+01  0.48705262707E+01  0.51100000000E-03 0.  1.
         12    1    4    4    0    0 -0.90438384233E+01  0.23981333020E+01  0.12669303541E+02  0.15749708218E+02  0.00000000000E+00 0. -1.
</event>
<event>
 8    1  0.2512298E-006  0.9118800E+02  0.7816164E-02  0.1184000E+00
        -11   -1    0    0    0    0  0.00000000000E+00  0.00000000000E+00  0.45593999997E+02  0.45594000000E+02  0.51100000000E-03 0. -1.
         11   -1    0    0    0    0 -0.00000000000E+00 -0.00000000000E+00 -0.45593999997E+02  0.45594000000E+02  0.51100000000E-03 0.  1.
         23    2    1    2    0    0  0.00000000000E+00  0.00000000000E+00  0.00000000000E+00  0.91188000000E+02  0.91188000000E+02 0.  0.
    9900012    2    3    3    0    0 -0.13831487804E+02  0.19877937622E+02  0.27736914930E+02  0.54367096850E+02  0.40000028888E+02 0.  0.
        -12    1    3    3    0    0  0.13831487804E+02 -0.19877937622E+02 -0.27736914930E+02  0.36820903150E+02  0.00000000000E+00 0.  1.
         11    1    4    4    0    0 -0.38146125945E+01  0.20853380437E+02  0.26927245270E+02  0.34270851798E+02  0.51100000000E-03 0. -1.
        -11    1    4    4    0    0 -0.11912474464E+02 -0.88785259356E-01 -0.57377009519E+01  0.13222561898E+02  0.51100000000E-03 0.  1.
        -12    1    4    4    0    0  0.18955992546E+01 -0.88665755557E+00  0.65473706122E+01  0.68736831531E+01  0.00000000000E+00 0.  1.
</event>
<event>
 8    1  0.2512298E-006  0.9118800E+02  0.7816164E-02  0.1184000E+00
        -11   -1    0    0    0    0  0.00000000000E+00  0.00000000000E+00  0.45593999997E+02  0.45594000000E+02  0.51100000000E-03 0.  1.
         11   -1    0    0    0    0 -0.00000000000E+00 -0.00000000000E+00 -0.45593999997E+02  0.45594000000E+02  0.51100000000E-03 0. -1.
         23    2    1    2    0    0  0.00000000000E+00  0.00000000000E+00  0.17763568394E-14  0.91188000000E+02  0.91188000000E+02 0.  0.
    9900012    2    3    3    0    0 -0.28607225148E+02 -0.17194124833E+02  0.15548952603E+02  0.54367065921E+02  0.39999958379E+02 0.  0.
         12    1    3    3    0    0  0.28607225148E+02  0.17194124833E+02 -0.15548952603E+02  0.36820934079E+02  0.00000000000E+00 0. -1.
         11    1    4    4    0    0 -0.29303228548E+02 -0.94342210301E+01  0.30170858210E+01  0.30931966263E+02  0.51100000000E-03 0. -1.
        -11    1    4    4    0    0 -0.55926434289E+01  0.14559885748E+00  0.12092409906E+02  0.13323859694E+02  0.51100000000E-03 0.  1.
         12    1    4    4    0    0  0.62886468290E+01 -0.79055026601E+01  0.43945687508E+00  0.10111239963E+02  0.00000000000E+00 0. -1.
</event>
<event>
 8    1  0.2512298E-006  0.9118800E+02  0.7816164E-02  0.1184000E+00
        -11   -1    0    0    0    0  0.00000000000E+00  0.00000000000E+00  0.45593999997E+02  0.45594000000E+02  0.51100000000E-03 0.  1.
         11   -1    0    0    0    0 -0.00000000000E+00 -0.00000000000E+00 -0.45593999997E+02  0.45594000000E+02  0.51100000000E-03 0. -1.
         23    2    1    2    0    0  0.00000000000E+00  0.00000000000E+00  0.00000000000E+00  0.91188000000E+02  0.91188000000E+02 0.  0.
    9900012    2    3    3    0    0 -0.36210779019E+02  0.29461027352E+01 -0.59898291379E+01  0.54367107946E+02  0.40000054186E+02 0.  0.
        -12    1    3    3    0    0  0.36210779019E+02 -0.29461027352E+01  0.59898291379E+01  0.36820892054E+02  0.00000000000E+00 0.  1.
         11    1    4    4    0    0 -0.22073141069E+02  0.68487799136E+01 -0.14834092066E+02  0.27462331122E+02  0.51100000000E-03 0. -1.
        -11    1    4    4    0    0 -0.14439206957E+02 -0.10959367150E+02  0.47439866181E+01  0.18737764946E+02  0.51100000000E-03 0.  1.
        -12    1    4    4    0    0  0.30156900658E+00  0.70566899714E+01  0.41002763096E+01  0.81670118791E+01  0.00000000000E+00 0.  1.
</event>
<event>
 8    1  0.2512298E-006  0.9118800E+02  0.7816164E-02  0.1184000E+00
        -11   -1    0    0    0    0  0.00000000000E+00  0.00000000000E+00  0.45593999997E+02  0.45594000000E+02  0.51100000000E-03 0.  1.
         11   -1    0    0    0    0 -0.00000000000E+00 -0.00000000000E+00 -0.45593999997E+02  0.45594000000E+02  0.51100000000E-03 0. -1.
         23    2    1    2    0    0  0.88817841970E-15 -0.17763568394E-14  0.00000000000E+00  0.91188000000E+02  0.91188000000E+02 0.  0.
    9900012    2    3    3    0    0 -0.18557582317E+01  0.14523503367E+02  0.33784663950E+02  0.54367088728E+02  0.40000010374E+02 0.  0.
         12    1    3    3    0    0  0.18557582317E+01 -0.14523503367E+02 -0.33784663950E+02  0.36820911272E+02  0.00000000000E+00 0. -1.
         11    1    4    4    0    0  0.61796069307E+01  0.47736907513E+01 -0.28037229221E+01  0.82967781513E+01  0.51100000000E-03 0. -1.
        -11    1    4    4    0    0 -0.91251485852E+01  0.94463560669E+00  0.81153565938E+00  0.92097374295E+01  0.51100000000E-03 0.  1.
         12    1    4    4    0    0  0.10897834228E+01  0.88051770092E+01  0.35776851213E+02  0.36860573147E+02  0.00000000000E+00 0. -1.
</event>
<event>
 8    1  0.2512298E-006  0.9118800E+02  0.7816164E-02  0.1184000E+00
        -11   -1    0    0    0    0  0.00000000000E+00  0.00000000000E+00  0.45593999997E+02  0.45594000000E+02  0.51100000000E-03 0.  1.
         11   -1    0    0    0    0 -0.00000000000E+00 -0.00000000000E+00 -0.45593999997E+02  0.45594000000E+02  0.51100000000E-03 0. -1.
         23    2    1    2    0    0 -0.35527136788E-14  0.00000000000E+00  0.00000000000E+00  0.91188000000E+02  0.91188000000E+02 0.  0.
    9900012    2    3    3    0    0  0.28777858232E+02 -0.16147042381E+02 -0.16336710432E+02  0.54367079183E+02  0.39999988613E+02 0.  0.
        -12    1    3    3    0    0 -0.28777858232E+02  0.16147042381E+02  0.16336710432E+02  0.36820920817E+02  0.00000000000E+00 0.  1.
         11    1    4    4    0    0 -0.24527406908E+01  0.22635941324E+01  0.38804807948E+01  0.51183910316E+01  0.51100000000E-03 0. -1.
        -11    1    4    4    0    0 -0.41018418701E+01  0.14643868678E+01 -0.16097292734E+01  0.46433569991E+01  0.51100000000E-03 0.  1.
         12    1    4    4    0    0  0.35332440793E+02 -0.19875023381E+02 -0.18607461954E+02  0.44605331152E+02  0.00000000000E+00 0. -1.
</event>
<event>
 8    1  0.2512298E-006  0.9118800E+02  0.7816164E-02  0.1184000E+00
        -11   -1    0    0    0    0  0.00000000000E+00  0.00000000000E+00  0.45593999997E+02  0.45594000000E+02  0.51100000000E-03 0.  1.
         11   -1    0    0    0    0 -0.00000000000E+00 -0.00000000000E+00 -0.45593999997E+02  0.45594000000E+02  0.51100000000E-03 0. -1.
         23    2    1    2    0    0  0.00000000000E+00  0.35527136788E-14  0.16653345369E-15  0.91188000000E+02  0.91188000000E+02 0.  0.
    9900012    2    3    3    0    0 -0.18377431308E+02 -0.31905454063E+02 -0.30243205442E+00  0.54367089560E+02  0.40000012271E+02 0.  0.
         12    1    3    3    0    0  0.18377431308E+02  0.31905454063E+02  0.30243205442E+00  0.36820910440E+02  0.00000000000E+00 0. -1.
         11    1    4    4    0    0 -0.10274967202E+02 -0.30582881048E+02 -0.27185485838E-02  0.32262789276E+02  0.51100000000E-03 0. -1.
        -11    1    4    4    0    0 -0.11407682439E+02  0.61268158739E+01  0.30332488231E+01  0.13299386830E+02  0.51100000000E-03 0.  1.
        -12    1    4    4    0    0  0.33052183333E+01 -0.74493888894E+01 -0.33329623290E+01  0.88049134546E+01  0.00000000000E+00 0.  1.
</event>
<event>
 8    1  0.2512298E-006  0.9118800E+02  0.7816164E-02  0.1184000E+00
        -11   -1    0    0    0    0  0.00000000000E+00  0.00000000000E+00  0.45593999997E+02  0.45594000000E+02  0.51100000000E-03 0. -1.
         11   -1    0    0    0    0 -0.00000000000E+00 -0.00000000000E+00 -0.45593999997E+02  0.45594000000E+02  0.51100000000E-03 0.  1.
         23    2    1    2    0    0  0.00000000000E+00  0.13322676296E-14 -0.35527136788E-14  0.91188000000E+02  0.91188000000E+02 0.  0.
    9900012    2    3    3    0    0 -0.20820412332E+02  0.14116029110E+01  0.30336389814E+02  0.54367099150E+02  0.40000034133E+02 0.  0.
        -12    1    3    3    0    0  0.20820412332E+02 -0.14116029110E+01 -0.30336389814E+02  0.36820900850E+02  0.00000000000E+00 0.  1.
         11    1    4    4    0    0 -0.15799303601E+02 -0.26693316329E+01  0.23983663535E+02  0.28843707155E+02  0.51100000000E-03 0. -1.
        -11    1    4    4    0    0 -0.62448194426E+00  0.12989131373E+02 -0.11781904367E+01  0.13057398075E+02  0.51100000000E-03 0.  1.
        -12    1    4    4    0    0 -0.43966267871E+01 -0.89081968288E+01  0.75309167154E+01  0.12465993920E+02  0.00000000000E+00 0.  1.
</event>
<event>
 8    1  0.2512298E-006  0.9118800E+02  0.7816164E-02  0.1184000E+00
        -11   -1    0    0    0    0  0.00000000000E+00  0.00000000000E+00  0.45593999997E+02  0.45594000000E+02  0.51100000000E-03 0.  1.
         11   -1    0    0    0    0 -0.00000000000E+00 -0.00000000000E+00 -0.45593999997E+02  0.45594000000E+02  0.51100000000E-03 0. -1.
         23    2    1    2    0    0  0.26645352591E-14  0.35527136788E-14 -0.35527136788E-14  0.91188000000E+02  0.91188000000E+02 0.  0.
    9900012    2    3    3    0    0 -0.70088584934E+01 -0.16827253122E+02  0.31992167691E+02  0.54367091014E+02  0.40000015584E+02 0.  0.
         12    1    3    3    0    0  0.70088584934E+01  0.16827253122E+02 -0.31992167691E+02  0.36820908986E+02  0.00000000000E+00 0. -1.
         11    1    4    4    0    0  0.60096985142E+01 -0.68511206151E+01  0.11478243812E+02  0.14656207257E+02  0.51100000000E-03 0. -1.
        -11    1    4    4    0    0  0.57685624821E+01  0.17906175792E+01  0.15981012125E+02  0.17084360486E+02  0.51100000000E-03 0.  1.
        -12    1    4    4    0    0 -0.18787119490E+02 -0.11766750086E+02  0.45329117539E+01  0.22626523270E+02  0.00000000000E+00 0.  1.
</event>
<event>
 8    1  0.2512298E-006  0.9118800E+02  0.7816164E-02  0.1184000E+00
        -11   -1    0    0    0    0  0.00000000000E+00  0.00000000000E+00  0.45593999997E+02  0.45594000000E+02  0.51100000000E-03 0.  1.
         11   -1    0    0    0    0 -0.00000000000E+00 -0.00000000000E+00 -0.45593999997E+02  0.45594000000E+02  0.51100000000E-03 0. -1.
         23    2    1    2    0    0  0.44408920985E-15  0.00000000000E+00  0.00000000000E+00  0.91188000000E+02  0.91188000000E+02 0.  0.
    9900012    2    3    3    0    0  0.22750468381E+01  0.21142706888E+02  0.30059774091E+02  0.54367083240E+02  0.39999997863E+02 0.  0.
         12    1    3    3    0    0 -0.22750468381E+01 -0.21142706888E+02 -0.30059774091E+02  0.36820916760E+02  0.00000000000E+00 0. -1.
         11    1    4    4    0    0 -0.21599130568E+01 -0.92730181348E+01  0.48698762153E+01  0.10694380971E+02  0.51100000000E-03 0. -1.
        -11    1    4    4    0    0  0.96263603470E+01  0.14712212738E+02  0.19320519558E+02  0.26122758151E+02  0.51100000000E-03 0.  1.
         12    1    4    4    0    0 -0.51914004522E+01  0.15703512284E+02  0.58693783177E+01  0.17549944118E+02  0.00000000000E+00 0. -1.
</event>
<event>
 8    1  0.2512298E-006  0.9118800E+02  0.7816164E-02  0.1184000E+00
        -11   -1    0    0    0    0  0.00000000000E+00  0.00000000000E+00  0.45593999997E+02  0.45594000000E+02  0.51100000000E-03 0. -1.
         11   -1    0    0    0    0 -0.00000000000E+00 -0.00000000000E+00 -0.45593999997E+02  0.45594000000E+02  0.51100000000E-03 0.  1.
         23    2    1    2    0    0  0.17763568394E-14  0.00000000000E+00 -0.35527136788E-14  0.91188000000E+02  0.91188000000E+02 0.  0.
    9900012    2    3    3    0    0 -0.11011772126E+02  0.27313532796E+02  0.22101842051E+02  0.54367087176E+02  0.40000006836E+02 0.  0.
         12    1    3    3    0    0  0.11011772126E+02 -0.27313532796E+02 -0.22101842051E+02  0.36820912824E+02  0.00000000000E+00 0. -1.
         11    1    4    4    0    0  0.48662681846E+01 -0.33991122983E+01 -0.15889824353E+01  0.61448674437E+01  0.51100000000E-03 0. -1.
        -11    1    4    4    0    0 -0.17086126211E+02  0.77093529215E+01  0.13102773610E+02  0.22870341228E+02  0.51100000000E-03 0.  1.
         12    1    4    4    0    0  0.12080859009E+01  0.23003292173E+02  0.10588050876E+02  0.25351878504E+02  0.00000000000E+00 0. -1.
</event>
<event>
 8    1  0.2512298E-006  0.9118800E+02  0.7816164E-02  0.1184000E+00
        -11   -1    0    0    0    0  0.00000000000E+00  0.00000000000E+00  0.45593999997E+02  0.45594000000E+02  0.51100000000E-03 0. -1.
         11   -1    0    0    0    0 -0.00000000000E+00 -0.00000000000E+00 -0.45593999997E+02  0.45594000000E+02  0.51100000000E-03 0.  1.
         23    2    1    2    0    0 -0.35527136788E-14 -0.35527136788E-14  0.22204460493E-15  0.91188000000E+02  0.91188000000E+02 0.  0.
    9900012    2    3    3    0    0 -0.31922867347E+02 -0.18271001368E+02  0.16973462042E+01  0.54367082918E+02  0.39999997128E+02 0.  0.
        -12    1    3    3    0    0  0.31922867347E+02  0.18271001368E+02 -0.16973462042E+01  0.36820917082E+02  0.00000000000E+00 0.  1.
         11    1    4    4    0    0 -0.16645317176E+02 -0.84401501636E+01  0.15290279550E+02  0.24126652641E+02  0.51100000000E-03 0. -1.
        -11    1    4    4    0    0  0.15412616786E+01  0.42365611290E+01 -0.12859595570E+00  0.45100415678E+01  0.51100000000E-03 0.  1.
         12    1    4    4    0    0 -0.16818811849E+02 -0.14067412334E+02 -0.13464337390E+02  0.25730388709E+02  0.00000000000E+00 0. -1.
</event>
<event>
 8    1  0.2512298E-006  0.9118800E+02  0.7816164E-02  0.1184000E+00
        -11   -1    0    0    0    0  0.00000000000E+00  0.00000000000E+00  0.45593999997E+02  0.45594000000E+02  0.51100000000E-03 0.  1.
         11   -1    0    0    0    0 -0.00000000000E+00 -0.00000000000E+00 -0.45593999997E+02  0.45594000000E+02  0.51100000000E-03 0. -1.
         23    2    1    2    0    0  0.00000000000E+00 -0.35527136788E-14  0.17763568394E-14  0.91188000000E+02  0.91188000000E+02 0.  0.
    9900012    2    3    3    0    0  0.18438902710E+02  0.28019705381E+02  0.15188226415E+02  0.54367092292E+02  0.40000018499E+02 0.  0.
         12    1    3    3    0    0 -0.18438902710E+02 -0.28019705381E+02 -0.15188226415E+02  0.36820907708E+02  0.00000000000E+00 0. -1.
         11    1    4    4    0    0  0.10538439808E+01  0.55891704786E+01 -0.12432222209E+02  0.13671487230E+02  0.51100000000E-03 0. -1.
        -11    1    4    4    0    0  0.29989222289E+01  0.10274721680E+02  0.71110210804E+01  0.12850294207E+02  0.51100000000E-03 0.  1.
         12    1    4    4    0    0  0.14386136500E+02  0.12155813222E+02  0.20509427543E+02  0.27845310855E+02  0.00000000000E+00 0. -1.
</event>
<event>
 8    1  0.2512298E-006  0.9118800E+02  0.7816164E-02  0.1184000E+00
        -11   -1    0    0    0    0  0.00000000000E+00  0.00000000000E+00  0.45593999997E+02  0.45594000000E+02  0.51100000000E-03 0. -1.
         11   -1    0    0    0    0 -0.00000000000E+00 -0.00000000000E+00 -0.45593999997E+02  0.45594000000E+02  0.51100000000E-03 0.  1.
         23    2    1    2    0    0  0.00000000000E+00 -0.44408920985E-15  0.35527136788E-14  0.91188000000E+02  0.91188000000E+02 0.  0.
    9900012    2    3    3    0    0  0.21142689498E+02 -0.29720559784E+01  0.29998902552E+02  0.54367074016E+02  0.39999976835E+02 0.  0.
        -12    1    3    3    0    0 -0.21142689498E+02  0.29720559784E+01 -0.29998902552E+02  0.36820925984E+02  0.00000000000E+00 0.  1.
         11    1    4    4    0    0 -0.83475393128E+00 -0.12928020611E+02  0.90099818761E+01  0.15780060352E+02  0.51100000000E-03 0. -1.
        -11    1    4    4    0    0  0.98676428407E+01  0.13787509454E+02  0.40797159742E+01  0.17438746367E+02  0.51100000000E-03 0.  1.
         12    1    4    4    0    0  0.12109800589E+02 -0.38315448215E+01  0.16909204702E+02  0.21148267297E+02  0.00000000000E+00 0. -1.
</event>
<event>
 8    1  0.2512298E-006  0.9118800E+02  0.7816164E-02  0.1184000E+00
        -11   -1    0    0    0    0  0.00000000000E+00  0.00000000000E+00  0.45593999997E+02  0.45594000000E+02  0.51100000000E-03 0. -1.
         11   -1    0    0    0    0 -0.00000000000E+00 -0.00000000000E+00 -0.45593999997E+02  0.45594000000E+02  0.51100000000E-03 0.  1.
         23    2    1    2    0    0 -0.35527136788E-14  0.00000000000E+00  0.88817841970E-15  0.91188000000E+02  0.91188000000E+02 0.  0.
    9900012    2    3    3    0    0 -0.25111285018E+02  0.25877538405E+02  0.74535933245E+01  0.54367086342E+02  0.40000004934E+02 0.  0.
        -12    1    3    3    0    0  0.25111285018E+02 -0.25877538405E+02 -0.74535933245E+01  0.36820913658E+02  0.00000000000E+00 0.  1.
         11    1    4    4    0    0 -0.15042992039E+02  0.28636513516E+02 -0.40161712585E+01  0.32595569449E+02  0.51100000000E-03 0. -1.
        -11    1    4    4    0    0 -0.41093433741E+01 -0.75175874976E+01  0.72828079704E+00  0.85983264611E+01  0.51100000000E-03 0.  1.
         12    1    4    4    0    0 -0.59589496046E+01  0.47586123869E+01  0.10741483786E+02  0.13173190432E+02  0.00000000000E+00 0. -1.
</event>
<event>
 8    1  0.2512298E-006  0.9118800E+02  0.7816164E-02  0.1184000E+00
        -11   -1    0    0    0    0  0.00000000000E+00  0.00000000000E+00  0.45593999997E+02  0.45594000000E+02  0.51100000000E-03 0. -1.
         11   -1    0    0    0    0 -0.00000000000E+00 -0.00000000000E+00 -0.45593999997E+02  0.45594000000E+02  0.51100000000E-03 0.  1.
         23    2    1    2    0    0 -0.71054273576E-14  0.35527136788E-14  0.00000000000E+00  0.91188000000E+02  0.91188000000E+02 0.  0.
    9900012    2    3    3    0    0 -0.25376135050E+02  0.21030760700E+02 -0.16417490407E+02  0.54367148340E+02  0.40000146269E+02 0.  0.
         12    1    3    3    0    0  0.25376135050E+02 -0.21030760700E+02  0.16417490407E+02  0.36820851660E+02  0.00000000000E+00 0. -1.
         11    1    4    4    0    0  0.41487457239E+01 -0.65563347127E+01 -0.46006656992E+01  0.90201852023E+01  0.51100000000E-03 0. -1.
        -11    1    4    4    0    0  0.60110094810E+00 -0.87181262980E-02 -0.36308271424E+01  0.36802587348E+01  0.51100000000E-03 0.  1.
        -12    1    4    4    0    0 -0.30125981722E+02  0.27595813539E+02 -0.81859975658E+01  0.41666704403E+02  0.00000000000E+00 0.  1.
</event>
<event>
 8    1  0.2512298E-006  0.9118800E+02  0.7816164E-02  0.1184000E+00
        -11   -1    0    0    0    0  0.00000000000E+00  0.00000000000E+00  0.45593999997E+02  0.45594000000E+02  0.51100000000E-03 0. -1.
         11   -1    0    0    0    0 -0.00000000000E+00 -0.00000000000E+00 -0.45593999997E+02  0.45594000000E+02  0.51100000000E-03 0.  1.
         23    2    1    2    0    0  0.00000000000E+00 -0.88817841970E-15  0.88817841970E-15  0.91188000000E+02  0.91188000000E+02 0.  0.
    9900012    2    3    3    0    0 -0.35654100248E+02  0.69425282051E+01  0.60304678122E+01  0.54367080614E+02  0.39999991876E+02 0.  0.
         12    1    3    3    0    0  0.35654100248E+02 -0.69425282051E+01 -0.60304678122E+01  0.36820919386E+02  0.00000000000E+00 0. -1.
         11    1    4    4    0    0  0.32733630792E+01 -0.15856079952E+00  0.39829976355E+01  0.51579373592E+01  0.51100000000E-03 0. -1.
        -11    1    4    4    0    0 -0.24196005074E+02  0.68800241413E+01  0.15257844114E+02  0.29420795383E+02  0.51100000000E-03 0.  1.
        -12    1    4    4    0    0 -0.14731458253E+02  0.22106486338E+00 -0.13210373937E+02  0.19788347872E+02  0.00000000000E+00 0.  1.
</event>
<event>
 8    1  0.2512298E-006  0.9118800E+02  0.7816164E-02  0.1184000E+00
        -11   -1    0    0    0    0  0.00000000000E+00  0.00000000000E+00  0.45593999997E+02  0.45594000000E+02  0.51100000000E-03 0. -1.
         11   -1    0    0    0    0 -0.00000000000E+00 -0.00000000000E+00 -0.45593999997E+02  0.45594000000E+02  0.51100000000E-03 0.  1.
         23    2    1    2    0    0 -0.35527136788E-14  0.00000000000E+00  0.00000000000E+00  0.91188000000E+02  0.91188000000E+02 0.  0.
    9900012    2    3    3    0    0  0.19719688667E+02 -0.12608366757E+02 -0.28424339545E+02  0.54367080512E+02  0.39999991643E+02 0.  0.
         12    1    3    3    0    0 -0.19719688667E+02  0.12608366757E+02  0.28424339545E+02  0.36820919488E+02  0.00000000000E+00 0. -1.
         11    1    4    4    0    0  0.83219817849E+01 -0.75083111531E+01 -0.17685994865E+02  0.20938589538E+02  0.51100000000E-03 0. -1.
        -11    1    4    4    0    0  0.10655003338E+02 -0.16644569984E+02 -0.90540644206E+01  0.21738143639E+02  0.51100000000E-03 0.  1.
         12    1    4    4    0    0  0.74270354363E+00  0.11544514380E+02 -0.16842802588E+01  0.11690347335E+02  0.00000000000E+00 0. -1.
</event>
<event>
 8    1  0.2512298E-006  0.9118800E+02  0.7816164E-02  0.1184000E+00
        -11   -1    0    0    0    0  0.00000000000E+00  0.00000000000E+00  0.45593999997E+02  0.45594000000E+02  0.51100000000E-03 0.  1.
         11   -1    0    0    0    0 -0.00000000000E+00 -0.00000000000E+00 -0.45593999997E+02  0.45594000000E+02  0.51100000000E-03 0. -1.
         23    2    1    2    0    0  0.00000000000E+00  0.00000000000E+00  0.00000000000E+00  0.91188000000E+02  0.91188000000E+02 0.  0.
    9900012    2    3    3    0    0 -0.11080733303E+02 -0.13079868936E+02 -0.32587076523E+02  0.54367038874E+02  0.39999896721E+02 0.  0.
        -12    1    3    3    0    0  0.11080733303E+02  0.13079868936E+02  0.32587076523E+02  0.36820961126E+02  0.00000000000E+00 0.  1.
         11    1    4    4    0    0 -0.49118534044E+01  0.41813866301E+01 -0.28341847519E+02  0.29066658203E+02  0.51100000000E-03 0. -1.
        -11    1    4    4    0    0  0.14523167311E+01 -0.14258489380E+02  0.26717876376E+01  0.14579169823E+02  0.51100000000E-03 0.  1.
         12    1    4    4    0    0 -0.76211966293E+01 -0.30027661855E+01 -0.69170166416E+01  0.10721210848E+02  0.00000000000E+00 0. -1.
</event>
<event>
 8    1  0.2512298E-006  0.9118800E+02  0.7816164E-02  0.1184000E+00
        -11   -1    0    0    0    0  0.00000000000E+00  0.00000000000E+00  0.45593999997E+02  0.45594000000E+02  0.51100000000E-03 0. -1.
         11   -1    0    0    0    0 -0.00000000000E+00 -0.00000000000E+00 -0.45593999997E+02  0.45594000000E+02  0.51100000000E-03 0.  1.
         23    2    1    2    0    0 -0.17763568394E-14  0.35527136788E-14  0.35527136788E-14  0.91188000000E+02  0.91188000000E+02 0.  0.
    9900012    2    3    3    0    0 -0.48995692541E+01 -0.18046946939E+02  0.31718803428E+02  0.54367074379E+02  0.39999977661E+02 0.  0.
        -12    1    3    3    0    0  0.48995692541E+01  0.18046946939E+02 -0.31718803428E+02  0.36820925621E+02  0.00000000000E+00 0.  1.
         11    1    4    4    0    0  0.37954037203E+01 -0.96048039804E+01  0.25531489895E+02  0.27541138782E+02  0.51100000000E-03 0. -1.
        -11    1    4    4    0    0 -0.84927595519E+01  0.16218188582E+01 -0.63647297717E+01  0.10736249184E+02  0.51100000000E-03 0.  1.
         12    1    4    4    0    0 -0.20221342248E+00 -0.10063961817E+02  0.12552043305E+02  0.16089686412E+02  0.00000000000E+00 0. -1.
</event>
<event>
 8    1  0.2512298E-006  0.9118800E+02  0.7816164E-02  0.1184000E+00
        -11   -1    0    0    0    0  0.00000000000E+00  0.00000000000E+00  0.45593999997E+02  0.45594000000E+02  0.51100000000E-03 0. -1.
         11   -1    0    0    0    0 -0.00000000000E+00 -0.00000000000E+00 -0.45593999997E+02  0.45594000000E+02  0.51100000000E-03 0.  1.
         23    2    1    2    0    0  0.00000000000E+00  0.00000000000E+00  0.00000000000E+00  0.91188000000E+02  0.91188000000E+02 0.  0.
    9900012    2    3    3    0    0  0.32658881675E+02  0.15321070021E+02  0.73783043715E+01  0.54367121219E+02  0.40000084442E+02 0.  0.
        -12    1    3    3    0    0 -0.32658881675E+02 -0.15321070021E+02 -0.73783043715E+01  0.36820878781E+02  0.00000000000E+00 0.  1.
         11    1    4    4    0    0  0.43707698205E+01 -0.45882712589E+01  0.36756971654E+01  0.73257499194E+01  0.51100000000E-03 0. -1.
        -11    1    4    4    0    0  0.19693632287E+02  0.20967358513E+02 -0.10319649979E+02  0.30560831985E+02  0.51100000000E-03 0.  1.
        -12    1    4    4    0    0  0.85944795680E+01 -0.10580172334E+01  0.14022257186E+02  0.16480539314E+02  0.00000000000E+00 0.  1.
</event>
