<event>
 4    1  0.3901757E+000  0.2078173E+03  0.7546771E-02  0.1143306E+00
         21   -1    0    0  501  502  0.00000000000E+00  0.00000000000E+00  0.61311391959E+03  0.61311391959E+03  0.00000000000E+00 0. -1.
         21   -1    0    0  502  503 -0.00000000000E+00 -0.00000000000E+00 -0.90821723538E+02  0.90821723538E+02  0.00000000000E+00 0.  1.
          6    1    1    2  501    0 -0.81425805045E+02  0.81417990108E+02  0.42787973377E+03  0.47567753511E+03  0.17300000000E+03 0. -1.
         -6    1    1    2    0  503  0.81425805045E+02 -0.81417990108E+02  0.94412462284E+02  0.22825810802E+03  0.17300000000E+03 0.  1.
<mgrwt>
<rscale>  2 0.20781735E+03</rscale>
<asrwt>0</asrwt>
<pdfrwt beam="1">  1       21 0.94325216E-01 0.20781735E+03</pdfrwt>
<pdfrwt beam="2">  1       21 0.13972573E-01 0.20781735E+03</pdfrwt>
<totfact> 0.41696352E+04</totfact>
</mgrwt>
</event>
<event>
 4    1  0.3901757E+000  0.2057346E+03  0.7546771E-02  0.1144989E+00
         21   -1    0    0  501  502  0.00000000000E+00  0.00000000000E+00  0.40443924516E+03  0.40443924516E+03  0.00000000000E+00 0. -1.
         21   -1    0    0  502  503 -0.00000000000E+00 -0.00000000000E+00 -0.15764746958E+04  0.15764746958E+04  0.00000000000E+00 0. -1.
          6    1    1    2  501    0 -0.91309969987E+02  0.63719910903E+02  0.37099863386E+03  0.42422485075E+03  0.17300000000E+03 0. -1.
         -6    1    1    2    0  503  0.91309969987E+02 -0.63719910903E+02 -0.15430340845E+04  0.15566890902E+04  0.17300000000E+03 0. -1.
<mgrwt>
<rscale>  2 0.20573463E+03</rscale>
<asrwt>0</asrwt>
<pdfrwt beam="1">  1       21 0.62221422E-01 0.20573463E+03</pdfrwt>
<pdfrwt beam="2">  1       21 0.24253457E+00 0.20573463E+03</pdfrwt>
<totfact> 0.17312272E+02</totfact>
</mgrwt>
</event>
<event>
 4    1  0.3901757E+000  0.2959542E+03  0.7546771E-02  0.1087281E+00
         21   -1    0    0  503  502  0.00000000000E+00  0.00000000000E+00  0.26335321388E+03  0.26335321388E+03  0.00000000000E+00 0.  1.
         21   -1    0    0  501  503 -0.00000000000E+00 -0.00000000000E+00 -0.33529536927E+03  0.33529536927E+03  0.00000000000E+00 0.  1.
          6    1    1    2  501    0  0.14736069105E+03 -0.18959089145E+03 -0.62853607539E+02  0.30255487993E+03  0.17300000000E+03 0.  1.
         -6    1    1    2    0  502 -0.14736069105E+03  0.18959089145E+03 -0.90885478541E+01  0.29609370322E+03  0.17300000000E+03 0.  1.
<mgrwt>
<rscale>  2 0.29595418E+03</rscale>
<asrwt>0</asrwt>
<pdfrwt beam="1">  1       21 0.40515879E-01 0.29595418E+03</pdfrwt>
<pdfrwt beam="2">  1       21 0.51583903E-01 0.29595418E+03</pdfrwt>
<totfact> 0.19905138E+04</totfact>
</mgrwt>
</event>
<event>
 4    1  0.3901757E+000  0.2188313E+03  0.7546771E-02  0.1134757E+00
         21   -1    0    0  503  502  0.00000000000E+00  0.00000000000E+00  0.92710714473E+02  0.92710714473E+02  0.00000000000E+00 0. -1.
         21   -1    0    0  501  503 -0.00000000000E+00 -0.00000000000E+00 -0.85505914595E+03  0.85505914595E+03  0.00000000000E+00 0.  1.
          6    1    1    2  501    0 -0.57839413816E+02  0.12088324264E+03 -0.67935370006E+03  0.71372866408E+03  0.17300000000E+03 0.  1.
         -6    1    1    2    0  502  0.57839413816E+02 -0.12088324264E+03 -0.82994731415E+02  0.23404119634E+03  0.17300000000E+03 0. -1.
<mgrwt>
<rscale>  2 0.21883134E+03</rscale>
<asrwt>0</asrwt>
<pdfrwt beam="1">  1       21 0.14263186E-01 0.21883134E+03</pdfrwt>
<pdfrwt beam="2">  1       21 0.13154756E+00 0.21883134E+03</pdfrwt>
<totfact> 0.17732283E+04</totfact>
</mgrwt>
</event>
<event>
 4    1  0.3901757E+000  0.2306084E+03  0.7546771E-02  0.1126212E+00
         21   -1    0    0  503  502  0.00000000000E+00  0.00000000000E+00  0.28881558256E+03  0.28881558256E+03  0.00000000000E+00 0.  1.
         21   -1    0    0  501  503 -0.00000000000E+00 -0.00000000000E+00 -0.18580992448E+03  0.18580992448E+03  0.00000000000E+00 0.  1.
          6    1    1    2  501    0  0.12576278357E+03 -0.86226122487E+02  0.74053470584E+02  0.24220680923E+03  0.17300000000E+03 0.  1.
         -6    1    1    2    0  502 -0.12576278357E+03  0.86226122487E+02  0.28952187492E+02  0.23241869781E+03  0.17300000000E+03 0.  1.
<mgrwt>
<rscale>  2 0.23060837E+03</rscale>
<asrwt>0</asrwt>
<pdfrwt beam="1">  1       21 0.44433167E-01 0.23060837E+03</pdfrwt>
<pdfrwt beam="2">  1       21 0.28586142E-01 0.23060837E+03</pdfrwt>
<totfact> 0.55960467E+04</totfact>
</mgrwt>
</event>
<event>
 4    1  0.3901757E+000  0.2187298E+03  0.7546771E-02  0.1134834E+00
         21   -1    0    0  503  502  0.00000000000E+00  0.00000000000E+00  0.22444804401E+03  0.22444804401E+03  0.00000000000E+00 0. -1.
         21   -1    0    0  501  503 -0.00000000000E+00 -0.00000000000E+00 -0.34600068173E+03  0.34600068173E+03  0.00000000000E+00 0.  1.
          6    1    1    2  501    0 -0.11626423710E+03 -0.66304942374E+02 -0.23750956505E+03  0.32288312390E+03  0.17300000000E+03 0.  1.
         -6    1    1    2    0  502  0.11626423710E+03  0.66304942374E+02  0.11595692733E+03  0.24756560183E+03  0.17300000000E+03 0. -1.
<mgrwt>
<rscale>  2 0.21872978E+03</rscale>
<asrwt>0</asrwt>
<pdfrwt beam="1">  1       21 0.34530469E-01 0.21872978E+03</pdfrwt>
<pdfrwt beam="2">  1       21 0.53230874E-01 0.21872978E+03</pdfrwt>
<totfact> 0.26628462E+04</totfact>
</mgrwt>
</event>
<event>
 4    1  0.3901757E+000  0.1904122E+03  0.7546771E-02  0.1158090E+00
         21   -1    0    0  503  502  0.00000000000E+00  0.00000000000E+00  0.51264632620E+03  0.51264632620E+03  0.00000000000E+00 0. -1.
         21   -1    0    0  501  503 -0.00000000000E+00 -0.00000000000E+00 -0.83544033818E+02  0.83544033818E+02  0.00000000000E+00 0. -1.
          6    1    1    2  501    0  0.25199808791E+02 -0.75450369788E+02  0.33132051598E+03  0.38213881375E+03  0.17300000000E+03 0. -1.
         -6    1    1    2    0  502 -0.25199808791E+02  0.75450369788E+02  0.97781776402E+02  0.21405154627E+03  0.17300000000E+03 0. -1.
<mgrwt>
<rscale>  2 0.19041215E+03</rscale>
<asrwt>0</asrwt>
<pdfrwt beam="1">  1       21 0.78868664E-01 0.19041215E+03</pdfrwt>
<pdfrwt beam="2">  1       21 0.12852929E-01 0.19041215E+03</pdfrwt>
<totfact> 0.73761019E+04</totfact>
</mgrwt>
</event>
<event>
 4    1  0.3901757E+000  0.1865995E+03  0.7546771E-02  0.1161565E+00
         21   -1    0    0  501  502  0.00000000000E+00  0.00000000000E+00  0.76704116126E+02  0.76704116126E+02  0.00000000000E+00 0.  1.
         21   -1    0    0  502  503 -0.00000000000E+00 -0.00000000000E+00 -0.11028165087E+04  0.11028165087E+04  0.00000000000E+00 0.  1.
          6    1    1    2  501    0 -0.22320190707E+02  0.66273504412E+02 -0.60675959835E+02  0.19621656506E+03  0.17300000000E+03 0.  1.
         -6    1    1    2    0  503  0.22320190707E+02 -0.66273504412E+02 -0.96543643274E+03  0.98330405977E+03  0.17300000000E+03 0.  1.
<mgrwt>
<rscale>  2 0.18659949E+03</rscale>
<asrwt>0</asrwt>
<pdfrwt beam="1">  1       21 0.11800633E-01 0.18659949E+03</pdfrwt>
<pdfrwt beam="2">  1       21 0.16966408E+00 0.18659949E+03</pdfrwt>
<totfact> 0.13032365E+04</totfact>
</mgrwt>
</event>
<event>
 4    1  0.3901757E+000  0.1740251E+03  0.7546771E-02  0.1173714E+00
         21   -1    0    0  503  502  0.00000000000E+00  0.00000000000E+00  0.16207263917E+02  0.16207263917E+02  0.00000000000E+00 0. -1.
         21   -1    0    0  501  503 -0.00000000000E+00 -0.00000000000E+00 -0.24225810733E+04  0.24225810733E+04  0.00000000000E+00 0. -1.
          6    1    1    2  501    0 -0.13481129337E+02  0.13190570285E+02 -0.17863047333E+04  0.17947616366E+04  0.17300000000E+03 0. -1.
         -6    1    1    2    0  502  0.13481129337E+02 -0.13190570285E+02 -0.62006907603E+03  0.64402670057E+03  0.17300000000E+03 0. -1.
<mgrwt>
<rscale>  2 0.17402509E+03</rscale>
<asrwt>0</asrwt>
<pdfrwt beam="1">  1       21 0.24934262E-02 0.17402509E+03</pdfrwt>
<pdfrwt beam="2">  1       21 0.37270464E+00 0.17402509E+03</pdfrwt>
<totfact> 0.11255746E+04</totfact>
</mgrwt>
</event>
<event>
 4    1  0.3901757E+000  0.1909884E+03  0.7546771E-02  0.1157573E+00
         21   -1    0    0  503  502  0.00000000000E+00  0.00000000000E+00  0.34545207560E+03  0.34545207560E+03  0.00000000000E+00 0.  1.
         21   -1    0    0  501  503 -0.00000000000E+00 -0.00000000000E+00 -0.27665586889E+03  0.27665586889E+03  0.00000000000E+00 0.  1.
          6    1    1    2  501    0  0.94707246015E+01 -0.80360922430E+02 -0.21019625416E+03  0.28400534808E+03  0.17300000000E+03 0.  1.
         -6    1    1    2    0  502 -0.94707246015E+01  0.80360922430E+02  0.27899246086E+03  0.33810259641E+03  0.17300000000E+03 0.  1.
<mgrwt>
<rscale>  2 0.19098841E+03</rscale>
<asrwt>0</asrwt>
<pdfrwt beam="1">  1       21 0.53146473E-01 0.19098841E+03</pdfrwt>
<pdfrwt beam="2">  1       21 0.42562442E-01 0.19098841E+03</pdfrwt>
<totfact> 0.17825429E+04</totfact>
</mgrwt>
</event>
<event>
 4    1  0.3901757E+000  0.1873730E+03  0.7546771E-02  0.1160852E+00
         21   -1    0    0  503  502  0.00000000000E+00  0.00000000000E+00  0.92943824439E+03  0.92943824439E+03  0.00000000000E+00 0. -1.
         21   -1    0    0  501  503 -0.00000000000E+00 -0.00000000000E+00 -0.77918216211E+02  0.77918216211E+02  0.00000000000E+00 0. -1.
          6    1    1    2  501    0  0.68122914184E+02 -0.23214147075E+02  0.64229457962E+02  0.19807587266E+03  0.17300000000E+03 0. -1.
         -6    1    1    2    0  502 -0.68122914184E+02  0.23214147075E+02  0.78729057022E+03  0.80928058794E+03  0.17300000000E+03 0. -1.
<mgrwt>
<rscale>  2 0.18737297E+03</rscale>
<asrwt>0</asrwt>
<pdfrwt beam="1">  1       21 0.14299049E+00 0.18737297E+03</pdfrwt>
<pdfrwt beam="2">  1       21 0.11987418E-01 0.18737297E+03</pdfrwt>
<totfact> 0.19985811E+04</totfact>
</mgrwt>
</event>
<event>
 4    1  0.3901757E+000  0.1766799E+03  0.7546771E-02  0.1171055E+00
         21   -1    0    0  501  502  0.00000000000E+00  0.00000000000E+00  0.25897189648E+03  0.25897189648E+03  0.00000000000E+00 0.  1.
         21   -1    0    0  502  503 -0.00000000000E+00 -0.00000000000E+00 -0.23780451100E+03  0.23780451100E+03  0.00000000000E+00 0.  1.
          6    1    1    2  501    0 -0.32298461690E+02 -0.15607648686E+02  0.18500884277E+03  0.25582036906E+03  0.17300000000E+03 0.  1.
         -6    1    1    2    0  503  0.32298461690E+02  0.15607648686E+02 -0.16384145729E+03  0.24095603842E+03  0.17300000000E+03 0.  1.
<mgrwt>
<rscale>  2 0.17667991E+03</rscale>
<asrwt>0</asrwt>
<pdfrwt beam="1">  1       21 0.39841830E-01 0.17667991E+03</pdfrwt>
<pdfrwt beam="2">  1       21 0.36585309E-01 0.17667991E+03</pdfrwt>
<totfact> 0.44093715E+04</totfact>
</mgrwt>
</event>
<event>
 4    1  0.3901757E+000  0.1750644E+03  0.7546771E-02  0.1172667E+00
         21   -1    0    0  503  502  0.00000000000E+00  0.00000000000E+00  0.13888059390E+03  0.13888059390E+03  0.00000000000E+00 0. -1.
         21   -1    0    0  501  503 -0.00000000000E+00 -0.00000000000E+00 -0.44865623101E+03  0.44865623101E+03  0.00000000000E+00 0. -1.
          6    1    1    2  501    0 -0.19179450048E+02 -0.18726373510E+02 -0.36429782301E+03  0.40417871322E+03  0.17300000000E+03 0. -1.
         -6    1    1    2    0  502  0.19179450048E+02  0.18726373510E+02  0.54522185905E+02  0.18335811170E+03  0.17300000000E+03 0. -1.
<mgrwt>
<rscale>  2 0.17506435E+03</rscale>
<asrwt>0</asrwt>
<pdfrwt beam="1">  1       21 0.21366246E-01 0.17506435E+03</pdfrwt>
<pdfrwt beam="2">  1       21 0.69024034E-01 0.17506435E+03</pdfrwt>
<totfact> 0.39331508E+04</totfact>
</mgrwt>
</event>
<event>
 4    1  0.3901757E+000  0.2407483E+03  0.7546771E-02  0.1119295E+00
         21   -1    0    0  501  502  0.00000000000E+00  0.00000000000E+00  0.18322899337E+03  0.18322899337E+03  0.00000000000E+00 0.  1.
         21   -1    0    0  502  503 -0.00000000000E+00 -0.00000000000E+00 -0.34055279078E+03  0.34055279078E+03  0.00000000000E+00 0. -1.
          6    1    1    2  501    0  0.12293024707E+03 -0.11366139439E+03 -0.88076912439E+01  0.24090938887E+03  0.17300000000E+03 0.  1.
         -6    1    1    2    0  503 -0.12293024707E+03  0.11366139439E+03 -0.14851610617E+03  0.28287239528E+03  0.17300000000E+03 0. -1.
<mgrwt>
<rscale>  2 0.24074833E+03</rscale>
<asrwt>0</asrwt>
<pdfrwt beam="1">  1       21 0.28189076E-01 0.24074833E+03</pdfrwt>
<pdfrwt beam="2">  1       21 0.52392737E-01 0.24074833E+03</pdfrwt>
<totfact> 0.40610943E+04</totfact>
</mgrwt>
</event>
<event>
 4    1  0.3901757E+000  0.2595618E+03  0.7546771E-02  0.1107407E+00
         21   -1    0    0  501  502  0.00000000000E+00  0.00000000000E+00  0.35587144229E+02  0.35587144229E+02  0.00000000000E+00 0.  1.
         21   -1    0    0  502  503 -0.00000000000E+00 -0.00000000000E+00 -0.23430350330E+04  0.23430350330E+04  0.00000000000E+00 0.  1.
          6    1    1    2  501    0 -0.25366429851E+02  0.19183293845E+03 -0.63258964045E+03  0.68377041852E+03  0.17300000000E+03 0.  1.
         -6    1    1    2    0  503  0.25366429851E+02 -0.19183293845E+03 -0.16748582483E+04  0.16948517587E+04  0.17300000000E+03 0.  1.
<mgrwt>
<rscale>  2 0.25956181E+03</rscale>
<asrwt>0</asrwt>
<pdfrwt beam="1">  1       21 0.54749442E-02 0.25956181E+03</pdfrwt>
<pdfrwt beam="2">  1       21 0.36046700E+00 0.25956181E+03</pdfrwt>
<totfact> 0.32355399E+03</totfact>
</mgrwt>
</event>
<event>
 4    1  0.3901757E+000  0.1837532E+03  0.7546771E-02  0.1164219E+00
         21   -1    0    0  503  502  0.00000000000E+00  0.00000000000E+00  0.20349120137E+03  0.20349120137E+03  0.00000000000E+00 0.  1.
         21   -1    0    0  501  503 -0.00000000000E+00 -0.00000000000E+00 -0.31735587021E+03  0.31735587021E+03  0.00000000000E+00 0.  1.
          6    1    1    2  501    0 -0.19689828331E+02 -0.58724353619E+02 -0.23682248972E+03  0.29975011374E+03  0.17300000000E+03 0.  1.
         -6    1    1    2    0  502  0.19689828331E+02  0.58724353619E+02  0.12295782089E+03  0.22109695784E+03  0.17300000000E+03 0.  1.
<mgrwt>
<rscale>  2 0.18375320E+03</rscale>
<asrwt>0</asrwt>
<pdfrwt beam="1">  1       21 0.31306339E-01 0.18375320E+03</pdfrwt>
<pdfrwt beam="2">  1       21 0.48823980E-01 0.18375320E+03</pdfrwt>
<totfact> 0.39432902E+04</totfact>
</mgrwt>
</event>
<event>
 4    1  0.3901757E+000  0.2010711E+03  0.7546771E-02  0.1148838E+00
         21   -1    0    0  503  502  0.00000000000E+00  0.00000000000E+00  0.50785548377E+03  0.50785548377E+03  0.00000000000E+00 0.  1.
         21   -1    0    0  501  503 -0.00000000000E+00 -0.00000000000E+00 -0.84918404514E+02  0.84918404514E+02  0.00000000000E+00 0. -1.
          6    1    1    2  501    0  0.62804313744E+02 -0.80970378311E+02  0.13735392232E+03  0.24350705116E+03  0.17300000000E+03 0. -1.
         -6    1    1    2    0  502 -0.62804313744E+02  0.80970378311E+02  0.28558315693E+03  0.34926683712E+03  0.17300000000E+03 0.  1.
<mgrwt>
<rscale>  2 0.20107109E+03</rscale>
<asrwt>0</asrwt>
<pdfrwt beam="1">  1       21 0.78131611E-01 0.20107109E+03</pdfrwt>
<pdfrwt beam="2">  1       21 0.13064370E-01 0.20107109E+03</pdfrwt>
<totfact> 0.72804912E+04</totfact>
</mgrwt>
</event>
<event>
 4    1  0.3901757E+000  0.2259122E+03  0.7546771E-02  0.1129550E+00
         21   -1    0    0  503  502  0.00000000000E+00  0.00000000000E+00  0.11967442379E+03  0.11967442379E+03  0.00000000000E+00 0.  1.
         21   -1    0    0  501  503 -0.00000000000E+00 -0.00000000000E+00 -0.46423932315E+03  0.46423932315E+03  0.00000000000E+00 0. -1.
          6    1    1    2  501    0 -0.46300095371E+02 -0.13770854794E+03 -0.88995799780E+02  0.24280979260E+03  0.17300000000E+03 0.  1.
         -6    1    1    2    0  502  0.46300095371E+02  0.13770854794E+03 -0.25556909958E+03  0.34110395434E+03  0.17300000000E+03 0. -1.
<mgrwt>
<rscale>  2 0.22591225E+03</rscale>
<asrwt>0</asrwt>
<pdfrwt beam="1">  1       21 0.18411450E-01 0.22591225E+03</pdfrwt>
<pdfrwt beam="2">  1       21 0.71421436E-01 0.22591225E+03</pdfrwt>
<totfact> 0.46964121E+04</totfact>
</mgrwt>
</event>
<event>
 4    1  0.3901757E+000  0.1948127E+03  0.7546771E-02  0.1154191E+00
         21   -1    0    0  503  502  0.00000000000E+00  0.00000000000E+00  0.10679214580E+04  0.10679214580E+04  0.00000000000E+00 0. -1.
         21   -1    0    0  501  503 -0.00000000000E+00 -0.00000000000E+00 -0.71577583726E+02  0.71577583726E+02  0.00000000000E+00 0.  1.
          6    1    1    2  501    0  0.34317596881E+02 -0.82736202094E+02  0.93890037481E+02  0.21625752179E+03  0.17300000000E+03 0.  1.
         -6    1    1    2    0  502 -0.34317596881E+02  0.82736202094E+02  0.90245383682E+03  0.92324151996E+03  0.17300000000E+03 0. -1.
<mgrwt>
<rscale>  2 0.19481267E+03</rscale>
<asrwt>0</asrwt>
<pdfrwt beam="1">  1       21 0.16429560E+00 0.19481267E+03</pdfrwt>
<pdfrwt beam="2">  1       21 0.11011937E-01 0.19481267E+03</pdfrwt>
<totfact> 0.15999342E+04</totfact>
</mgrwt>
</event>
<event>
 4    1  0.3901757E+000  0.2253715E+03  0.7546771E-02  0.1129941E+00
         21   -1    0    0  501  502  0.00000000000E+00  0.00000000000E+00  0.79059482803E+03  0.79059482803E+03  0.00000000000E+00 0. -1.
         21   -1    0    0  502  503 -0.00000000000E+00 -0.00000000000E+00 -0.70972159291E+02  0.70972159291E+02  0.00000000000E+00 0. -1.
          6    1    1    2  501    0 -0.86948351705E-01  0.14444139076E+03  0.49243105496E+03  0.54155393712E+03  0.17300000000E+03 0. -1.
         -6    1    1    2    0  503  0.86948351705E-01 -0.14444139076E+03  0.22719161378E+03  0.32001305020E+03  0.17300000000E+03 0. -1.
<mgrwt>
<rscale>  2 0.22537152E+03</rscale>
<asrwt>0</asrwt>
<pdfrwt beam="1">  1       21 0.12162997E+00 0.22537152E+03</pdfrwt>
<pdfrwt beam="2">  1       21 0.10918794E-01 0.22537152E+03</pdfrwt>
<totfact> 0.34828741E+04</totfact>
</mgrwt>
</event>
<event>
 4    1  0.3901757E+000  0.2002594E+03  0.7546771E-02  0.1149520E+00
         21   -1    0    0  503  502  0.00000000000E+00  0.00000000000E+00  0.10021975689E+03  0.10021975689E+03  0.00000000000E+00 0. -1.
         21   -1    0    0  501  503 -0.00000000000E+00 -0.00000000000E+00 -0.61204634394E+03  0.61204634394E+03  0.00000000000E+00 0. -1.
          6    1    1    2  501    0 -0.92374975785E+02 -0.40517606623E+02 -0.46545616491E+03  0.50670825339E+03  0.17300000000E+03 0. -1.
         -6    1    1    2    0  502  0.92374975785E+02  0.40517606623E+02 -0.46370422133E+02  0.20555784745E+03  0.17300000000E+03 0. -1.
<mgrwt>
<rscale>  2 0.20025936E+03</rscale>
<asrwt>0</asrwt>
<pdfrwt beam="1">  1       21 0.15418424E-01 0.20025936E+03</pdfrwt>
<pdfrwt beam="2">  1       21 0.94160980E-01 0.20025936E+03</pdfrwt>
<totfact> 0.35138378E+04</totfact>
</mgrwt>
</event>
<event>
 4    1  0.3901757E+000  0.1798396E+03  0.7546771E-02  0.1167958E+00
         21   -1    0    0  503  502  0.00000000000E+00  0.00000000000E+00  0.14301302619E+03  0.14301302619E+03  0.00000000000E+00 0. -1.
         21   -1    0    0  501  503 -0.00000000000E+00 -0.00000000000E+00 -0.16762627662E+04  0.16762627662E+04  0.00000000000E+00 0. -1.
          6    1    1    2  501    0  0.12558865147E+02  0.47492701959E+02 -0.16126796886E+04  0.16226762030E+04  0.17300000000E+03 0. -1.
         -6    1    1    2    0  502 -0.12558865147E+02 -0.47492701959E+02  0.79429948535E+02  0.19659958941E+03  0.17300000000E+03 0. -1.
<mgrwt>
<rscale>  2 0.17983960E+03</rscale>
<asrwt>0</asrwt>
<pdfrwt beam="1">  1       21 0.22002003E-01 0.17983960E+03</pdfrwt>
<pdfrwt beam="2">  1       21 0.25788659E+00 0.17983960E+03</pdfrwt>
<totfact> 0.11728242E+03</totfact>
</mgrwt>
</event>
<event>
 4    1  0.3901757E+000  0.1900439E+03  0.7546771E-02  0.1158422E+00
         21   -1    0    0  501  502  0.00000000000E+00  0.00000000000E+00  0.14229550099E+03  0.14229550099E+03  0.00000000000E+00 0.  1.
         21   -1    0    0  502  503 -0.00000000000E+00 -0.00000000000E+00 -0.51844146979E+03  0.51844146979E+03  0.00000000000E+00 0.  1.
          6    1    1    2  501    0  0.70235761883E+02  0.35420455461E+02  0.47956220238E+02  0.19600119890E+03  0.17300000000E+03 0.  1.
         -6    1    1    2    0  503 -0.70235761883E+02 -0.35420455461E+02 -0.42410218904E+03  0.46473577187E+03  0.17300000000E+03 0.  1.
<mgrwt>
<rscale>  2 0.19004387E+03</rscale>
<asrwt>0</asrwt>
<pdfrwt beam="1">  1       21 0.21891615E-01 0.19004387E+03</pdfrwt>
<pdfrwt beam="2">  1       21 0.79760227E-01 0.19004387E+03</pdfrwt>
<totfact> 0.27019367E+04</totfact>
</mgrwt>
</event>
<event>
 4    1  0.3901757E+000  0.2575016E+03  0.7546771E-02  0.1108654E+00
         21   -1    0    0  503  502  0.00000000000E+00  0.00000000000E+00  0.33225823316E+03  0.33225823316E+03  0.00000000000E+00 0.  1.
         21   -1    0    0  501  503 -0.00000000000E+00 -0.00000000000E+00 -0.59373575035E+03  0.59373575035E+03  0.00000000000E+00 0.  1.
          6    1    1    2  501    0 -0.19017546692E+03 -0.14539105578E+02 -0.50798402622E+03  0.56952161039E+03  0.17300000000E+03 0.  1.
         -6    1    1    2    0  502  0.19017546692E+03  0.14539105578E+02  0.24650650903E+03  0.35647237313E+03  0.17300000000E+03 0.  1.
<mgrwt>
<rscale>  2 0.25750164E+03</rscale>
<asrwt>0</asrwt>
<pdfrwt beam="1">  1       21 0.51116652E-01 0.25750164E+03</pdfrwt>
<pdfrwt beam="2">  1       21 0.91343961E-01 0.25750164E+03</pdfrwt>
<totfact> 0.35215256E+03</totfact>
</mgrwt>
</event>
<event>
 4    1  0.3901757E+000  0.1796237E+03  0.7546771E-02  0.1168168E+00
         21   -1    0    0  503  502  0.00000000000E+00  0.00000000000E+00  0.16932875790E+03  0.16932875790E+03  0.00000000000E+00 0.  1.
         21   -1    0    0  501  503 -0.00000000000E+00 -0.00000000000E+00 -0.19056729545E+03  0.19056729545E+03  0.00000000000E+00 0.  1.
          6    1    1    2  501    0  0.12664158615E+02 -0.46639902305E+02 -0.86506319532E+01  0.17983185155E+03  0.17300000000E+03 0. -1.
         -6    1    1    2    0  502 -0.12664158615E+02  0.46639902305E+02 -0.12587905596E+02  0.18006420179E+03  0.17300000000E+03 0. -1.
<mgrwt>
<rscale>  2 0.17962367E+03</rscale>
<asrwt>0</asrwt>
<pdfrwt beam="1">  1       21 0.26050578E-01 0.17962367E+03</pdfrwt>
<pdfrwt beam="2">  1       21 0.29318045E-01 0.17962367E+03</pdfrwt>
<totfact> 0.15665255E+05</totfact>
</mgrwt>
</event>
<event>
 4    1  0.3901757E+000  0.1844321E+03  0.7546771E-02  0.1163581E+00
         21   -1    0    0  503  502  0.00000000000E+00  0.00000000000E+00  0.43328004347E+02  0.43328004347E+02  0.00000000000E+00 0. -1.
         21   -1    0    0  501  503 -0.00000000000E+00 -0.00000000000E+00 -0.96201912868E+03  0.96201912868E+03  0.00000000000E+00 0. -1.
          6    1    1    2  501    0 -0.49899549182E+02 -0.39953074314E+02 -0.67493475988E+03  0.69968002919E+03  0.17300000000E+03 0. -1.
         -6    1    1    2    0  502  0.49899549182E+02  0.39953074314E+02 -0.24375636446E+03  0.30566710384E+03  0.17300000000E+03 0. -1.
<mgrwt>
<rscale>  2 0.18443214E+03</rscale>
<asrwt>0</asrwt>
<pdfrwt beam="1">  1       21 0.66658471E-02 0.18443214E+03</pdfrwt>
<pdfrwt beam="2">  1       21 0.14800294E+00 0.18443214E+03</pdfrwt>
<totfact> 0.51188573E+04</totfact>
</mgrwt>
</event>
<event>
 4    1  0.3901757E+000  0.1836250E+03  0.7546771E-02  0.1164340E+00
         21   -1    0    0  503  502  0.00000000000E+00  0.00000000000E+00  0.24571978118E+03  0.24571978118E+03  0.00000000000E+00 0.  1.
         21   -1    0    0  501  503 -0.00000000000E+00 -0.00000000000E+00 -0.19865972743E+03  0.19865972743E+03  0.00000000000E+00 0.  1.
          6    1    1    2  501    0 -0.83694926683E+00  0.61550424249E+02 -0.10003249078E+03  0.20910441033E+03  0.17300000000E+03 0.  1.
         -6    1    1    2    0  502  0.83694926683E+00 -0.61550424249E+02  0.14709254453E+03  0.23527509827E+03  0.17300000000E+03 0.  1.
<mgrwt>
<rscale>  2 0.18362504E+03</rscale>
<asrwt>0</asrwt>
<pdfrwt beam="1">  1       21 0.37803043E-01 0.18362504E+03</pdfrwt>
<pdfrwt beam="2">  1       21 0.30563035E-01 0.18362504E+03</pdfrwt>
<totfact> 0.69616703E+04</totfact>
</mgrwt>
</event>
<event>
 4    1  0.3901757E+000  0.2250900E+03  0.7546771E-02  0.1130144E+00
         21   -1    0    0  501  502  0.00000000000E+00  0.00000000000E+00  0.30331949641E+03  0.30331949641E+03  0.00000000000E+00 0. -1.
         21   -1    0    0  502  503 -0.00000000000E+00 -0.00000000000E+00 -0.17980697369E+03  0.17980697369E+03  0.00000000000E+00 0.  1.
          6    1    1    2  501    0 -0.83197732336E+02  0.11753568806E+03  0.12613270041E+03  0.25802123700E+03  0.17300000000E+03 0.  1.
         -6    1    1    2    0  503  0.83197732336E+02 -0.11753568806E+03 -0.26201776855E+01  0.22510523309E+03  0.17300000000E+03 0. -1.
<mgrwt>
<rscale>  2 0.22508998E+03</rscale>
<asrwt>0</asrwt>
<pdfrwt beam="1">  1       21 0.46664538E-01 0.22508998E+03</pdfrwt>
<pdfrwt beam="2">  1       21 0.27662611E-01 0.22508998E+03</pdfrwt>
<totfact> 0.54031313E+04</totfact>
</mgrwt>
</event>
<event>
 4    1  0.3901757E+000  0.2379115E+03  0.7546771E-02  0.1121192E+00
         21   -1    0    0  501  502  0.00000000000E+00  0.00000000000E+00  0.11101671227E+04  0.11101671227E+04  0.00000000000E+00 0.  1.
         21   -1    0    0  502  503 -0.00000000000E+00 -0.00000000000E+00 -0.53251031285E+02  0.53251031285E+02  0.00000000000E+00 0.  1.
          6    1    1    2  501    0  0.10714898742E+03 -0.12325566922E+03  0.64845638424E+03  0.69072248245E+03  0.17300000000E+03 0.  1.
         -6    1    1    2    0  503 -0.10714898742E+03  0.12325566922E+03  0.40845970715E+03  0.47269567151E+03  0.17300000000E+03 0.  1.
<mgrwt>
<rscale>  2 0.23791147E+03</rscale>
<asrwt>0</asrwt>
<pdfrwt beam="1">  1       21 0.17079492E+00 0.23791147E+03</pdfrwt>
<pdfrwt beam="2">  1       21 0.81924672E-02 0.23791147E+03</pdfrwt>
<totfact> 0.23560597E+04</totfact>
</mgrwt>
</event>
<event>
 4    1  0.3901757E+000  0.1788093E+03  0.7546771E-02  0.1168960E+00
         21   -1    0    0  503  502  0.00000000000E+00  0.00000000000E+00  0.39700279552E+02  0.39700279552E+02  0.00000000000E+00 0. -1.
         21   -1    0    0  501  503 -0.00000000000E+00 -0.00000000000E+00 -0.96389833410E+03  0.96389833410E+03  0.00000000000E+00 0. -1.
          6    1    1    2  501    0 -0.44662632184E+02  0.70016883611E+01 -0.66561099972E+03  0.68921025624E+03  0.17300000000E+03 0. -1.
         -6    1    1    2    0  502  0.44662632184E+02 -0.70016883611E+01 -0.25858705483E+03  0.31438835741E+03  0.17300000000E+03 0. -1.
<mgrwt>
<rscale>  2 0.17880932E+03</rscale>
<asrwt>0</asrwt>
<pdfrwt beam="1">  1       21 0.61077356E-02 0.17880932E+03</pdfrwt>
<pdfrwt beam="2">  1       21 0.14829205E+00 0.17880932E+03</pdfrwt>
<totfact> 0.59356135E+04</totfact>
</mgrwt>
</event>
<event>
 4    1  0.3901757E+000  0.2208213E+03  0.7546771E-02  0.1133272E+00
         21   -1    0    0  503  502  0.00000000000E+00  0.00000000000E+00  0.62869961690E+03  0.62869961690E+03  0.00000000000E+00 0. -1.
         21   -1    0    0  501  503 -0.00000000000E+00 -0.00000000000E+00 -0.14703838303E+03  0.14703838303E+03  0.00000000000E+00 0. -1.
          6    1    1    2  501    0 -0.12231077509E+03  0.62234434228E+02 -0.25790181510E+02  0.22232225253E+03  0.17300000000E+03 0. -1.
         -6    1    1    2    0  502  0.12231077509E+03 -0.62234434228E+02  0.50745141538E+03  0.55341574741E+03  0.17300000000E+03 0. -1.
<mgrwt>
<rscale>  2 0.22082131E+03</rscale>
<asrwt>0</asrwt>
<pdfrwt beam="1">  1       21 0.96723017E-01 0.22082131E+03</pdfrwt>
<pdfrwt beam="2">  1       21 0.22621290E-01 0.22082131E+03</pdfrwt>
<totfact> 0.15981531E+04</totfact>
</mgrwt>
</event>
<event>
 4    1  0.3901757E+000  0.2333114E+03  0.7546771E-02  0.1124331E+00
         21   -1    0    0  501  502  0.00000000000E+00  0.00000000000E+00  0.68610738909E+02  0.68610738909E+02  0.00000000000E+00 0.  1.
         21   -1    0    0  502  503 -0.00000000000E+00 -0.00000000000E+00 -0.87475603933E+03  0.87475603933E+03  0.00000000000E+00 0.  1.
          6    1    1    2  501    0  0.15641809447E+03 -0.62131788956E+01 -0.25920545843E+03  0.34874301935E+03  0.17300000000E+03 0.  1.
         -6    1    1    2    0  503 -0.15641809447E+03  0.62131788956E+01 -0.54693984199E+03  0.59462375888E+03  0.17300000000E+03 0.  1.
<mgrwt>
<rscale>  2 0.23331143E+03</rscale>
<asrwt>0</asrwt>
<pdfrwt beam="1">  1       21 0.10555498E-01 0.23331143E+03</pdfrwt>
<pdfrwt beam="2">  1       21 0.13457785E+00 0.23331143E+03</pdfrwt>
<totfact> 0.28520844E+04</totfact>
</mgrwt>
</event>
<event>
 4    1  0.3901757E+000  0.2082186E+03  0.7546771E-02  0.1142984E+00
         21   -1    0    0  501  502  0.00000000000E+00  0.00000000000E+00  0.31787433018E+03  0.31787433018E+03  0.00000000000E+00 0.  1.
         21   -1    0    0  502  503 -0.00000000000E+00 -0.00000000000E+00 -0.13668844518E+03  0.13668844518E+03  0.00000000000E+00 0.  1.
          6    1    1    2  501    0  0.62651551071E+02 -0.97471942540E+02  0.10120655770E+03  0.23151190845E+03  0.17300000000E+03 0.  1.
         -6    1    1    2    0  503 -0.62651551071E+02  0.97471942540E+02  0.79979327300E+02  0.22305086691E+03  0.17300000000E+03 0.  1.
<mgrwt>
<rscale>  2 0.20821863E+03</rscale>
<asrwt>0</asrwt>
<pdfrwt beam="1">  1       21 0.48903743E-01 0.20821863E+03</pdfrwt>
<pdfrwt beam="2">  1       21 0.21028992E-01 0.20821863E+03</pdfrwt>
<totfact> 0.83300015E+04</totfact>
</mgrwt>
</event>
<event>
 4    1  0.3901757E+000  0.1839770E+03  0.7546771E-02  0.1164009E+00
         21   -1    0    0  501  502  0.00000000000E+00  0.00000000000E+00  0.11980095083E+04  0.11980095083E+04  0.00000000000E+00 0.  1.
         21   -1    0    0  502  503 -0.00000000000E+00 -0.00000000000E+00 -0.29564597837E+02  0.29564597837E+02  0.00000000000E+00 0.  1.
          6    1    1    2  501    0 -0.62486596164E+02 -0.37342176509E+01  0.71349623900E+03  0.73683403976E+03  0.17300000000E+03 0.  1.
         -6    1    1    2    0  503  0.62486596164E+02  0.37342176509E+01  0.45494867145E+03  0.49074006636E+03  0.17300000000E+03 0.  1.
<mgrwt>
<rscale>  2 0.18397695E+03</rscale>
<asrwt>0</asrwt>
<pdfrwt beam="1">  1       21 0.18430912E+00 0.18397695E+03</pdfrwt>
<pdfrwt beam="2">  1       21 0.45484006E-02 0.18397695E+03</pdfrwt>
<totfact> 0.54006258E+04</totfact>
</mgrwt>
</event>
<event>
 4    1  0.3901757E+000  0.1924008E+03  0.7546771E-02  0.1156314E+00
         21   -1    0    0  501  502  0.00000000000E+00  0.00000000000E+00  0.97423290637E+03  0.97423290637E+03  0.00000000000E+00 0.  1.
         21   -1    0    0  502  503 -0.00000000000E+00 -0.00000000000E+00 -0.14605549943E+03  0.14605549943E+03  0.00000000000E+00 0.  1.
          6    1    1    2  501    0  0.73102817193E+02  0.41773884271E+02  0.89589230517E+03  0.91631932302E+03  0.17300000000E+03 0.  1.
         -6    1    1    2    0  503 -0.73102817193E+02 -0.41773884271E+02 -0.67714898225E+02  0.20396908278E+03  0.17300000000E+03 0.  1.
<mgrwt>
<rscale>  2 0.19240083E+03</rscale>
<asrwt>0</asrwt>
<pdfrwt beam="1">  1       21 0.14988198E+00 0.19240083E+03</pdfrwt>
<pdfrwt beam="2">  1       21 0.22470077E-01 0.19240083E+03</pdfrwt>
<totfact> 0.55570205E+03</totfact>
</mgrwt>
</event>
<event>
 4    1  0.3901757E+000  0.2497239E+03  0.7546771E-02  0.1113479E+00
         21   -1    0    0  501  502  0.00000000000E+00  0.00000000000E+00  0.11954640233E+04  0.11954640233E+04  0.00000000000E+00 0. -1.
         21   -1    0    0  502  503 -0.00000000000E+00 -0.00000000000E+00 -0.10677419128E+03  0.10677419128E+03  0.00000000000E+00 0.  1.
          6    1    1    2  501    0  0.16862248007E+03 -0.63241532624E+02  0.10099931930E+04  0.10404077480E+04  0.17300000000E+03 0. -1.
         -6    1    1    2    0  503 -0.16862248007E+03  0.63241532624E+02  0.78696639060E+02  0.26183046659E+03  0.17300000000E+03 0.  1.
<mgrwt>
<rscale>  2 0.24972391E+03</rscale>
<asrwt>0</asrwt>
<pdfrwt beam="1">  1       21 0.18391753E+00 0.24972391E+03</pdfrwt>
<pdfrwt beam="2">  1       21 0.16426799E-01 0.24972391E+03</pdfrwt>
<totfact> 0.54359595E+03</totfact>
</mgrwt>
</event>
<event>
 4    1  0.3901757E+000  0.1975544E+03  0.7546771E-02  0.1151819E+00
         21   -1    0    0  501  502  0.00000000000E+00  0.00000000000E+00  0.80233953471E+03  0.80233953471E+03  0.00000000000E+00 0. -1.
         21   -1    0    0  502  503 -0.00000000000E+00 -0.00000000000E+00 -0.49146720620E+02  0.49146720620E+02  0.00000000000E+00 0.  1.
          6    1    1    2  501    0 -0.99481946947E+01 -0.94867223093E+02  0.41972193354E+03  0.46389035137E+03  0.17300000000E+03 0. -1.
         -6    1    1    2    0  503  0.99481946947E+01  0.94867223093E+02  0.33347088054E+03  0.38759590396E+03  0.17300000000E+03 0.  1.
<mgrwt>
<rscale>  2 0.19755444E+03</rscale>
<asrwt>0</asrwt>
<pdfrwt beam="1">  1       21 0.12343684E+00 0.19755444E+03</pdfrwt>
<pdfrwt beam="2">  1       21 0.75610345E-02 0.19755444E+03</pdfrwt>
<totfact> 0.64999376E+04</totfact>
</mgrwt>
</event>
<event>
 4    1  0.3901757E+000  0.1847079E+03  0.7546771E-02  0.1163323E+00
         21   -1    0    0  501  502  0.00000000000E+00  0.00000000000E+00  0.40272791365E+02  0.40272791365E+02  0.00000000000E+00 0.  1.
         21   -1    0    0  502  503 -0.00000000000E+00 -0.00000000000E+00 -0.85726186440E+03  0.85726186440E+03  0.00000000000E+00 0.  1.
          6    1    1    2  501    0  0.20515110302E+02 -0.61377145306E+02 -0.45723820524E+03  0.49313669509E+03  0.17300000000E+03 0. -1.
         -6    1    1    2    0  503 -0.20515110302E+02  0.61377145306E+02 -0.35975086780E+03  0.40439796067E+03  0.17300000000E+03 0. -1.
<mgrwt>
<rscale>  2 0.18470794E+03</rscale>
<asrwt>0</asrwt>
<pdfrwt beam="1">  1       21 0.61958146E-02 0.18470794E+03</pdfrwt>
<pdfrwt beam="2">  1       21 0.13188643E+00 0.18470794E+03</pdfrwt>
<totfact> 0.78079065E+04</totfact>
</mgrwt>
</event>
<event>
 4    1  0.3901757E+000  0.1894926E+03  0.7546771E-02  0.1158920E+00
         21   -1    0    0  503  502  0.00000000000E+00  0.00000000000E+00  0.94091604047E+03  0.94091604047E+03  0.00000000000E+00 0. -1.
         21   -1    0    0  501  503 -0.00000000000E+00 -0.00000000000E+00 -0.50101828399E+02  0.50101828399E+02  0.00000000000E+00 0.  1.
          6    1    1    2  501    0  0.62239999470E+02 -0.45876237632E+02  0.68729810557E+03  0.71294188587E+03  0.17300000000E+03 0. -1.
         -6    1    1    2    0  502 -0.62239999470E+02  0.45876237632E+02  0.20351610650E+03  0.27807598300E+03  0.17300000000E+03 0.  1.
<mgrwt>
<rscale>  2 0.18949260E+03</rscale>
<asrwt>0</asrwt>
<pdfrwt beam="1">  1       21 0.14475630E+00 0.18949260E+03</pdfrwt>
<pdfrwt beam="2">  1       21 0.77079743E-02 0.18949260E+03</pdfrwt>
<totfact> 0.42079322E+04</totfact>
</mgrwt>
</event>
<event>
 4    1  0.3901757E+000  0.1756832E+03  0.7546771E-02  0.1172047E+00
         21   -1    0    0  503  502  0.00000000000E+00  0.00000000000E+00  0.72525835363E+03  0.72525835363E+03  0.00000000000E+00 0. -1.
         21   -1    0    0  501  503 -0.00000000000E+00 -0.00000000000E+00 -0.21928267164E+03  0.21928267164E+03  0.00000000000E+00 0. -1.
          6    1    1    2  501    0 -0.28970085044E+02 -0.98147732400E+01 -0.17098581630E+03  0.24515453285E+03  0.17300000000E+03 0. -1.
         -6    1    1    2    0  502  0.28970085044E+02  0.98147732400E+01  0.67696149829E+03  0.69938649242E+03  0.17300000000E+03 0. -1.
<mgrwt>
<rscale>  2 0.17568323E+03</rscale>
<asrwt>0</asrwt>
<pdfrwt beam="1">  1       21 0.11157821E+00 0.17568323E+03</pdfrwt>
<pdfrwt beam="2">  1       21 0.33735796E-01 0.17568323E+03</pdfrwt>
<totfact> 0.54145686E+03</totfact>
</mgrwt>
</event>
<event>
 4    1  0.3901757E+000  0.1812829E+03  0.7546771E-02  0.1166567E+00
         21   -1    0    0  503  502  0.00000000000E+00  0.00000000000E+00  0.11796674552E+03  0.11796674552E+03  0.00000000000E+00 0.  1.
         21   -1    0    0  501  503 -0.00000000000E+00 -0.00000000000E+00 -0.32981875531E+03  0.32981875531E+03  0.00000000000E+00 0.  1.
          6    1    1    2  501    0 -0.37259428359E+02  0.39321928978E+02 -0.19417113599E+03  0.26564244606E+03  0.17300000000E+03 0.  1.
         -6    1    1    2    0  502  0.37259428359E+02 -0.39321928978E+02 -0.17680873800E+02  0.18214305476E+03  0.17300000000E+03 0.  1.
<mgrwt>
<rscale>  2 0.18128287E+03</rscale>
<asrwt>0</asrwt>
<pdfrwt beam="1">  1       21 0.18148730E-01 0.18128287E+03</pdfrwt>
<pdfrwt beam="2">  1       21 0.50741347E-01 0.18128287E+03</pdfrwt>
<totfact> 0.10261313E+05</totfact>
</mgrwt>
</event>
<event>
 4    1  0.3901757E+000  0.2084425E+03  0.7546771E-02  0.1142805E+00
         21   -1    0    0  503  502  0.00000000000E+00  0.00000000000E+00  0.60668024121E+03  0.60668024121E+03  0.00000000000E+00 0.  1.
         21   -1    0    0  501  503 -0.00000000000E+00 -0.00000000000E+00 -0.12907630508E+03  0.12907630508E+03  0.00000000000E+00 0. -1.
          6    1    1    2  501    0  0.10826918835E+03  0.42391670615E+02 -0.66481406843E+01  0.20854848035E+03  0.17300000000E+03 0. -1.
         -6    1    1    2    0  502 -0.10826918835E+03 -0.42391670615E+02  0.48425207681E+03  0.52720806593E+03  0.17300000000E+03 0.  1.
<mgrwt>
<rscale>  2 0.20844249E+03</rscale>
<asrwt>0</asrwt>
<pdfrwt beam="1">  1       21 0.93335420E-01 0.20844249E+03</pdfrwt>
<pdfrwt beam="2">  1       21 0.19857893E-01 0.20844249E+03</pdfrwt>
<totfact> 0.22370988E+04</totfact>
</mgrwt>
</event>
<event>
 4    1  0.3901757E+000  0.2127615E+03  0.7546771E-02  0.1139398E+00
         21   -1    0    0  503  502  0.00000000000E+00  0.00000000000E+00  0.24644639545E+04  0.24644639545E+04  0.00000000000E+00 0.  1.
         21   -1    0    0  501  503 -0.00000000000E+00 -0.00000000000E+00 -0.18818250735E+02  0.18818250735E+02  0.00000000000E+00 0.  1.
          6    1    1    2  501    0 -0.82637933864E+02 -0.92246564551E+02  0.10307801174E+04  0.10525089583E+04  0.17300000000E+03 0.  1.
         -6    1    1    2    0  502  0.82637933864E+02  0.92246564551E+02  0.14148655863E+04  0.14307732470E+04  0.17300000000E+03 0.  1.
<mgrwt>
<rscale>  2 0.21276150E+03</rscale>
<asrwt>0</asrwt>
<pdfrwt beam="1">  1       21 0.37914804E+00 0.21276150E+03</pdfrwt>
<pdfrwt beam="2">  1       21 0.28951175E-02 0.21276150E+03</pdfrwt>
<totfact> 0.76635345E+03</totfact>
</mgrwt>
</event>
<event>
 4    1  0.3901757E+000  0.1824308E+03  0.7546771E-02  0.1165471E+00
         21   -1    0    0  503  502  0.00000000000E+00  0.00000000000E+00  0.43095409852E+02  0.43095409852E+02  0.00000000000E+00 0.  1.
         21   -1    0    0  501  503 -0.00000000000E+00 -0.00000000000E+00 -0.12077482947E+04  0.12077482947E+04  0.00000000000E+00 0.  1.
          6    1    1    2  501    0  0.38337882272E+02 -0.43384434742E+02 -0.95787962313E+03  0.97509711045E+03  0.17300000000E+03 0.  1.
         -6    1    1    2    0  502 -0.38337882272E+02  0.43384434742E+02 -0.20677326169E+03  0.27574659408E+03  0.17300000000E+03 0.  1.
<mgrwt>
<rscale>  2 0.18243082E+03</rscale>
<asrwt>0</asrwt>
<pdfrwt beam="1">  1       21 0.66300626E-02 0.18243082E+03</pdfrwt>
<pdfrwt beam="2">  1       21 0.18580744E+00 0.18243082E+03</pdfrwt>
<totfact> 0.27819100E+04</totfact>
</mgrwt>
</event>
<event>
 4    1  0.3901757E+000  0.2230139E+03  0.7546771E-02  0.1131656E+00
         21   -1    0    0  503  502  0.00000000000E+00  0.00000000000E+00  0.20363478065E+04  0.20363478065E+04  0.00000000000E+00 0.  1.
         21   -1    0    0  501  503 -0.00000000000E+00 -0.00000000000E+00 -0.95018729577E+02  0.95018729577E+02  0.00000000000E+00 0.  1.
          6    1    1    2  501    0  0.13584799387E+03  0.36763331552E+02  0.52098275235E+02  0.22901844962E+03  0.17300000000E+03 0.  1.
         -6    1    1    2    0  502 -0.13584799387E+03 -0.36763331552E+02  0.18892308017E+04  0.19023480865E+04  0.17300000000E+03 0.  1.
<mgrwt>
<rscale>  2 0.22301395E+03</rscale>
<asrwt>0</asrwt>
<pdfrwt beam="1">  1       21 0.31328425E+00 0.22301395E+03</pdfrwt>
<pdfrwt beam="2">  1       21 0.14618268E-01 0.22301395E+03</pdfrwt>
<totfact> 0.11316715E+03</totfact>
</mgrwt>
</event>
<event>
 4    1  0.3901757E+000  0.1863130E+03  0.7546771E-02  0.1161829E+00
         21   -1    0    0  501  502  0.00000000000E+00  0.00000000000E+00  0.53273028633E+02  0.53273028633E+02  0.00000000000E+00 0. -1.
         21   -1    0    0  502  503 -0.00000000000E+00 -0.00000000000E+00 -0.78647940422E+03  0.78647940422E+03  0.00000000000E+00 0. -1.
          6    1    1    2  501    0  0.33623517955E+02  0.60440122152E+02 -0.19272098401E+03  0.26805582815E+03  0.17300000000E+03 0. -1.
         -6    1    1    2    0  503 -0.33623517955E+02 -0.60440122152E+02 -0.54048539158E+03  0.57169660471E+03  0.17300000000E+03 0. -1.
<mgrwt>
<rscale>  2 0.18631304E+03</rscale>
<asrwt>0</asrwt>
<pdfrwt beam="1">  1       21 0.81958515E-02 0.18631304E+03</pdfrwt>
<pdfrwt beam="2">  1       21 0.12099682E+00 0.18631304E+03</pdfrwt>
<totfact> 0.59710389E+04</totfact>
</mgrwt>
</event>
<event>
 4    1  0.3901757E+000  0.2256781E+03  0.7546771E-02  0.1129719E+00
         21   -1    0    0  501  502  0.00000000000E+00  0.00000000000E+00  0.44510513027E+03  0.44510513027E+03  0.00000000000E+00 0.  1.
         21   -1    0    0  502  503 -0.00000000000E+00 -0.00000000000E+00 -0.39498161243E+03  0.39498161243E+03  0.00000000000E+00 0. -1.
          6    1    1    2  501    0 -0.10297172550E+03  0.10197258451E+03  0.37907291029E+03  0.44116533812E+03  0.17300000000E+03 0.  1.
         -6    1    1    2    0  503  0.10297172550E+03 -0.10197258451E+03 -0.32894939244E+03  0.39892140458E+03  0.17300000000E+03 0. -1.
<mgrwt>
<rscale>  2 0.22567805E+03</rscale>
<asrwt>0</asrwt>
<pdfrwt beam="1">  1       21 0.68477712E-01 0.22567805E+03</pdfrwt>
<pdfrwt beam="2">  1       21 0.60766402E-01 0.22567805E+03</pdfrwt>
<totfact> 0.47839288E+03</totfact>
</mgrwt>
</event>
<event>
 4    1  0.3901757E+000  0.2918363E+03  0.7546771E-02  0.1089394E+00
         21   -1    0    0  503  502  0.00000000000E+00  0.00000000000E+00  0.20495409925E+03  0.20495409925E+03  0.00000000000E+00 0.  1.
         21   -1    0    0  501  503 -0.00000000000E+00 -0.00000000000E+00 -0.48831312914E+03  0.48831312914E+03  0.00000000000E+00 0. -1.
          6    1    1    2  501    0  0.48342884103E+02 -0.23000524201E+03 -0.78719986296E+01  0.29194248433E+03  0.17300000000E+03 0.  1.
         -6    1    1    2    0  502 -0.48342884103E+02  0.23000524201E+03 -0.27548703126E+03  0.40132474405E+03  0.17300000000E+03 0. -1.
<mgrwt>
<rscale>  2 0.29183633E+03</rscale>
<asrwt>0</asrwt>
<pdfrwt beam="1">  1       21 0.31531400E-01 0.29183633E+03</pdfrwt>
<pdfrwt beam="2">  1       21 0.75125096E-01 0.29183633E+03</pdfrwt>
<totfact> 0.14519614E+04</totfact>
</mgrwt>
</event>
<event>
 4    1  0.3901757E+000  0.1764907E+03  0.7546771E-02  0.1171243E+00
         21   -1    0    0  503  502  0.00000000000E+00  0.00000000000E+00  0.27967730269E+02  0.27967730269E+02  0.00000000000E+00 0. -1.
         21   -1    0    0  501  503 -0.00000000000E+00 -0.00000000000E+00 -0.12457057371E+04  0.12457057371E+04  0.00000000000E+00 0. -1.
          6    1    1    2  501    0 -0.32524799887E+02 -0.12732502782E+02 -0.81614033636E+03  0.83500540590E+03  0.17300000000E+03 0. -1.
         -6    1    1    2    0  502  0.32524799887E+02  0.12732502782E+02 -0.40159767049E+03  0.43866806150E+03  0.17300000000E+03 0. -1.
<mgrwt>
<rscale>  2 0.17649073E+03</rscale>
<asrwt>0</asrwt>
<pdfrwt beam="1">  1       21 0.43027279E-02 0.17649073E+03</pdfrwt>
<pdfrwt beam="2">  1       21 0.19164703E+00 0.17649073E+03</pdfrwt>
<totfact> 0.53285122E+04</totfact>
</mgrwt>
</event>
<event>
 4    1  0.3901757E+000  0.2960117E+03  0.7546771E-02  0.1087251E+00
         21   -1    0    0  501  502  0.00000000000E+00  0.00000000000E+00  0.47276815692E+02  0.47276815692E+02  0.00000000000E+00 0. -1.
         21   -1    0    0  502  503 -0.00000000000E+00 -0.00000000000E+00 -0.19878227292E+04  0.19878227292E+04  0.00000000000E+00 0.  1.
          6    1    1    2  501    0  0.92795570832E+02 -0.22154663622E+03 -0.70566648401E+03  0.76523729434E+03  0.17300000000E+03 0. -1.
         -6    1    1    2    0  503 -0.92795570832E+02  0.22154663622E+03 -0.12348794295E+04  0.12698622505E+04  0.17300000000E+03 0.  1.
<mgrwt>
<rscale>  2 0.29601171E+03</rscale>
<asrwt>0</asrwt>
<pdfrwt beam="1">  1       21 0.72733575E-02 0.29601171E+03</pdfrwt>
<pdfrwt beam="2">  1       21 0.30581883E+00 0.29601171E+03</pdfrwt>
<totfact> 0.40525531E+03</totfact>
</mgrwt>
</event>
<event>
 4    1  0.3901757E+000  0.2024543E+03  0.7546771E-02  0.1147685E+00
         21   -1    0    0  501  502  0.00000000000E+00  0.00000000000E+00  0.32485863473E+03  0.32485863473E+03  0.00000000000E+00 0.  1.
         21   -1    0    0  502  503 -0.00000000000E+00 -0.00000000000E+00 -0.14429689366E+03  0.14429689366E+03  0.00000000000E+00 0. -1.
          6    1    1    2  501    0 -0.54976590910E+02  0.89645500877E+02  0.71412628942E+01  0.20258020390E+03  0.17300000000E+03 0. -1.
         -6    1    1    2    0  503  0.54976590910E+02 -0.89645500877E+02  0.17342047818E+03  0.26657532449E+03  0.17300000000E+03 0.  1.
<mgrwt>
<rscale>  2 0.20245429E+03</rscale>
<asrwt>0</asrwt>
<pdfrwt beam="1">  1       21 0.49978252E-01 0.20245429E+03</pdfrwt>
<pdfrwt beam="2">  1       21 0.22199522E-01 0.20245429E+03</pdfrwt>
<totfact> 0.72062132E+04</totfact>
</mgrwt>
</event>
<event>
 4    1  0.3901757E+000  0.1946425E+03  0.7546771E-02  0.1154340E+00
         21   -1    0    0  501  502  0.00000000000E+00  0.00000000000E+00  0.67221071284E+03  0.67221071284E+03  0.00000000000E+00 0.  1.
         21   -1    0    0  502  503 -0.00000000000E+00 -0.00000000000E+00 -0.17256292021E+03  0.17256292021E+03  0.00000000000E+00 0.  1.
          6    1    1    2  501    0 -0.10382929760E+02  0.88593992381E+02  0.59643733679E+03  0.62739397307E+03  0.17300000000E+03 0.  1.
         -6    1    1    2    0  503  0.10382929760E+02 -0.88593992381E+02 -0.96789544161E+02  0.21737965999E+03  0.17300000000E+03 0.  1.
<mgrwt>
<rscale>  2 0.19464249E+03</rscale>
<asrwt>0</asrwt>
<pdfrwt beam="1">  1       21 0.10341703E+00 0.19464249E+03</pdfrwt>
<pdfrwt beam="2">  1       21 0.26548142E-01 0.19464249E+03</pdfrwt>
<totfact> 0.10215448E+04</totfact>
</mgrwt>
</event>
<event>
 4    1  0.3901757E+000  0.1896877E+03  0.7546771E-02  0.1158743E+00
         21   -1    0    0  501  502  0.00000000000E+00  0.00000000000E+00  0.76484039792E+03  0.76484039792E+03  0.00000000000E+00 0. -1.
         21   -1    0    0  502  503 -0.00000000000E+00 -0.00000000000E+00 -0.70308635161E+02  0.70308635161E+02  0.00000000000E+00 0. -1.
          6    1    1    2  501    0  0.62390259596E+02  0.46474346923E+02  0.10706498096E+03  0.21781717004E+03  0.17300000000E+03 0. -1.
         -6    1    1    2    0  503 -0.62390259596E+02 -0.46474346923E+02  0.58746678180E+03  0.61733186304E+03  0.17300000000E+03 0. -1.
<mgrwt>
<rscale>  2 0.18968766E+03</rscale>
<asrwt>0</asrwt>
<pdfrwt beam="1">  1       21 0.11766775E+00 0.18968766E+03</pdfrwt>
<pdfrwt beam="2">  1       21 0.10816714E-01 0.18968766E+03</pdfrwt>
<totfact> 0.39204284E+04</totfact>
</mgrwt>
</event>
<event>
 4    1  0.3901757E+000  0.2305841E+03  0.7546771E-02  0.1126229E+00
         21   -1    0    0  501  502  0.00000000000E+00  0.00000000000E+00  0.18823319051E+03  0.18823319051E+03  0.00000000000E+00 0. -1.
         21   -1    0    0  502  503 -0.00000000000E+00 -0.00000000000E+00 -0.28586709389E+03  0.28586709389E+03  0.00000000000E+00 0. -1.
          6    1    1    2  501    0 -0.12410375878E+03  0.88533962178E+02 -0.74682824710E+02  0.24237683410E+03  0.17300000000E+03 0. -1.
         -6    1    1    2    0  503  0.12410375878E+03 -0.88533962178E+02 -0.22951078670E+02  0.23172345029E+03  0.17300000000E+03 0. -1.
<mgrwt>
<rscale>  2 0.23058405E+03</rscale>
<asrwt>0</asrwt>
<pdfrwt beam="1">  1       21 0.28958952E-01 0.23058405E+03</pdfrwt>
<pdfrwt beam="2">  1       21 0.43979553E-01 0.23058405E+03</pdfrwt>
<totfact> 0.55730427E+04</totfact>
</mgrwt>
</event>
<event>
 4    1  0.3901757E+000  0.2000504E+03  0.7546771E-02  0.1149696E+00
         21   -1    0    0  501  502  0.00000000000E+00  0.00000000000E+00  0.53788333212E+03  0.53788333212E+03  0.00000000000E+00 0. -1.
         21   -1    0    0  502  503 -0.00000000000E+00 -0.00000000000E+00 -0.33532351942E+03  0.33532351942E+03  0.00000000000E+00 0.  1.
          6    1    1    2  501    0  0.73900209556E+02  0.68043526602E+02  0.48641155047E+03  0.52594330390E+03  0.17300000000E+03 0. -1.
         -6    1    1    2    0  503 -0.73900209556E+02 -0.68043526602E+02 -0.28385173777E+03  0.34726354764E+03  0.17300000000E+03 0.  1.
<mgrwt>
<rscale>  2 0.20005040E+03</rscale>
<asrwt>0</asrwt>
<pdfrwt beam="1">  1       21 0.82751282E-01 0.20005040E+03</pdfrwt>
<pdfrwt beam="2">  1       21 0.51588234E-01 0.20005040E+03</pdfrwt>
<totfact> 0.45200855E+03</totfact>
</mgrwt>
</event>
<event>
 4    1  0.3901757E+000  0.3826969E+03  0.7546771E-02  0.1049941E+00
         21   -1    0    0  501  502  0.00000000000E+00  0.00000000000E+00  0.29614958923E+03  0.29614958923E+03  0.00000000000E+00 0. -1.
         21   -1    0    0  502  503 -0.00000000000E+00 -0.00000000000E+00 -0.64662251654E+03  0.64662251654E+03  0.00000000000E+00 0.  1.
          6    1    1    2  501    0  0.19257781262E+03  0.28185408082E+03  0.53373529149E+02  0.38640091926E+03  0.17300000000E+03 0. -1.
         -6    1    1    2    0  503 -0.19257781262E+03 -0.28185408082E+03 -0.40384645646E+03  0.55637118652E+03  0.17300000000E+03 0.  1.
<mgrwt>
<rscale>  2 0.38269693E+03</rscale>
<asrwt>0</asrwt>
<pdfrwt beam="1">  1       21 0.45561476E-01 0.38269693E+03</pdfrwt>
<pdfrwt beam="2">  1       21 0.99480385E-01 0.38269693E+03</pdfrwt>
<totfact> 0.34331575E+03</totfact>
</mgrwt>
</event>
<event>
 4    1  0.3901757E+000  0.1932212E+03  0.7546771E-02  0.1155588E+00
         21   -1    0    0  503  502  0.00000000000E+00  0.00000000000E+00  0.31895755690E+03  0.31895755690E+03  0.00000000000E+00 0. -1.
         21   -1    0    0  501  503 -0.00000000000E+00 -0.00000000000E+00 -0.15625166457E+03  0.15625166457E+03  0.00000000000E+00 0. -1.
          6    1    1    2  501    0 -0.16461095526E+01  0.86039177303E+02 -0.37657934708E+02  0.19685672392E+03  0.17300000000E+03 0. -1.
         -6    1    1    2    0  502  0.16461095526E+01 -0.86039177303E+02  0.20036382703E+03  0.27835249755E+03  0.17300000000E+03 0. -1.
<mgrwt>
<rscale>  2 0.19322125E+03</rscale>
<asrwt>0</asrwt>
<pdfrwt beam="1">  1       21 0.49070393E-01 0.19322125E+03</pdfrwt>
<pdfrwt beam="2">  1       21 0.24038718E-01 0.19322125E+03</pdfrwt>
<totfact> 0.64659129E+04</totfact>
</mgrwt>
</event>
<event>
 4    1  0.3901757E+000  0.2733421E+03  0.7546771E-02  0.1099382E+00
         21   -1    0    0  503  502  0.00000000000E+00  0.00000000000E+00  0.58363947898E+03  0.58363947898E+03  0.00000000000E+00 0. -1.
         21   -1    0    0  501  503 -0.00000000000E+00 -0.00000000000E+00 -0.14064464363E+03  0.14064464363E+03  0.00000000000E+00 0.  1.
          6    1    1    2  501    0  0.14915360814E+03  0.15013365697E+03  0.11298624781E+03  0.29577323403E+03  0.17300000000E+03 0.  1.
         -6    1    1    2    0  502 -0.14915360814E+03 -0.15013365697E+03  0.33000858754E+03  0.42851088858E+03  0.17300000000E+03 0. -1.
<mgrwt>
<rscale>  2 0.27334212E+03</rscale>
<asrwt>0</asrwt>
<pdfrwt beam="1">  1       21 0.89790688E-01 0.27334212E+03</pdfrwt>
<pdfrwt beam="2">  1       21 0.21637638E-01 0.27334212E+03</pdfrwt>
<totfact> 0.20155349E+04</totfact>
</mgrwt>
</event>
<event>
 4    1  0.3901757E+000  0.1756522E+03  0.7546771E-02  0.1172078E+00
         21   -1    0    0  503  502  0.00000000000E+00  0.00000000000E+00  0.26088381359E+03  0.26088381359E+03  0.00000000000E+00 0.  1.
         21   -1    0    0  501  503 -0.00000000000E+00 -0.00000000000E+00 -0.24423619908E+03  0.24423619908E+03  0.00000000000E+00 0.  1.
          6    1    1    2  501    0  0.24976971257E+02  0.17344895937E+02 -0.17305786815E+03  0.24658207607E+03  0.17300000000E+03 0.  1.
         -6    1    1    2    0  502 -0.24976971257E+02 -0.17344895937E+02  0.18970548266E+03  0.25853793660E+03  0.17300000000E+03 0.  1.
<mgrwt>
<rscale>  2 0.17565220E+03</rscale>
<asrwt>0</asrwt>
<pdfrwt beam="1">  1       21 0.40135971E-01 0.17565220E+03</pdfrwt>
<pdfrwt beam="2">  1       21 0.37574800E-01 0.17565220E+03</pdfrwt>
<totfact> 0.41214262E+04</totfact>
</mgrwt>
</event>
<event>
 4    1  0.3901757E+000  0.2068195E+03  0.7546771E-02  0.1144110E+00
         21   -1    0    0  501  502  0.00000000000E+00  0.00000000000E+00  0.25797970813E+03  0.25797970813E+03  0.00000000000E+00 0.  1.
         21   -1    0    0  502  503 -0.00000000000E+00 -0.00000000000E+00 -0.18424003002E+03  0.18424003002E+03  0.00000000000E+00 0.  1.
          6    1    1    2  501    0 -0.83845092084E+02  0.76258092444E+02  0.10681205623E+03  0.23277266052E+03  0.17300000000E+03 0.  1.
         -6    1    1    2    0  503  0.83845092084E+02 -0.76258092444E+02 -0.33072378121E+02  0.20944707762E+03  0.17300000000E+03 0.  1.
<mgrwt>
<rscale>  2 0.20681948E+03</rscale>
<asrwt>0</asrwt>
<pdfrwt beam="1">  1       21 0.39689186E-01 0.20681948E+03</pdfrwt>
<pdfrwt beam="2">  1       21 0.28344620E-01 0.20681948E+03</pdfrwt>
<totfact> 0.72356045E+04</totfact>
</mgrwt>
</event>
<event>
 4    1  0.3901757E+000  0.2437839E+03  0.7546771E-02  0.1117297E+00
         21   -1    0    0  501  502  0.00000000000E+00  0.00000000000E+00  0.59594749361E+03  0.59594749361E+03  0.00000000000E+00 0.  1.
         21   -1    0    0  502  503 -0.00000000000E+00 -0.00000000000E+00 -0.21076646635E+03  0.21076646635E+03  0.00000000000E+00 0.  1.
          6    1    1    2  501    0  0.41054898260E+02  0.16678154106E+03  0.48536438910E+03  0.54314747290E+03  0.17300000000E+03 0. -1.
         -6    1    1    2    0  503 -0.41054898260E+02 -0.16678154106E+03 -0.10018336184E+03  0.26356648706E+03  0.17300000000E+03 0. -1.
<mgrwt>
<rscale>  2 0.24378389E+03</rscale>
<asrwt>0</asrwt>
<pdfrwt beam="1">  1       21 0.91684229E-01 0.24378389E+03</pdfrwt>
<pdfrwt beam="2">  1       21 0.32425611E-01 0.24378389E+03</pdfrwt>
<totfact> 0.89065645E+03</totfact>
</mgrwt>
</event>
<event>
 4    1  0.3901757E+000  0.1835535E+03  0.7546771E-02  0.1164408E+00
         21   -1    0    0  501  502  0.00000000000E+00  0.00000000000E+00  0.25718868869E+02  0.25718868869E+02  0.00000000000E+00 0. -1.
         21   -1    0    0  502  503 -0.00000000000E+00 -0.00000000000E+00 -0.21506038448E+04  0.21506038448E+04  0.00000000000E+00 0. -1.
          6    1    1    2  501    0 -0.12237897878E+02 -0.60109261326E+02 -0.38213217225E+03  0.42393028497E+03  0.17300000000E+03 0. -1.
         -6    1    1    2    0  503  0.12237897878E+02  0.60109261326E+02 -0.17427528037E+04  0.17523924287E+04  0.17300000000E+03 0. -1.
<mgrwt>
<rscale>  2 0.18355351E+03</rscale>
<asrwt>0</asrwt>
<pdfrwt beam="1">  1       21 0.39567488E-02 0.18355351E+03</pdfrwt>
<pdfrwt beam="2">  1       21 0.33086216E+00 0.18355351E+03</pdfrwt>
<totfact> 0.91322399E+03</totfact>
</mgrwt>
</event>
<event>
 4    1  0.3901757E+000  0.2021429E+03  0.7546771E-02  0.1147944E+00
         21   -1    0    0  501  502  0.00000000000E+00  0.00000000000E+00  0.11211606689E+03  0.11211606689E+03  0.00000000000E+00 0. -1.
         21   -1    0    0  502  503 -0.00000000000E+00 -0.00000000000E+00 -0.46695664349E+03  0.46695664349E+03  0.00000000000E+00 0.  1.
          6    1    1    2  501    0 -0.23035751763E+02 -0.10199071245E+03 -0.41769920120E+02  0.20641336563E+03  0.17300000000E+03 0. -1.
         -6    1    1    2    0  503  0.23035751763E+02  0.10199071245E+03 -0.31307065647E+03  0.37265934475E+03  0.17300000000E+03 0.  1.
<mgrwt>
<rscale>  2 0.20214290E+03</rscale>
<asrwt>0</asrwt>
<pdfrwt beam="1">  1       21 0.17248626E-01 0.20214290E+03</pdfrwt>
<pdfrwt beam="2">  1       21 0.71839484E-01 0.20214290E+03</pdfrwt>
<totfact> 0.52898811E+04</totfact>
</mgrwt>
</event>
<event>
 4    1  0.3901757E+000  0.3402506E+03  0.7546771E-02  0.1066689E+00
         21   -1    0    0  501  502  0.00000000000E+00  0.00000000000E+00  0.56052951738E+03  0.56052951738E+03  0.00000000000E+00 0. -1.
         21   -1    0    0  502  503 -0.00000000000E+00 -0.00000000000E+00 -0.33294811321E+03  0.33294811321E+03  0.00000000000E+00 0.  1.
          6    1    1    2  501    0  0.24695772210E+03  0.15764943536E+03  0.38905943554E+03  0.51685365952E+03  0.17300000000E+03 0.  1.
         -6    1    1    2    0  503 -0.24695772210E+03 -0.15764943536E+03 -0.16147803136E+03  0.37662397107E+03  0.17300000000E+03 0.  1.
<mgrwt>
<rscale>  2 0.34025059E+03</rscale>
<asrwt>0</asrwt>
<pdfrwt beam="1">  1       21 0.86235310E-01 0.34025059E+03</pdfrwt>
<pdfrwt beam="2">  1       21 0.51222787E-01 0.34025059E+03</pdfrwt>
<totfact> 0.38345398E+03</totfact>
</mgrwt>
</event>
<event>
 4    1  0.3901757E+000  0.2082679E+03  0.7546771E-02  0.1142945E+00
         21   -1    0    0  503  502  0.00000000000E+00  0.00000000000E+00  0.60760945466E+03  0.60760945466E+03  0.00000000000E+00 0. -1.
         21   -1    0    0  501  503 -0.00000000000E+00 -0.00000000000E+00 -0.12417452816E+03  0.12417452816E+03  0.00000000000E+00 0. -1.
          6    1    1    2  501    0  0.37775351465E+02 -0.10963359459E+03  0.31552118553E+01  0.20829176077E+03  0.17300000000E+03 0. -1.
         -6    1    1    2    0  502 -0.37775351465E+02  0.10963359459E+03  0.48027971465E+03  0.52349222205E+03  0.17300000000E+03 0. -1.
<mgrwt>
<rscale>  2 0.20826786E+03</rscale>
<asrwt>0</asrwt>
<pdfrwt beam="1">  1       21 0.93478376E-01 0.20826786E+03</pdfrwt>
<pdfrwt beam="2">  1       21 0.19103774E-01 0.20826786E+03</pdfrwt>
<totfact> 0.23964214E+04</totfact>
</mgrwt>
</event>
<event>
 4    1  0.3901757E+000  0.2273411E+03  0.7546771E-02  0.1128525E+00
         21   -1    0    0  501  502  0.00000000000E+00  0.00000000000E+00  0.71768723424E+03  0.71768723424E+03  0.00000000000E+00 0.  1.
         21   -1    0    0  502  503 -0.00000000000E+00 -0.00000000000E+00 -0.12173925604E+03  0.12173925604E+03  0.00000000000E+00 0. -1.
          6    1    1    2  501    0 -0.13817766567E+03 -0.51593755869E+02  0.56621371820E+03  0.61014912736E+03  0.17300000000E+03 0.  1.
         -6    1    1    2    0  503  0.13817766567E+03  0.51593755869E+02  0.29734259997E+02  0.22927736293E+03  0.17300000000E+03 0. -1.
<mgrwt>
<rscale>  2 0.22734112E+03</rscale>
<asrwt>0</asrwt>
<pdfrwt beam="1">  1       21 0.11041342E+00 0.22734112E+03</pdfrwt>
<pdfrwt beam="2">  1       21 0.18729117E-01 0.22734112E+03</pdfrwt>
<totfact> 0.16521419E+04</totfact>
</mgrwt>
</event>
<event>
 4    1  0.3901757E+000  0.1917123E+03  0.7546771E-02  0.1156926E+00
         21   -1    0    0  501  502  0.00000000000E+00  0.00000000000E+00  0.93975685635E+02  0.93975685635E+02  0.00000000000E+00 0. -1.
         21   -1    0    0  502  503 -0.00000000000E+00 -0.00000000000E+00 -0.41972428479E+03  0.41972428479E+03  0.00000000000E+00 0. -1.
          6    1    1    2  501    0  0.10859049915E+02  0.81894318146E+02 -0.22995358323E+03  0.29938645385E+03  0.17300000000E+03 0. -1.
         -6    1    1    2    0  503 -0.10859049915E+02 -0.81894318146E+02 -0.95795015924E+02  0.21431351657E+03  0.17300000000E+03 0. -1.
<mgrwt>
<rscale>  2 0.19171228E+03</rscale>
<asrwt>0</asrwt>
<pdfrwt beam="1">  1       21 0.14457798E-01 0.19171228E+03</pdfrwt>
<pdfrwt beam="2">  1       21 0.64572965E-01 0.19171228E+03</pdfrwt>
<totfact> 0.92775746E+04</totfact>
</mgrwt>
</event>
<event>
 4    1  0.3901757E+000  0.2199891E+03  0.7546771E-02  0.1133891E+00
         21   -1    0    0  501  502  0.00000000000E+00  0.00000000000E+00  0.12389900102E+03  0.12389900102E+03  0.00000000000E+00 0. -1.
         21   -1    0    0  502  503 -0.00000000000E+00 -0.00000000000E+00 -0.45001029900E+03  0.45001029900E+03  0.00000000000E+00 0.  1.
          6    1    1    2  501    0 -0.79246818197E+01  0.13565907606E+03 -0.58793671964E+02  0.22771008182E+03  0.17300000000E+03 0. -1.
         -6    1    1    2    0  503  0.79246818197E+01 -0.13565907606E+03 -0.26731762601E+03  0.34619921819E+03  0.17300000000E+03 0.  1.
<mgrwt>
<rscale>  2 0.21998906E+03</rscale>
<asrwt>0</asrwt>
<pdfrwt beam="1">  1       21 0.19061385E-01 0.21998906E+03</pdfrwt>
<pdfrwt beam="2">  1       21 0.69232353E-01 0.21998906E+03</pdfrwt>
<totfact> 0.47296140E+04</totfact>
</mgrwt>
</event>
<event>
 4    1  0.3901757E+000  0.1743220E+03  0.7546771E-02  0.1173414E+00
         21   -1    0    0  503  502  0.00000000000E+00  0.00000000000E+00  0.44932256092E+03  0.44932256092E+03  0.00000000000E+00 0.  1.
         21   -1    0    0  501  503 -0.00000000000E+00 -0.00000000000E+00 -0.68088155532E+02  0.68088155532E+02  0.00000000000E+00 0.  1.
          6    1    1    2  501    0  0.96583465929E+01 -0.19127445548E+02  0.21181508206E+03  0.27432420932E+03  0.17300000000E+03 0.  1.
         -6    1    1    2    0  502 -0.96583465929E+01  0.19127445548E+02  0.16941932333E+03  0.24308650713E+03  0.17300000000E+03 0.  1.
<mgrwt>
<rscale>  2 0.17432195E+03</rscale>
<asrwt>0</asrwt>
<pdfrwt beam="1">  1       21 0.69126546E-01 0.17432195E+03</pdfrwt>
<pdfrwt beam="2">  1       21 0.10475101E-01 0.17432195E+03</pdfrwt>
<totfact> 0.14328613E+05</totfact>
</mgrwt>
</event>
<event>
 4    1  0.3901757E+000  0.2354797E+03  0.7546771E-02  0.1122841E+00
         21   -1    0    0  503  502  0.00000000000E+00  0.00000000000E+00  0.58623047961E+02  0.58623047961E+02  0.00000000000E+00 0.  1.
         21   -1    0    0  501  503 -0.00000000000E+00 -0.00000000000E+00 -0.94803274784E+03  0.94803274784E+03  0.00000000000E+00 0.  1.
          6    1    1    2  501    0 -0.14239010844E+03  0.72434357841E+02 -0.46866010894E+03  0.52449306658E+03  0.17300000000E+03 0.  1.
         -6    1    1    2    0  502  0.14239010844E+03 -0.72434357841E+02 -0.42074959093E+03  0.48216272922E+03  0.17300000000E+03 0.  1.
<mgrwt>
<rscale>  2 0.23547968E+03</rscale>
<asrwt>0</asrwt>
<pdfrwt beam="1">  1       21 0.90189314E-02 0.23547968E+03</pdfrwt>
<pdfrwt beam="2">  1       21 0.14585118E+00 0.23547968E+03</pdfrwt>
<totfact> 0.30539584E+04</totfact>
</mgrwt>
</event>
<event>
 4    1  0.3901757E+000  0.2428631E+03  0.7546771E-02  0.1117900E+00
         21   -1    0    0  501  502  0.00000000000E+00  0.00000000000E+00  0.19597522971E+03  0.19597522971E+03  0.00000000000E+00 0.  1.
         21   -1    0    0  502  503 -0.00000000000E+00 -0.00000000000E+00 -0.32554626988E+03  0.32554626988E+03  0.00000000000E+00 0. -1.
          6    1    1    2  501    0 -0.16323860899E+03 -0.49057492172E+02  0.68621601205E+01  0.24296001779E+03  0.17300000000E+03 0.  1.
         -6    1    1    2    0  503  0.16323860899E+03  0.49057492172E+02 -0.13643320029E+03  0.27856148180E+03  0.17300000000E+03 0.  1.
<mgrwt>
<rscale>  2 0.24286309E+03</rscale>
<asrwt>0</asrwt>
<pdfrwt beam="1">  1       21 0.30150036E-01 0.24286309E+03</pdfrwt>
<pdfrwt beam="2">  1       21 0.50084041E-01 0.24286309E+03</pdfrwt>
<totfact> 0.39119126E+04</totfact>
</mgrwt>
</event>
<event>
 4    1  0.3901757E+000  0.2369973E+03  0.7546771E-02  0.1121809E+00
         21   -1    0    0  501  502  0.00000000000E+00  0.00000000000E+00  0.94524030569E+03  0.94524030569E+03  0.00000000000E+00 0.  1.
         21   -1    0    0  502  503 -0.00000000000E+00 -0.00000000000E+00 -0.11126345043E+03  0.11126345043E+03  0.00000000000E+00 0. -1.
          6    1    1    2  501    0  0.13650642713E+03  0.87205152216E+02  0.77757106035E+03  0.81288652167E+03  0.17300000000E+03 0.  1.
         -6    1    1    2    0  503 -0.13650642713E+03 -0.87205152216E+02  0.56405794920E+02  0.24361723445E+03  0.17300000000E+03 0. -1.
<mgrwt>
<rscale>  2 0.23699735E+03</rscale>
<asrwt>0</asrwt>
<pdfrwt beam="1">  1       21 0.14542158E+00 0.23699735E+03</pdfrwt>
<pdfrwt beam="2">  1       21 0.17117454E-01 0.23699735E+03</pdfrwt>
<totfact> 0.96803534E+03</totfact>
</mgrwt>
</event>
<event>
 4    1  0.3901757E+000  0.1979521E+03  0.7546771E-02  0.1151478E+00
         21   -1    0    0  503  502  0.00000000000E+00  0.00000000000E+00  0.24810226038E+03  0.24810226038E+03  0.00000000000E+00 0. -1.
         21   -1    0    0  501  503 -0.00000000000E+00 -0.00000000000E+00 -0.37899627970E+03  0.37899627970E+03  0.00000000000E+00 0. -1.
          6    1    1    2  501    0 -0.36034945457E+02  0.89204888706E+02 -0.30491127027E+03  0.36353254627E+03  0.17300000000E+03 0. -1.
         -6    1    1    2    0  502  0.36034945457E+02 -0.89204888706E+02  0.17401725094E+03  0.26356599380E+03  0.17300000000E+03 0. -1.
<mgrwt>
<rscale>  2 0.19795209E+03</rscale>
<asrwt>0</asrwt>
<pdfrwt beam="1">  1       21 0.38169578E-01 0.19795209E+03</pdfrwt>
<pdfrwt beam="2">  1       21 0.58307120E-01 0.19795209E+03</pdfrwt>
<totfact> 0.18176972E+04</totfact>
</mgrwt>
</event>
<event>
 4    1  0.3901757E+000  0.1895922E+03  0.7546771E-02  0.1158830E+00
         21   -1    0    0  503  502  0.00000000000E+00  0.00000000000E+00  0.16584504768E+03  0.16584504768E+03  0.00000000000E+00 0.  1.
         21   -1    0    0  501  503 -0.00000000000E+00 -0.00000000000E+00 -0.22520612843E+03  0.22520612843E+03  0.00000000000E+00 0.  1.
          6    1    1    2  501    0  0.70253904991E+02  0.32872224092E+02 -0.67591555422E+02  0.20128043285E+03  0.17300000000E+03 0. -1.
         -6    1    1    2    0  502 -0.70253904991E+02 -0.32872224092E+02  0.82304746746E+01  0.18977074326E+03  0.17300000000E+03 0. -1.
<mgrwt>
<rscale>  2 0.18959218E+03</rscale>
<asrwt>0</asrwt>
<pdfrwt beam="1">  1       21 0.25514623E-01 0.18959218E+03</pdfrwt>
<pdfrwt beam="2">  1       21 0.34647097E-01 0.18959218E+03</pdfrwt>
<totfact> 0.11710062E+05</totfact>
</mgrwt>
</event>
<event>
 4    1  0.3901757E+000  0.1740594E+03  0.7546771E-02  0.1173679E+00
         21   -1    0    0  501  502  0.00000000000E+00  0.00000000000E+00  0.11215321483E+03  0.11215321483E+03  0.00000000000E+00 0.  1.
         21   -1    0    0  502  503 -0.00000000000E+00 -0.00000000000E+00 -0.30531886345E+03  0.30531886345E+03  0.00000000000E+00 0.  1.
          6    1    1    2  501    0 -0.97501037812E+01 -0.16510757364E+02 -0.25725699451E+02  0.17595022377E+03  0.17300000000E+03 0. -1.
         -6    1    1    2    0  503  0.97501037812E+01  0.16510757364E+02 -0.16743994917E+03  0.24152185452E+03  0.17300000000E+03 0. -1.
<mgrwt>
<rscale>  2 0.17405939E+03</rscale>
<asrwt>0</asrwt>
<pdfrwt beam="1">  1       21 0.17254340E-01 0.17405939E+03</pdfrwt>
<pdfrwt beam="2">  1       21 0.46972134E-01 0.17405939E+03</pdfrwt>
<totfact> 0.13252789E+05</totfact>
</mgrwt>
</event>
<event>
 4    1  0.3901757E+000  0.2428009E+03  0.7546771E-02  0.1117941E+00
         21   -1    0    0  503  502  0.00000000000E+00  0.00000000000E+00  0.26886078408E+03  0.26886078408E+03  0.00000000000E+00 0.  1.
         21   -1    0    0  501  503 -0.00000000000E+00 -0.00000000000E+00 -0.21961686550E+03  0.21961686550E+03  0.00000000000E+00 0. -1.
          6    1    1    2  501    0  0.13241746011E+03  0.10718623731E+03  0.34371599271E+02  0.24522169571E+03  0.17300000000E+03 0. -1.
         -6    1    1    2    0  502 -0.13241746011E+03 -0.10718623731E+03  0.14872319313E+02  0.24325595387E+03  0.17300000000E+03 0. -1.
<mgrwt>
<rscale>  2 0.24280089E+03</rscale>
<asrwt>0</asrwt>
<pdfrwt beam="1">  1       21 0.41363198E-01 0.24280089E+03</pdfrwt>
<pdfrwt beam="2">  1       21 0.33787210E-01 0.24280089E+03</pdfrwt>
<totfact> 0.46414883E+04</totfact>
</mgrwt>
</event>
<event>
 4    1  0.3901757E+000  0.1740769E+03  0.7546771E-02  0.1173662E+00
         21   -1    0    0  503  502  0.00000000000E+00  0.00000000000E+00  0.23821536772E+04  0.23821536772E+04  0.00000000000E+00 0.  1.
         21   -1    0    0  501  503 -0.00000000000E+00 -0.00000000000E+00 -0.65020666688E+02  0.65020666688E+02  0.00000000000E+00 0.  1.
          6    1    1    2  501    0  0.77636264822E+01 -0.17705654258E+02  0.61179698104E+02  0.18451482203E+03  0.17300000000E+03 0.  1.
         -6    1    1    2    0  502 -0.77636264822E+01  0.17705654258E+02  0.22559533124E+04  0.22626595218E+04  0.17300000000E+03 0.  1.
<mgrwt>
<rscale>  2 0.17407689E+03</rscale>
<asrwt>0</asrwt>
<pdfrwt beam="1">  1       21 0.36648511E+00 0.17407689E+03</pdfrwt>
<pdfrwt beam="2">  1       21 0.10003181E-01 0.17407689E+03</pdfrwt>
<totfact> 0.11649172E+03</totfact>
</mgrwt>
</event>
<event>
 4    1  0.3901757E+000  0.2174337E+03  0.7546771E-02  0.1135811E+00
         21   -1    0    0  503  502  0.00000000000E+00  0.00000000000E+00  0.54289314120E+03  0.54289314120E+03  0.00000000000E+00 0. -1.
         21   -1    0    0  501  503 -0.00000000000E+00 -0.00000000000E+00 -0.17352596498E+03  0.17352596498E+03  0.00000000000E+00 0.  1.
          6    1    1    2  501    0 -0.58586006849E+02  0.11796643724E+03 -0.68139545087E+02  0.22786047950E+03  0.17300000000E+03 0. -1.
         -6    1    1    2    0  502  0.58586006849E+02 -0.11796643724E+03  0.43750672131E+03  0.48855862668E+03  0.17300000000E+03 0. -1.
<mgrwt>
<rscale>  2 0.21743367E+03</rscale>
<asrwt>0</asrwt>
<pdfrwt beam="1">  1       21 0.83522021E-01 0.21743367E+03</pdfrwt>
<pdfrwt beam="2">  1       21 0.26696303E-01 0.21743367E+03</pdfrwt>
<totfact> 0.16405605E+04</totfact>
</mgrwt>
</event>
<event>
 4    1  0.3901757E+000  0.3895980E+03  0.7546771E-02  0.1047442E+00
         21   -1    0    0  501  502  0.00000000000E+00  0.00000000000E+00  0.14458743923E+04  0.14458743923E+04  0.00000000000E+00 0.  1.
         21   -1    0    0  502  503 -0.00000000000E+00 -0.00000000000E+00 -0.29407000162E+03  0.29407000162E+03  0.00000000000E+00 0.  1.
          6    1    1    2  501    0 -0.24372155283E+02  0.34822928458E+03  0.12735163642E+04  0.13317772210E+04  0.17300000000E+03 0.  1.
         -6    1    1    2    0  503  0.24372155283E+02 -0.34822928458E+03 -0.12171197346E+03  0.40816717295E+03  0.17300000000E+03 0.  1.
<mgrwt>
<rscale>  2 0.38959804E+03</rscale>
<asrwt>0</asrwt>
<pdfrwt beam="1">  1       21 0.22244221E+00 0.38959804E+03</pdfrwt>
<pdfrwt beam="2">  1       21 0.45241540E-01 0.38959804E+03</pdfrwt>
<totfact> 0.38325594E+02</totfact>
</mgrwt>
</event>
<event>
 4    1  0.3901757E+000  0.1934859E+03  0.7546771E-02  0.1155354E+00
         21   -1    0    0  503  502  0.00000000000E+00  0.00000000000E+00  0.32501578878E+02  0.32501578878E+02  0.00000000000E+00 0. -1.
         21   -1    0    0  501  503 -0.00000000000E+00 -0.00000000000E+00 -0.21741422296E+04  0.21741422296E+04  0.00000000000E+00 0. -1.
          6    1    1    2  501    0  0.53909056464E+02  0.67835110558E+02 -0.18273863033E+04  0.18376010149E+04  0.17300000000E+03 0. -1.
         -6    1    1    2    0  502 -0.53909056464E+02 -0.67835110558E+02 -0.31425434742E+03  0.36904279354E+03  0.17300000000E+03 0. -1.
<mgrwt>
<rscale>  2 0.19348589E+03</rscale>
<asrwt>0</asrwt>
<pdfrwt beam="1">  1       21 0.50002422E-02 0.19348589E+03</pdfrwt>
<pdfrwt beam="2">  1       21 0.33448347E+00 0.19348589E+03</pdfrwt>
<totfact> 0.57937785E+03</totfact>
</mgrwt>
</event>
<event>
 4    1  0.3901757E+000  0.1800410E+03  0.7546771E-02  0.1167763E+00
         21   -1    0    0  503  502  0.00000000000E+00  0.00000000000E+00  0.13788718383E+03  0.13788718383E+03  0.00000000000E+00 0.  1.
         21   -1    0    0  501  503 -0.00000000000E+00 -0.00000000000E+00 -0.33098323432E+03  0.33098323432E+03  0.00000000000E+00 0.  1.
          6    1    1    2  501    0 -0.10580048385E+02  0.48721739464E+02  0.29644244910E+02  0.18246513798E+03  0.17300000000E+03 0.  1.
         -6    1    1    2    0  502  0.10580048385E+02 -0.48721739464E+02 -0.22274029540E+03  0.28640528018E+03  0.17300000000E+03 0.  1.
<mgrwt>
<rscale>  2 0.18004095E+03</rscale>
<asrwt>0</asrwt>
<pdfrwt beam="1">  1       21 0.21213413E-01 0.18004095E+03</pdfrwt>
<pdfrwt beam="2">  1       21 0.50920497E-01 0.18004095E+03</pdfrwt>
<totfact> 0.76222732E+04</totfact>
</mgrwt>
</event>
<event>
 4    1  0.3901757E+000  0.2002683E+03  0.7546771E-02  0.1149513E+00
         21   -1    0    0  503  502  0.00000000000E+00  0.00000000000E+00  0.79886088514E+02  0.79886088514E+02  0.00000000000E+00 0. -1.
         21   -1    0    0  501  503 -0.00000000000E+00 -0.00000000000E+00 -0.50642212138E+03  0.50642212138E+03  0.00000000000E+00 0.  1.
          6    1    1    2  501    0 -0.85190904623E+02  0.54045230326E+02 -0.18605145107E+03  0.27335420172E+03  0.17300000000E+03 0.  1.
         -6    1    1    2    0  502  0.85190904623E+02 -0.54045230326E+02 -0.24048458179E+03  0.31295400817E+03  0.17300000000E+03 0.  1.
<mgrwt>
<rscale>  2 0.20026826E+03</rscale>
<asrwt>0</asrwt>
<pdfrwt beam="1">  1       21 0.12290168E-01 0.20026826E+03</pdfrwt>
<pdfrwt beam="2">  1       21 0.77911095E-01 0.20026826E+03</pdfrwt>
<totfact> 0.81806179E+04</totfact>
</mgrwt>
</event>
<event>
 4    1  0.3901757E+000  0.1782802E+03  0.7546771E-02  0.1169478E+00
         21   -1    0    0  503  502  0.00000000000E+00  0.00000000000E+00  0.56022149575E+03  0.56022149575E+03  0.00000000000E+00 0. -1.
         21   -1    0    0  501  503 -0.00000000000E+00 -0.00000000000E+00 -0.79184465538E+02  0.79184465538E+02  0.00000000000E+00 0. -1.
          6    1    1    2  501    0 -0.34327561587E+02  0.26008349721E+02  0.70288651724E+02  0.19163587947E+03  0.17300000000E+03 0.  1.
         -6    1    1    2    0  502  0.34327561587E+02 -0.26008349721E+02  0.41074837849E+03  0.44777008182E+03  0.17300000000E+03 0.  1.
<mgrwt>
<rscale>  2 0.17828016E+03</rscale>
<asrwt>0</asrwt>
<pdfrwt beam="1">  1       21 0.86187920E-01 0.17828016E+03</pdfrwt>
<pdfrwt beam="2">  1       21 0.12182226E-01 0.17828016E+03</pdfrwt>
<totfact> 0.66734739E+04</totfact>
</mgrwt>
</event>
<event>
 4    1  0.3901757E+000  0.2839338E+03  0.7546771E-02  0.1093560E+00
         21   -1    0    0  503  502  0.00000000000E+00  0.00000000000E+00  0.22639958098E+03  0.22639958098E+03  0.00000000000E+00 0. -1.
         21   -1    0    0  501  503 -0.00000000000E+00 -0.00000000000E+00 -0.38954928541E+03  0.38954928541E+03  0.00000000000E+00 0.  1.
          6    1    1    2  501    0  0.19897926320E+03 -0.10534056392E+03  0.86858728710E+01  0.28406658723E+03  0.17300000000E+03 0.  1.
         -6    1    1    2    0  502 -0.19897926320E+03  0.10534056392E+03 -0.17183557730E+03  0.33188227916E+03  0.17300000000E+03 0.  1.
<mgrwt>
<rscale>  2 0.28393376E+03</rscale>
<asrwt>0</asrwt>
<pdfrwt beam="1">  1       21 0.34830705E-01 0.28393376E+03</pdfrwt>
<pdfrwt beam="2">  1       21 0.59930659E-01 0.28393376E+03</pdfrwt>
<totfact> 0.19698441E+04</totfact>
</mgrwt>
</event>
<event>
 4    1  0.3901757E+000  0.2236909E+03  0.7546771E-02  0.1131161E+00
         21   -1    0    0  501  502  0.00000000000E+00  0.00000000000E+00  0.13653873676E+04  0.13653873676E+04  0.00000000000E+00 0.  1.
         21   -1    0    0  502  503 -0.00000000000E+00 -0.00000000000E+00 -0.55838530689E+02  0.55838530689E+02  0.00000000000E+00 0.  1.
          6    1    1    2  501    0 -0.13710121145E+03  0.36220050582E+02  0.10713737658E+04  0.10944767610E+04  0.17300000000E+03 0.  1.
         -6    1    1    2    0  503  0.13710121145E+03 -0.36220050582E+02  0.23817507112E+03  0.32674913734E+03  0.17300000000E+03 0.  1.
<mgrwt>
<rscale>  2 0.22369093E+03</rscale>
<asrwt>0</asrwt>
<pdfrwt beam="1">  1       21 0.21005957E+00 0.22369093E+03</pdfrwt>
<pdfrwt beam="2">  1       21 0.85905443E-02 0.22369093E+03</pdfrwt>
<totfact> 0.11985310E+04</totfact>
</mgrwt>
</event>
<event>
 4    1  0.3901757E+000  0.4550196E+03  0.7546771E-02  0.1026236E+00
         21   -1    0    0  501  502  0.00000000000E+00  0.00000000000E+00  0.52931839907E+03  0.52931839907E+03  0.00000000000E+00 0. -1.
         21   -1    0    0  502  503 -0.00000000000E+00 -0.00000000000E+00 -0.42790258948E+03  0.42790258948E+03  0.00000000000E+00 0.  1.
          6    1    1    2  501    0  0.35453012867E+03 -0.22676464272E+03  0.19097460654E+03  0.49347149428E+03  0.17300000000E+03 0. -1.
         -6    1    1    2    0  503 -0.35453012867E+03  0.22676464272E+03 -0.89558796954E+02  0.46374949427E+03  0.17300000000E+03 0.  1.
<mgrwt>
<rscale>  2 0.45501958E+03</rscale>
<asrwt>0</asrwt>
<pdfrwt beam="1">  1       21 0.81433600E-01 0.45501958E+03</pdfrwt>
<pdfrwt beam="2">  1       21 0.65831168E-01 0.45501958E+03</pdfrwt>
<totfact> 0.24236780E+03</totfact>
</mgrwt>
</event>
<event>
 4    1  0.3901757E+000  0.2093433E+03  0.7546771E-02  0.1142087E+00
         21   -1    0    0  503  502  0.00000000000E+00  0.00000000000E+00  0.21563921222E+03  0.21563921222E+03  0.00000000000E+00 0. -1.
         21   -1    0    0  501  503 -0.00000000000E+00 -0.00000000000E+00 -0.32598491832E+03  0.32598491832E+03  0.00000000000E+00 0. -1.
          6    1    1    2  501    0 -0.11439501381E+03 -0.28450092777E+02 -0.22135581385E+03  0.30466871071E+03  0.17300000000E+03 0. -1.
         -6    1    1    2    0  502  0.11439501381E+03  0.28450092777E+02  0.11101010774E+03  0.23695541983E+03  0.17300000000E+03 0. -1.
<mgrwt>
<rscale>  2 0.20934332E+03</rscale>
<asrwt>0</asrwt>
<pdfrwt beam="1">  1       21 0.33175263E-01 0.20934332E+03</pdfrwt>
<pdfrwt beam="2">  1       21 0.50151526E-01 0.20934332E+03</pdfrwt>
<totfact> 0.32832266E+04</totfact>
</mgrwt>
</event>
<event>
 4    1  0.3901757E+000  0.2220994E+03  0.7546771E-02  0.1132327E+00
         21   -1    0    0  501  502  0.00000000000E+00  0.00000000000E+00  0.89528690627E+03  0.89528690627E+03  0.00000000000E+00 0. -1.
         21   -1    0    0  502  503 -0.00000000000E+00 -0.00000000000E+00 -0.55704786735E+02  0.55704786735E+02  0.00000000000E+00 0.  1.
          6    1    1    2  501    0 -0.12230189857E+03  0.66643806311E+02  0.37014725994E+03  0.43166786463E+03  0.17300000000E+03 0.  1.
         -6    1    1    2    0  503  0.12230189857E+03 -0.66643806311E+02  0.46943485960E+03  0.51932382837E+03  0.17300000000E+03 0. -1.
<mgrwt>
<rscale>  2 0.22209942E+03</rscale>
<asrwt>0</asrwt>
<pdfrwt beam="1">  1       21 0.13773644E+00 0.22209942E+03</pdfrwt>
<pdfrwt beam="2">  1       21 0.85699679E-02 0.22209942E+03</pdfrwt>
<totfact> 0.39067194E+04</totfact>
</mgrwt>
</event>
<event>
 4    1  0.3901757E+000  0.2317700E+03  0.7546771E-02  0.1125400E+00
         21   -1    0    0  503  502  0.00000000000E+00  0.00000000000E+00  0.11165312301E+04  0.11165312301E+04  0.00000000000E+00 0.  1.
         21   -1    0    0  501  503 -0.00000000000E+00 -0.00000000000E+00 -0.53465588385E+03  0.53465588385E+03  0.00000000000E+00 0.  1.
          6    1    1    2  501    0 -0.11240564750E+03 -0.10560917861E+03 -0.49663496077E+03  0.54805438823E+03  0.17300000000E+03 0.  1.
         -6    1    1    2    0  502  0.11240564750E+03  0.10560917861E+03  0.10785103071E+04  0.11031327258E+04  0.17300000000E+03 0.  1.
<mgrwt>
<rscale>  2 0.23176999E+03</rscale>
<asrwt>0</asrwt>
<pdfrwt beam="1">  1       21 0.17177403E+00 0.23176999E+03</pdfrwt>
<pdfrwt beam="2">  1       21 0.82254752E-01 0.23176999E+03</pdfrwt>
<totfact> 0.25580084E+02</totfact>
</mgrwt>
</event>
<event>
 4    1  0.3901757E+000  0.1815952E+03  0.7546771E-02  0.1166268E+00
         21   -1    0    0  503  502  0.00000000000E+00  0.00000000000E+00  0.95492910097E+03  0.95492910097E+03  0.00000000000E+00 0.  1.
         21   -1    0    0  501  503 -0.00000000000E+00 -0.00000000000E+00 -0.72360725655E+02  0.72360725655E+02  0.00000000000E+00 0.  1.
          6    1    1    2  501    0  0.49865079799E+02  0.23691601380E+02  0.69907072556E+02  0.19458627123E+03  0.17300000000E+03 0.  1.
         -6    1    1    2    0  502 -0.49865079799E+02 -0.23691601380E+02  0.81266130276E+03  0.83270355539E+03  0.17300000000E+03 0.  1.
<mgrwt>
<rscale>  2 0.18159520E+03</rscale>
<asrwt>0</asrwt>
<pdfrwt beam="1">  1       21 0.14691216E+00 0.18159520E+03</pdfrwt>
<pdfrwt beam="2">  1       21 0.11132420E-01 0.18159520E+03</pdfrwt>
<totfact> 0.21334351E+04</totfact>
</mgrwt>
</event>
<event>
 4    1  0.3901757E+000  0.2254962E+03  0.7546771E-02  0.1129850E+00
         21   -1    0    0  503  502  0.00000000000E+00  0.00000000000E+00  0.83625188369E+02  0.83625188369E+02  0.00000000000E+00 0. -1.
         21   -1    0    0  501  503 -0.00000000000E+00 -0.00000000000E+00 -0.13208593105E+04  0.13208593105E+04  0.00000000000E+00 0.  1.
          6    1    1    2  501    0 -0.14364506934E+03  0.16900871601E+02 -0.11344920187E+04  0.11566852147E+04  0.17300000000E+03 0.  1.
         -6    1    1    2    0  502  0.14364506934E+03 -0.16900871601E+02 -0.10274210339E+03  0.24779928413E+03  0.17300000000E+03 0. -1.
<mgrwt>
<rscale>  2 0.22549622E+03</rscale>
<asrwt>0</asrwt>
<pdfrwt beam="1">  1       21 0.12865413E-01 0.22549622E+03</pdfrwt>
<pdfrwt beam="2">  1       21 0.20320913E+00 0.22549622E+03</pdfrwt>
<totfact> 0.64495470E+03</totfact>
</mgrwt>
</event>
<event>
 4    1  0.3901757E+000  0.3032822E+03  0.7546771E-02  0.1083611E+00
         21   -1    0    0  501  502  0.00000000000E+00  0.00000000000E+00  0.60862278418E+03  0.60862278418E+03  0.00000000000E+00 0. -1.
         21   -1    0    0  502  503 -0.00000000000E+00 -0.00000000000E+00 -0.21262013077E+03  0.21262013077E+03  0.00000000000E+00 0. -1.
          6    1    1    2  501    0 -0.21223855046E+03 -0.13040671403E+03 -0.22823673151E+02  0.30413982544E+03  0.17300000000E+03 0. -1.
         -6    1    1    2    0  503  0.21223855046E+03  0.13040671403E+03  0.41882632656E+03  0.51710308951E+03  0.17300000000E+03 0. -1.
<mgrwt>
<rscale>  2 0.30328223E+03</rscale>
<asrwt>0</asrwt>
<pdfrwt beam="1">  1       21 0.93634274E-01 0.30328223E+03</pdfrwt>
<pdfrwt beam="2">  1       21 0.32710790E-01 0.30328223E+03</pdfrwt>
<totfact> 0.80753268E+03</totfact>
</mgrwt>
</event>
<event>
 4    1  0.3901757E+000  0.1912039E+03  0.7546771E-02  0.1157380E+00
         21   -1    0    0  501  502  0.00000000000E+00  0.00000000000E+00  0.66769196274E+02  0.66769196274E+02  0.00000000000E+00 0. -1.
         21   -1    0    0  502  503 -0.00000000000E+00 -0.00000000000E+00 -0.12204859355E+04  0.12204859355E+04  0.00000000000E+00 0. -1.
          6    1    1    2  501    0  0.47245481117E+02  0.66315744945E+02 -0.98935499989E+02  0.21528387462E+03  0.17300000000E+03 0. -1.
         -6    1    1    2    0  503 -0.47245481117E+02 -0.66315744945E+02 -0.10547812392E+04  0.10719712571E+04  0.17300000000E+03 0. -1.
<mgrwt>
<rscale>  2 0.19120385E+03</rscale>
<asrwt>0</asrwt>
<pdfrwt beam="1">  1       21 0.10272185E-01 0.19120385E+03</pdfrwt>
<pdfrwt beam="2">  1       21 0.18776704E+00 0.19120385E+03</pdfrwt>
<totfact> 0.12501083E+04</totfact>
</mgrwt>
</event>
<event>
 4    1  0.3901757E+000  0.1768877E+03  0.7546771E-02  0.1170850E+00
         21   -1    0    0  503  502  0.00000000000E+00  0.00000000000E+00  0.12176741851E+03  0.12176741851E+03  0.00000000000E+00 0. -1.
         21   -1    0    0  501  503 -0.00000000000E+00 -0.00000000000E+00 -0.30206176324E+03  0.30206176324E+03  0.00000000000E+00 0. -1.
          6    1    1    2  501    0 -0.12269523584E+02 -0.34781019874E+02 -0.17203389927E+03  0.24674870425E+03  0.17300000000E+03 0. -1.
         -6    1    1    2    0  502  0.12269523584E+02  0.34781019874E+02 -0.82604454738E+01  0.17708047750E+03  0.17300000000E+03 0. -1.
<mgrwt>
<rscale>  2 0.17688771E+03</rscale>
<asrwt>0</asrwt>
<pdfrwt beam="1">  1       21 0.18733449E-01 0.17688771E+03</pdfrwt>
<pdfrwt beam="2">  1       21 0.46471040E-01 0.17688771E+03</pdfrwt>
<totfact> 0.11629698E+05</totfact>
</mgrwt>
</event>
<event>
 4    1  0.3901757E+000  0.2286844E+03  0.7546771E-02  0.1127569E+00
         21   -1    0    0  503  502  0.00000000000E+00  0.00000000000E+00  0.19643997109E+03  0.19643997109E+03  0.00000000000E+00 0.  1.
         21   -1    0    0  501  503 -0.00000000000E+00 -0.00000000000E+00 -0.55602268641E+03  0.55602268641E+03  0.00000000000E+00 0.  1.
          6    1    1    2  501    0  0.12136776361E+03 -0.87392212748E+02 -0.45140952934E+03  0.50603072641E+03  0.17300000000E+03 0.  1.
         -6    1    1    2    0  502 -0.12136776361E+03  0.87392212748E+02  0.91826814015E+02  0.24643193110E+03  0.17300000000E+03 0.  1.
<mgrwt>
<rscale>  2 0.22868435E+03</rscale>
<asrwt>0</asrwt>
<pdfrwt beam="1">  1       21 0.30221535E-01 0.22868435E+03</pdfrwt>
<pdfrwt beam="2">  1       21 0.85541949E-01 0.22868435E+03</pdfrwt>
<totfact> 0.12122518E+04</totfact>
</mgrwt>
</event>
<event>
 4    1  0.3901757E+000  0.1742258E+03  0.7546771E-02  0.1173511E+00
         21   -1    0    0  503  502  0.00000000000E+00  0.00000000000E+00  0.11073531629E+03  0.11073531629E+03  0.00000000000E+00 0. -1.
         21   -1    0    0  501  503 -0.00000000000E+00 -0.00000000000E+00 -0.28277608036E+03  0.28277608036E+03  0.00000000000E+00 0. -1.
          6    1    1    2  501    0 -0.19794022660E+02  0.58170826018E+01 -0.12044701214E+03  0.21180680942E+03  0.17300000000E+03 0. -1.
         -6    1    1    2    0  502  0.19794022660E+02 -0.58170826018E+01 -0.51593751929E+02  0.18170458723E+03  0.17300000000E+03 0. -1.
<mgrwt>
<rscale>  2 0.17422584E+03</rscale>
<asrwt>0</asrwt>
<pdfrwt beam="1">  1       21 0.17036202E-01 0.17422584E+03</pdfrwt>
<pdfrwt beam="2">  1       21 0.43504012E-01 0.17422584E+03</pdfrwt>
<totfact> 0.15874695E+05</totfact>
</mgrwt>
</event>
<event>
 4    1  0.3901757E+000  0.2467936E+03  0.7546771E-02  0.1115348E+00
         21   -1    0    0  501  502  0.00000000000E+00  0.00000000000E+00  0.28199278937E+03  0.28199278937E+03  0.00000000000E+00 0. -1.
         21   -1    0    0  502  503 -0.00000000000E+00 -0.00000000000E+00 -0.26119254678E+03  0.26119254678E+03  0.00000000000E+00 0.  1.
          6    1    1    2  501    0 -0.10136092873E+03 -0.14388900043E+03  0.12338707694E+03  0.27591928725E+03  0.17300000000E+03 0. -1.
         -6    1    1    2    0  503  0.10136092873E+03  0.14388900043E+03 -0.10258683435E+03  0.26726604891E+03  0.17300000000E+03 0.  1.
<mgrwt>
<rscale>  2 0.24679360E+03</rscale>
<asrwt>0</asrwt>
<pdfrwt beam="1">  1       21 0.43383506E-01 0.24679360E+03</pdfrwt>
<pdfrwt beam="2">  1       21 0.40183469E-01 0.24679360E+03</pdfrwt>
<totfact> 0.29660016E+04</totfact>
</mgrwt>
</event>
<event>
 4    1  0.3901757E+000  0.1788893E+03  0.7546771E-02  0.1168882E+00
         21   -1    0    0  501  502  0.00000000000E+00  0.00000000000E+00  0.66810065568E+03  0.66810065568E+03  0.00000000000E+00 0.  1.
         21   -1    0    0  502  503 -0.00000000000E+00 -0.00000000000E+00 -0.11602979847E+03  0.11602979847E+03  0.00000000000E+00 0.  1.
          6    1    1    2  501    0  0.24896711421E+02 -0.38112072186E+02  0.57646673515E+03  0.60358534858E+03  0.17300000000E+03 0.  1.
         -6    1    1    2    0  503 -0.24896711421E+02  0.38112072186E+02 -0.24395877936E+02  0.18054510557E+03  0.17300000000E+03 0.  1.
<mgrwt>
<rscale>  2 0.17888928E+03</rscale>
<asrwt>0</asrwt>
<pdfrwt beam="1">  1       21 0.10278471E+00 0.17888928E+03</pdfrwt>
<pdfrwt beam="2">  1       21 0.17850739E-01 0.17888928E+03</pdfrwt>
<totfact> 0.22107441E+04</totfact>
</mgrwt>
</event>
<event>
 4    1  0.3901757E+000  0.2238349E+03  0.7546771E-02  0.1131056E+00
         21   -1    0    0  503  502  0.00000000000E+00  0.00000000000E+00  0.26610325461E+03  0.26610325461E+03  0.00000000000E+00 0. -1.
         21   -1    0    0  501  503 -0.00000000000E+00 -0.00000000000E+00 -0.21300248786E+03  0.21300248786E+03  0.00000000000E+00 0.  1.
          6    1    1    2  501    0  0.11826308714E+03 -0.78656985692E+02 -0.55060842287E+02  0.23050764745E+03  0.17300000000E+03 0.  1.
         -6    1    1    2    0  502 -0.11826308714E+03  0.78656985692E+02  0.10816160904E+03  0.24859809502E+03  0.17300000000E+03 0.  1.
<mgrwt>
<rscale>  2 0.22383494E+03</rscale>
<asrwt>0</asrwt>
<pdfrwt beam="1">  1       21 0.40938962E-01 0.22383494E+03</pdfrwt>
<pdfrwt beam="2">  1       21 0.32769614E-01 0.22383494E+03</pdfrwt>
<totfact> 0.50769207E+04</totfact>
</mgrwt>
</event>
<event>
 4    1  0.3901757E+000  0.2123269E+03  0.7546771E-02  0.1139736E+00
         21   -1    0    0  503  502  0.00000000000E+00  0.00000000000E+00  0.52384073406E+03  0.52384073406E+03  0.00000000000E+00 0. -1.
         21   -1    0    0  501  503 -0.00000000000E+00 -0.00000000000E+00 -0.11212648532E+03  0.11212648532E+03  0.00000000000E+00 0.  1.
          6    1    1    2  501    0 -0.41830685019E+02  0.11577524033E+03  0.52545070749E+02  0.21873202084E+03  0.17300000000E+03 0.  1.
         -6    1    1    2    0  502  0.41830685019E+02 -0.11577524033E+03  0.35916917799E+03  0.41723519854E+03  0.17300000000E+03 0. -1.
<mgrwt>
<rscale>  2 0.21232690E+03</rscale>
<asrwt>0</asrwt>
<pdfrwt beam="1">  1       21 0.80590881E-01 0.21232690E+03</pdfrwt>
<pdfrwt beam="2">  1       21 0.17250229E-01 0.21232690E+03</pdfrwt>
<totfact> 0.40663046E+04</totfact>
</mgrwt>
</event>
<event>
 4    1  0.3901757E+000  0.2204521E+03  0.7546771E-02  0.1133546E+00
         21   -1    0    0  501  502  0.00000000000E+00  0.00000000000E+00  0.16181237499E+04  0.16181237499E+04  0.00000000000E+00 0.  1.
         21   -1    0    0  502  503 -0.00000000000E+00 -0.00000000000E+00 -0.17233856703E+03  0.17233856703E+03  0.00000000000E+00 0.  1.
          6    1    1    2  501    0 -0.38015866429E+02 -0.13124381195E+03  0.15363840135E+04  0.15521195125E+04  0.17300000000E+03 0.  1.
         -6    1    1    2    0  503  0.38015866429E+02  0.13124381195E+03 -0.90598830652E+02  0.23834280436E+03  0.17300000000E+03 0.  1.
<mgrwt>
<rscale>  2 0.22045214E+03</rscale>
<asrwt>0</asrwt>
<pdfrwt beam="1">  1       21 0.24894210E+00 0.22045214E+03</pdfrwt>
<pdfrwt beam="2">  1       21 0.26513627E-01 0.22045214E+03</pdfrwt>
<totfact> 0.88344043E+02</totfact>
</mgrwt>
</event>
<event>
 4    1  0.3901757E+000  0.2224130E+03  0.7546771E-02  0.1132097E+00
         21   -1    0    0  503  502  0.00000000000E+00  0.00000000000E+00  0.53101399071E+02  0.53101399071E+02  0.00000000000E+00 0. -1.
         21   -1    0    0  501  503 -0.00000000000E+00 -0.00000000000E+00 -0.94427296059E+03  0.94427296059E+03  0.00000000000E+00 0. -1.
          6    1    1    2  501    0  0.13222640896E+03 -0.45328991822E+02 -0.50343181903E+03  0.55037363412E+03  0.17300000000E+03 0. -1.
         -6    1    1    2    0  502 -0.13222640896E+03  0.45328991822E+02 -0.38773974249E+03  0.44700072554E+03  0.17300000000E+03 0. -1.
<mgrwt>
<rscale>  2 0.22241300E+03</rscale>
<asrwt>0</asrwt>
<pdfrwt beam="1">  1       21 0.81694474E-02 0.22241300E+03</pdfrwt>
<pdfrwt beam="2">  1       21 0.14527274E+00 0.22241300E+03</pdfrwt>
<totfact> 0.36971282E+04</totfact>
</mgrwt>
</event>
<event>
 4    1  0.3901757E+000  0.1781997E+03  0.7546771E-02  0.1169557E+00
         21   -1    0    0  501  502  0.00000000000E+00  0.00000000000E+00  0.36330010710E+03  0.36330010710E+03  0.00000000000E+00 0. -1.
         21   -1    0    0  502  503 -0.00000000000E+00 -0.00000000000E+00 -0.10685889973E+03  0.10685889973E+03  0.00000000000E+00 0. -1.
          6    1    1    2  501    0  0.39456813516E+02  0.16410397081E+02  0.22851697937E+03  0.28978466337E+03  0.17300000000E+03 0. -1.
         -6    1    1    2    0  503 -0.39456813516E+02 -0.16410397081E+02  0.27924227998E+02  0.18037434345E+03  0.17300000000E+03 0. -1.
<mgrwt>
<rscale>  2 0.17819972E+03</rscale>
<asrwt>0</asrwt>
<pdfrwt beam="1">  1       21 0.55892323E-01 0.17819972E+03</pdfrwt>
<pdfrwt beam="2">  1       21 0.16439831E-01 0.17819972E+03</pdfrwt>
<totfact> 0.10057177E+05</totfact>
</mgrwt>
</event>
<event>
 4    1  0.3901757E+000  0.2028155E+03  0.7546771E-02  0.1147385E+00
         21   -1    0    0  501  502  0.00000000000E+00  0.00000000000E+00  0.94454820297E+02  0.94454820297E+02  0.00000000000E+00 0.  1.
         21   -1    0    0  502  503 -0.00000000000E+00 -0.00000000000E+00 -0.54324963242E+03  0.54324963242E+03  0.00000000000E+00 0. -1.
          6    1    1    2  501    0  0.37131168494E+02  0.99128296564E+02 -0.82387871825E+02  0.21891072216E+03  0.17300000000E+03 0.  1.
         -6    1    1    2    0  503 -0.37131168494E+02 -0.99128296564E+02 -0.36640694030E+03  0.41879373055E+03  0.17300000000E+03 0. -1.
<mgrwt>
<rscale>  2 0.20281554E+03</rscale>
<asrwt>0</asrwt>
<pdfrwt beam="1">  1       21 0.14531511E-01 0.20281554E+03</pdfrwt>
<pdfrwt beam="2">  1       21 0.83576866E-01 0.20281554E+03</pdfrwt>
<totfact> 0.51493965E+04</totfact>
</mgrwt>
</event>
<event>
 4    1  0.3901757E+000  0.2302980E+03  0.7546771E-02  0.1126430E+00
         21   -1    0    0  501  502  0.00000000000E+00  0.00000000000E+00  0.78518235839E+03  0.78518235839E+03  0.00000000000E+00 0.  1.
         21   -1    0    0  502  503 -0.00000000000E+00 -0.00000000000E+00 -0.12364118973E+03  0.12364118973E+03  0.00000000000E+00 0.  1.
          6    1    1    2  501    0 -0.11212753419E+03 -0.10264293665E+03  0.63684338707E+03  0.67720503249E+03  0.17300000000E+03 0.  1.
         -6    1    1    2    0  503  0.11212753419E+03  0.10264293665E+03  0.24697781589E+02  0.23161851563E+03  0.17300000000E+03 0.  1.
<mgrwt>
<rscale>  2 0.23029797E+03</rscale>
<asrwt>0</asrwt>
<pdfrwt beam="1">  1       21 0.12079728E+00 0.23029797E+03</pdfrwt>
<pdfrwt beam="2">  1       21 0.19021722E-01 0.23029797E+03</pdfrwt>
<totfact> 0.12845082E+04</totfact>
</mgrwt>
</event>
<event>
 4    1  0.3901757E+000  0.2679831E+03  0.7546771E-02  0.1102439E+00
         21   -1    0    0  501  502  0.00000000000E+00  0.00000000000E+00  0.33406403726E+03  0.33406403726E+03  0.00000000000E+00 0.  1.
         21   -1    0    0  502  503 -0.00000000000E+00 -0.00000000000E+00 -0.26845185779E+03  0.26845185779E+03  0.00000000000E+00 0. -1.
          6    1    1    2  501    0 -0.18552499518E+03  0.86408485720E+02  0.16726633921E+03  0.31590026666E+03  0.17300000000E+03 0.  1.
         -6    1    1    2    0  503  0.18552499518E+03 -0.86408485720E+02 -0.10165415974E+03  0.28661562839E+03  0.17300000000E+03 0. -1.
<mgrwt>
<rscale>  2 0.26798312E+03</rscale>
<asrwt>0</asrwt>
<pdfrwt beam="1">  1       21 0.51394467E-01 0.26798312E+03</pdfrwt>
<pdfrwt beam="2">  1       21 0.41300286E-01 0.26798312E+03</pdfrwt>
<totfact> 0.19519838E+04</totfact>
</mgrwt>
</event>
<event>
 4    1  0.3901757E+000  0.2457674E+03  0.7546771E-02  0.1116009E+00
         21   -1    0    0  503  502  0.00000000000E+00  0.00000000000E+00  0.64245417212E+02  0.64245417212E+02  0.00000000000E+00 0. -1.
         21   -1    0    0  501  503 -0.00000000000E+00 -0.00000000000E+00 -0.94629122681E+03  0.94629122681E+03  0.00000000000E+00 0. -1.
          6    1    1    2  501    0  0.16074752214E+03  0.68065108826E+02 -0.48166001509E+03  0.54073837949E+03  0.17300000000E+03 0. -1.
         -6    1    1    2    0  502 -0.16074752214E+03 -0.68065108826E+02 -0.40038579451E+03  0.46979826453E+03  0.17300000000E+03 0. -1.
<mgrwt>
<rscale>  2 0.24576742E+03</rscale>
<asrwt>0</asrwt>
<pdfrwt beam="1">  1       21 0.98839106E-02 0.24576742E+03</pdfrwt>
<pdfrwt beam="2">  1       21 0.14558326E+00 0.24576742E+03</pdfrwt>
<totfact> 0.25959210E+04</totfact>
</mgrwt>
</event>
<event>
 4    1  0.3901757E+000  0.1748939E+03  0.7546771E-02  0.1172838E+00
         21   -1    0    0  503  502  0.00000000000E+00  0.00000000000E+00  0.97923230230E+03  0.97923230230E+03  0.00000000000E+00 0. -1.
         21   -1    0    0  501  503 -0.00000000000E+00 -0.00000000000E+00 -0.41250307470E+02  0.41250307470E+02  0.00000000000E+00 0. -1.
          6    1    1    2  501    0  0.17564044691E+02 -0.18718201099E+02  0.21759408873E+03  0.27916850498E+03  0.17300000000E+03 0. -1.
         -6    1    1    2    0  502 -0.17564044691E+02  0.18718201099E+02  0.72038790609E+03  0.74131410479E+03  0.17300000000E+03 0. -1.
<mgrwt>
<rscale>  2 0.17489387E+03</rscale>
<asrwt>0</asrwt>
<pdfrwt beam="1">  1       21 0.15065111E+00 0.17489387E+03</pdfrwt>
<pdfrwt beam="2">  1       21 0.63462019E-02 0.17489387E+03</pdfrwt>
<totfact> 0.53454563E+04</totfact>
</mgrwt>
</event>
<event>
 4    1  0.3901757E+000  0.1932859E+03  0.7546771E-02  0.1155531E+00
         21   -1    0    0  503  502  0.00000000000E+00  0.00000000000E+00  0.26262190142E+03  0.26262190142E+03  0.00000000000E+00 0. -1.
         21   -1    0    0  501  503 -0.00000000000E+00 -0.00000000000E+00 -0.26832608602E+03  0.26832608602E+03  0.00000000000E+00 0. -1.
          6    1    1    2  501    0 -0.86190692083E+02 -0.12642645150E+01 -0.18482103205E+03  0.26742895814E+03  0.17300000000E+03 0. -1.
         -6    1    1    2    0  502  0.86190692083E+02  0.12642645150E+01  0.17911684744E+03  0.26351902930E+03  0.17300000000E+03 0. -1.
<mgrwt>
<rscale>  2 0.19328589E+03</rscale>
<asrwt>0</asrwt>
<pdfrwt beam="1">  1       21 0.40403370E-01 0.19328589E+03</pdfrwt>
<pdfrwt beam="2">  1       21 0.41280936E-01 0.19328589E+03</pdfrwt>
<totfact> 0.33346824E+04</totfact>
</mgrwt>
</event>
<event>
 4    1  0.3901757E+000  0.2202853E+03  0.7546771E-02  0.1133670E+00
         21   -1    0    0  503  502  0.00000000000E+00  0.00000000000E+00  0.96330073547E+03  0.96330073547E+03  0.00000000000E+00 0.  1.
         21   -1    0    0  501  503 -0.00000000000E+00 -0.00000000000E+00 -0.55787013929E+02  0.55787013929E+02  0.00000000000E+00 0.  1.
          6    1    1    2  501    0 -0.39363969729E+02  0.13056458612E+03  0.29504068553E+03  0.36820461618E+03  0.17300000000E+03 0.  1.
         -6    1    1    2    0  502  0.39363969729E+02 -0.13056458612E+03  0.61247303601E+03  0.65088313321E+03  0.17300000000E+03 0.  1.
<mgrwt>
<rscale>  2 0.22028535E+03</rscale>
<asrwt>0</asrwt>
<pdfrwt beam="1">  1       21 0.14820010E+00 0.22028535E+03</pdfrwt>
<pdfrwt beam="2">  1       21 0.85826182E-02 0.22028535E+03</pdfrwt>
<totfact> 0.32215536E+04</totfact>
</mgrwt>
</event>
<event>
 4    1  0.3901757E+000  0.2482770E+03  0.7546771E-02  0.1114399E+00
         21   -1    0    0  503  502  0.00000000000E+00  0.00000000000E+00  0.62534854016E+02  0.62534854016E+02  0.00000000000E+00 0. -1.
         21   -1    0    0  501  503 -0.00000000000E+00 -0.00000000000E+00 -0.13161204532E+04  0.13161204532E+04  0.00000000000E+00 0. -1.
          6    1    1    2  501    0 -0.10837960837E+03  0.14130229062E+03 -0.97217677764E+03  0.10033788735E+04  0.17300000000E+03 0. -1.
         -6    1    1    2    0  502  0.10837960837E+03 -0.14130229062E+03 -0.28140882154E+03  0.37527643369E+03  0.17300000000E+03 0. -1.
<mgrwt>
<rscale>  2 0.24827702E+03</rscale>
<asrwt>0</asrwt>
<pdfrwt beam="1">  1       21 0.96207474E-02 0.24827702E+03</pdfrwt>
<pdfrwt beam="2">  1       21 0.20248006E+00 0.24827702E+03</pdfrwt>
<totfact> 0.10782825E+04</totfact>
</mgrwt>
</event>
<event>
 4    1  0.3901757E+000  0.2197208E+03  0.7546771E-02  0.1134091E+00
         21   -1    0    0  503  502  0.00000000000E+00  0.00000000000E+00  0.27259691318E+02  0.27259691318E+02  0.00000000000E+00 0.  1.
         21   -1    0    0  501  503 -0.00000000000E+00 -0.00000000000E+00 -0.17901430033E+04  0.17901430033E+04  0.00000000000E+00 0.  1.
          6    1    1    2  501    0  0.13493548362E+03  0.11858508652E+02 -0.78749976734E+03  0.81757757585E+03  0.17300000000E+03 0.  1.
         -6    1    1    2    0  502 -0.13493548362E+03 -0.11858508652E+02 -0.97538354460E+03  0.99982511873E+03  0.17300000000E+03 0.  1.
<mgrwt>
<rscale>  2 0.21972075E+03</rscale>
<asrwt>0</asrwt>
<pdfrwt beam="1">  1       21 0.41937976E-02 0.21972075E+03</pdfrwt>
<pdfrwt beam="2">  1       21 0.27540668E+00 0.21972075E+03</pdfrwt>
<totfact> 0.16702765E+04</totfact>
</mgrwt>
</event>
<event>
 4    1  0.3901757E+000  0.1890513E+03  0.7546771E-02  0.1159320E+00
         21   -1    0    0  501  502  0.00000000000E+00  0.00000000000E+00  0.66722876269E+03  0.66722876269E+03  0.00000000000E+00 0.  1.
         21   -1    0    0  502  503 -0.00000000000E+00 -0.00000000000E+00 -0.53850018673E+02  0.53850018673E+02  0.00000000000E+00 0. -1.
          6    1    1    2  501    0 -0.16878919001E+01  0.76213802057E+02  0.28047907132E+03  0.33824384999E+03  0.17300000000E+03 0. -1.
         -6    1    1    2    0  503  0.16878919001E+01 -0.76213802057E+02  0.33289967269E+03  0.38283493138E+03  0.17300000000E+03 0.  1.
<mgrwt>
<rscale>  2 0.18905130E+03</rscale>
<asrwt>0</asrwt>
<pdfrwt beam="1">  1       21 0.10265057E+00 0.18905130E+03</pdfrwt>
<pdfrwt beam="2">  1       21 0.82846187E-02 0.18905130E+03</pdfrwt>
<totfact> 0.87225513E+04</totfact>
</mgrwt>
</event>
<event>
 4    1  0.3901757E+000  0.4012387E+03  0.7546771E-02  0.1043352E+00
         21   -1    0    0  503  502  0.00000000000E+00  0.00000000000E+00  0.21039446439E+03  0.21039446439E+03  0.00000000000E+00 0. -1.
         21   -1    0    0  501  503 -0.00000000000E+00 -0.00000000000E+00 -0.81478767852E+03  0.81478767852E+03  0.00000000000E+00 0. -1.
          6    1    1    2  501    0 -0.26255334559E+03 -0.24925741186E+03 -0.42865956266E+03  0.58714694694E+03  0.17300000000E+03 0. -1.
         -6    1    1    2    0  502  0.26255334559E+03  0.24925741186E+03 -0.17573365147E+03  0.43803519597E+03  0.17300000000E+03 0. -1.
<mgrwt>
<rscale>  2 0.40123873E+03</rscale>
<asrwt>0</asrwt>
<pdfrwt beam="1">  1       21 0.32368379E-01 0.40123873E+03</pdfrwt>
<pdfrwt beam="2">  1       21 0.12535195E+00 0.40123873E+03</pdfrwt>
<totfact> 0.38571361E+03</totfact>
</mgrwt>
</event>
<event>
 4    1  0.3901757E+000  0.2382308E+03  0.7546771E-02  0.1120977E+00
         21   -1    0    0  501  502  0.00000000000E+00  0.00000000000E+00  0.35026188331E+02  0.35026188331E+02  0.00000000000E+00 0. -1.
         21   -1    0    0  502  503 -0.00000000000E+00 -0.00000000000E+00 -0.20387046322E+04  0.20387046322E+04  0.00000000000E+00 0.  1.
          6    1    1    2  501    0 -0.16121427660E+03  0.28894414679E+02 -0.14715480225E+04  0.14907070513E+04  0.17300000000E+03 0.  1.
         -6    1    1    2    0  503  0.16121427660E+03 -0.28894414679E+02 -0.53213042138E+03  0.58302376927E+03  0.17300000000E+03 0.  1.
<mgrwt>
<rscale>  2 0.23823083E+03</rscale>
<asrwt>0</asrwt>
<pdfrwt beam="1">  1       21 0.53886447E-02 0.23823083E+03</pdfrwt>
<pdfrwt beam="2">  1       21 0.31364684E+00 0.23823083E+03</pdfrwt>
<totfact> 0.64293372E+03</totfact>
</mgrwt>
</event>
<event>
 4    1  0.3901757E+000  0.2404517E+03  0.7546771E-02  0.1119492E+00
         21   -1    0    0  503  502  0.00000000000E+00  0.00000000000E+00  0.18638748153E+03  0.18638748153E+03  0.00000000000E+00 0. -1.
         21   -1    0    0  501  503 -0.00000000000E+00 -0.00000000000E+00 -0.31576445799E+03  0.31576445799E+03  0.00000000000E+00 0. -1.
          6    1    1    2  501    0  0.80351042892E+02 -0.14639573508E+03 -0.98024814263E+02  0.25966491014E+03  0.17300000000E+03 0. -1.
         -6    1    1    2    0  502 -0.80351042892E+02  0.14639573508E+03 -0.31352162190E+02  0.24248702938E+03  0.17300000000E+03 0. -1.
<mgrwt>
<rscale>  2 0.24045166E+03</rscale>
<asrwt>0</asrwt>
<pdfrwt beam="1">  1       21 0.28674998E-01 0.24045166E+03</pdfrwt>
<pdfrwt beam="2">  1       21 0.48579147E-01 0.24045166E+03</pdfrwt>
<totfact> 0.46041691E+04</totfact>
</mgrwt>
</event>
<event>
 4    1  0.3901757E+000  0.1861834E+03  0.7546771E-02  0.1161949E+00
         21   -1    0    0  501  502  0.00000000000E+00  0.00000000000E+00  0.16919700355E+03  0.16919700355E+03  0.00000000000E+00 0.  1.
         21   -1    0    0  502  503 -0.00000000000E+00 -0.00000000000E+00 -0.23703190543E+03  0.23703190543E+03  0.00000000000E+00 0. -1.
          6    1    1    2  501    0  0.24076858211E+02 -0.64463613463E+02  0.40895001934E+02  0.19062175570E+03  0.17300000000E+03 0.  1.
         -6    1    1    2    0  503 -0.24076858211E+02  0.64463613463E+02 -0.10872990382E+03  0.21560715328E+03  0.17300000000E+03 0. -1.
<mgrwt>
<rscale>  2 0.18618338E+03</rscale>
<asrwt>0</asrwt>
<pdfrwt beam="1">  1       21 0.26030308E-01 0.18618338E+03</pdfrwt>
<pdfrwt beam="2">  1       21 0.36466447E-01 0.18618338E+03</pdfrwt>
<totfact> 0.10192452E+05</totfact>
</mgrwt>
</event>
<event>
 4    1  0.3901757E+000  0.2555448E+03  0.7546771E-02  0.1109850E+00
         21   -1    0    0  503  502  0.00000000000E+00  0.00000000000E+00  0.20612010363E+03  0.20612010363E+03  0.00000000000E+00 0. -1.
         21   -1    0    0  501  503 -0.00000000000E+00 -0.00000000000E+00 -0.36632291231E+03  0.36632291231E+03  0.00000000000E+00 0.  1.
          6    1    1    2  501    0  0.18701212649E+03 -0.20015664504E+02  0.25114534055E+02  0.25677597649E+03  0.17300000000E+03 0. -1.
         -6    1    1    2    0  502 -0.18701212649E+03  0.20015664504E+02 -0.18531734273E+03  0.31566703945E+03  0.17300000000E+03 0. -1.
<mgrwt>
<rscale>  2 0.25554483E+03</rscale>
<asrwt>0</asrwt>
<pdfrwt beam="1">  1       21 0.31710786E-01 0.25554483E+03</pdfrwt>
<pdfrwt beam="2">  1       21 0.56357370E-01 0.25554483E+03</pdfrwt>
<totfact> 0.27435404E+04</totfact>
</mgrwt>
</event>
<event>
 4    1  0.3901757E+000  0.2773268E+03  0.7546771E-02  0.1097158E+00
         21   -1    0    0  503  502  0.00000000000E+00  0.00000000000E+00  0.14777862967E+03  0.14777862967E+03  0.00000000000E+00 0.  1.
         21   -1    0    0  501  503 -0.00000000000E+00 -0.00000000000E+00 -0.63148293794E+03  0.63148293794E+03  0.00000000000E+00 0.  1.
          6    1    1    2  501    0 -0.18759116946E+03  0.10858511468E+03 -0.40523799990E+03  0.49104786992E+03  0.17300000000E+03 0.  1.
         -6    1    1    2    0  502  0.18759116946E+03 -0.10858511468E+03 -0.78466308368E+02  0.28821369769E+03  0.17300000000E+03 0.  1.
<mgrwt>
<rscale>  2 0.27732684E+03</rscale>
<asrwt>0</asrwt>
<pdfrwt beam="1">  1       21 0.22735174E-01 0.27732684E+03</pdfrwt>
<pdfrwt beam="2">  1       21 0.97151220E-01 0.27732684E+03</pdfrwt>
<totfact> 0.15208141E+04</totfact>
</mgrwt>
</event>
<event>
 4    1  0.3901757E+000  0.1891694E+03  0.7546771E-02  0.1159213E+00
         21   -1    0    0  503  502  0.00000000000E+00  0.00000000000E+00  0.61481920405E+03  0.61481920405E+03  0.00000000000E+00 0.  1.
         21   -1    0    0  501  503 -0.00000000000E+00 -0.00000000000E+00 -0.58214513163E+02  0.58214513163E+02  0.00000000000E+00 0. -1.
          6    1    1    2  501    0 -0.64066858853E+02 -0.41850956020E+02  0.28277963937E+03  0.34021961932E+03  0.17300000000E+03 0. -1.
         -6    1    1    2    0  502  0.64066858853E+02  0.41850956020E+02  0.27382505151E+03  0.33281409790E+03  0.17300000000E+03 0. -1.
<mgrwt>
<rscale>  2 0.18916941E+03</rscale>
<asrwt>0</asrwt>
<pdfrwt beam="1">  1       21 0.94587565E-01 0.18916941E+03</pdfrwt>
<pdfrwt beam="2">  1       21 0.89560794E-02 0.18916941E+03</pdfrwt>
<totfact> 0.92336290E+04</totfact>
</mgrwt>
</event>
<event>
 4    1  0.3901757E+000  0.1913301E+03  0.7546771E-02  0.1157267E+00
         21   -1    0    0  501  502  0.00000000000E+00  0.00000000000E+00  0.16256977437E+04  0.16256977437E+04  0.00000000000E+00 0.  1.
         21   -1    0    0  502  503 -0.00000000000E+00 -0.00000000000E+00 -0.43768342179E+02  0.43768342179E+02  0.00000000000E+00 0.  1.
          6    1    1    2  501    0  0.23113144475E+02  0.78383566805E+02  0.13726018805E+04  0.13858726938E+04  0.17300000000E+03 0.  1.
         -6    1    1    2    0  503 -0.23113144475E+02 -0.78383566805E+02  0.20932752104E+03  0.28359339213E+03  0.17300000000E+03 0.  1.
<mgrwt>
<rscale>  2 0.19133008E+03</rscale>
<asrwt>0</asrwt>
<pdfrwt beam="1">  1       21 0.25010730E+00 0.19133008E+03</pdfrwt>
<pdfrwt beam="2">  1       21 0.67335924E-02 0.19133008E+03</pdfrwt>
<totfact> 0.10752481E+04</totfact>
</mgrwt>
</event>
<event>
 4    1  0.3901757E+000  0.1960178E+03  0.7546771E-02  0.1153143E+00
         21   -1    0    0  501  502  0.00000000000E+00  0.00000000000E+00  0.72515720778E+03  0.72515720778E+03  0.00000000000E+00 0.  1.
         21   -1    0    0  502  503 -0.00000000000E+00 -0.00000000000E+00 -0.53959194706E+02  0.53959194706E+02  0.00000000000E+00 0.  1.
          6    1    1    2  501    0  0.91822236840E+02  0.79143419167E+01  0.38792375147E+03  0.43463524585E+03  0.17300000000E+03 0.  1.
         -6    1    1    2    0  503 -0.91822236840E+02 -0.79143419167E+01  0.28327426161E+03  0.34448115663E+03  0.17300000000E+03 0.  1.
<mgrwt>
<rscale>  2 0.19601775E+03</rscale>
<asrwt>0</asrwt>
<pdfrwt beam="1">  1       21 0.11156264E+00 0.19601775E+03</pdfrwt>
<pdfrwt beam="2">  1       21 0.83014151E-02 0.19601775E+03</pdfrwt>
<totfact> 0.70899190E+04</totfact>
</mgrwt>
</event>
<event>
 4    1  0.3901757E+000  0.2362469E+03  0.7546771E-02  0.1122319E+00
         21   -1    0    0  501  502  0.00000000000E+00  0.00000000000E+00  0.46214990159E+03  0.46214990159E+03  0.00000000000E+00 0.  1.
         21   -1    0    0  502  503 -0.00000000000E+00 -0.00000000000E+00 -0.14624810337E+03  0.14624810337E+03  0.00000000000E+00 0. -1.
          6    1    1    2  501    0 -0.16088378363E+03  0.11936185453E-01  0.28492621245E+03  0.37012908359E+03  0.17300000000E+03 0.  1.
         -6    1    1    2    0  503  0.16088378363E+03 -0.11936185453E-01  0.30975585777E+02  0.23826892138E+03  0.17300000000E+03 0. -1.
<mgrwt>
<rscale>  2 0.23624689E+03</rscale>
<asrwt>0</asrwt>
<pdfrwt beam="1">  1       21 0.71099984E-01 0.23624689E+03</pdfrwt>
<pdfrwt beam="2">  1       21 0.22499708E-01 0.23624689E+03</pdfrwt>
<totfact> 0.32390293E+04</totfact>
</mgrwt>
</event>
<event>
 4    1  0.3901757E+000  0.2856699E+03  0.7546771E-02  0.1092632E+00
         21   -1    0    0  501  502  0.00000000000E+00  0.00000000000E+00  0.18817810355E+03  0.18817810355E+03  0.00000000000E+00 0. -1.
         21   -1    0    0  502  503 -0.00000000000E+00 -0.00000000000E+00 -0.45285776401E+03  0.45285776401E+03  0.00000000000E+00 0. -1.
          6    1    1    2  501    0  0.88822123637E+02 -0.20925803853E+03 -0.66365087438E+02  0.29327737923E+03  0.17300000000E+03 0. -1.
         -6    1    1    2    0  503 -0.88822123637E+02  0.20925803853E+03 -0.19831457301E+03  0.34775848833E+03  0.17300000000E+03 0. -1.
<mgrwt>
<rscale>  2 0.28566991E+03</rscale>
<asrwt>0</asrwt>
<pdfrwt beam="1">  1       21 0.28950478E-01 0.28566991E+03</pdfrwt>
<pdfrwt beam="2">  1       21 0.69670424E-01 0.28566991E+03</pdfrwt>
<totfact> 0.20394723E+04</totfact>
</mgrwt>
</event>
<event>
 4    1  0.3901757E+000  0.1907407E+03  0.7546771E-02  0.1157795E+00
         21   -1    0    0  501  502  0.00000000000E+00  0.00000000000E+00  0.29815295020E+03  0.29815295020E+03  0.00000000000E+00 0.  1.
         21   -1    0    0  502  503 -0.00000000000E+00 -0.00000000000E+00 -0.13153321759E+03  0.13153321759E+03  0.00000000000E+00 0. -1.
          6    1    1    2  501    0  0.36802209431E+00  0.80329898763E+02  0.14107420076E+03  0.23724240387E+03  0.17300000000E+03 0.  1.
         -6    1    1    2    0  503 -0.36802209431E+00 -0.80329898763E+02  0.25545531848E+02  0.19244376392E+03  0.17300000000E+03 0. -1.
<mgrwt>
<rscale>  2 0.19074074E+03</rscale>
<asrwt>0</asrwt>
<pdfrwt beam="1">  1       21 0.45869684E-01 0.19074074E+03</pdfrwt>
<pdfrwt beam="2">  1       21 0.20235880E-01 0.19074074E+03</pdfrwt>
<totfact> 0.10295834E+05</totfact>
</mgrwt>
</event>
<event>
 4    1  0.3901757E+000  0.2393503E+03  0.7546771E-02  0.1120226E+00
         21   -1    0    0  501  502  0.00000000000E+00  0.00000000000E+00  0.79116576802E+03  0.79116576802E+03  0.00000000000E+00 0. -1.
         21   -1    0    0  502  503 -0.00000000000E+00 -0.00000000000E+00 -0.82087119649E+02  0.82087119649E+02  0.00000000000E+00 0.  1.
          6    1    1    2  501    0  0.15823186171E+03  0.48189554075E+02  0.50445212568E+03  0.55835517575E+03  0.17300000000E+03 0. -1.
         -6    1    1    2    0  503 -0.15823186171E+03 -0.48189554075E+02  0.20462652268E+03  0.31489771191E+03  0.17300000000E+03 0.  1.
<mgrwt>
<rscale>  2 0.23935028E+03</rscale>
<asrwt>0</asrwt>
<pdfrwt beam="1">  1       21 0.12171781E+00 0.23935028E+03</pdfrwt>
<pdfrwt beam="2">  1       21 0.12628788E-01 0.23935028E+03</pdfrwt>
<totfact> 0.26587902E+04</totfact>
</mgrwt>
</event>
<event>
 4    1  0.3901757E+000  0.2288209E+03  0.7546771E-02  0.1127472E+00
         21   -1    0    0  501  502  0.00000000000E+00  0.00000000000E+00  0.85738148347E+03  0.85738148347E+03  0.00000000000E+00 0.  1.
         21   -1    0    0  502  503 -0.00000000000E+00 -0.00000000000E+00 -0.84154117559E+02  0.84154117559E+02  0.00000000000E+00 0.  1.
          6    1    1    2  501    0  0.24148065907E+02  0.14780694995E+03  0.63318330399E+03  0.67326081127E+03  0.17300000000E+03 0.  1.
         -6    1    1    2    0  503 -0.24148065907E+02 -0.14780694995E+03  0.14004406193E+03  0.26827478976E+03  0.17300000000E+03 0.  1.
<mgrwt>
<rscale>  2 0.22882094E+03</rscale>
<asrwt>0</asrwt>
<pdfrwt beam="1">  1       21 0.13190484E+00 0.22882094E+03</pdfrwt>
<pdfrwt beam="2">  1       21 0.12946788E-01 0.22882094E+03</pdfrwt>
<totfact> 0.20866345E+04</totfact>
</mgrwt>
</event>
<event>
 4    1  0.3901757E+000  0.2013863E+03  0.7546771E-02  0.1148575E+00
         21   -1    0    0  503  502  0.00000000000E+00  0.00000000000E+00  0.23462717266E+02  0.23462717266E+02  0.00000000000E+00 0. -1.
         21   -1    0    0  501  503 -0.00000000000E+00 -0.00000000000E+00 -0.17304398141E+04  0.17304398141E+04  0.00000000000E+00 0. -1.
          6    1    1    2  501    0  0.10147944576E+03 -0.18148286247E+02 -0.82449435811E+03  0.84873281117E+03  0.17300000000E+03 0. -1.
         -6    1    1    2    0  502 -0.10147944576E+03  0.18148286247E+02 -0.88248273869E+03  0.90516972016E+03  0.17300000000E+03 0. -1.
<mgrwt>
<rscale>  2 0.20138629E+03</rscale>
<asrwt>0</asrwt>
<pdfrwt beam="1">  1       21 0.36096490E-02 0.20138629E+03</pdfrwt>
<pdfrwt beam="2">  1       21 0.26622150E+00 0.20138629E+03</pdfrwt>
<totfact> 0.24685405E+04</totfact>
</mgrwt>
</event>
<event>
 4    1  0.3901757E+000  0.2065209E+03  0.7546771E-02  0.1144351E+00
         21   -1    0    0  501  502  0.00000000000E+00  0.00000000000E+00  0.79767416107E+03  0.79767416107E+03  0.00000000000E+00 0. -1.
         21   -1    0    0  502  503 -0.00000000000E+00 -0.00000000000E+00 -0.62528023051E+02  0.62528023051E+02  0.00000000000E+00 0. -1.
          6    1    1    2  501    0 -0.10685040694E+03 -0.36123066607E+02  0.53128205023E+03  0.57001008965E+03  0.17300000000E+03 0. -1.
         -6    1    1    2    0  503  0.10685040694E+03  0.36123066607E+02  0.20386408780E+03  0.29019209448E+03  0.17300000000E+03 0. -1.
<mgrwt>
<rscale>  2 0.20652091E+03</rscale>
<asrwt>0</asrwt>
<pdfrwt beam="1">  1       21 0.12271909E+00 0.20652091E+03</pdfrwt>
<pdfrwt beam="2">  1       21 0.96196964E-02 0.20652091E+03</pdfrwt>
<totfact> 0.43070776E+04</totfact>
</mgrwt>
</event>
<event>
 4    1  0.3901757E+000  0.2030617E+03  0.7546771E-02  0.1147181E+00
         21   -1    0    0  503  502  0.00000000000E+00  0.00000000000E+00  0.37032319885E+03  0.37032319885E+03  0.00000000000E+00 0.  1.
         21   -1    0    0  501  503 -0.00000000000E+00 -0.00000000000E+00 -0.11137281081E+03  0.11137281081E+03  0.00000000000E+00 0. -1.
          6    1    1    2  501    0 -0.75122039234E+02 -0.75244534982E+02  0.13320190609E+03  0.24285141262E+03  0.17300000000E+03 0.  1.
         -6    1    1    2    0  502  0.75122039234E+02  0.75244534982E+02  0.12574848194E+03  0.23884459704E+03  0.17300000000E+03 0.  1.
<mgrwt>
<rscale>  2 0.20306172E+03</rscale>
<asrwt>0</asrwt>
<pdfrwt beam="1">  1       21 0.56972799E-01 0.20306172E+03</pdfrwt>
<pdfrwt beam="2">  1       21 0.17134279E-01 0.20306172E+03</pdfrwt>
<totfact> 0.88611051E+04</totfact>
</mgrwt>
</event>
<event>
 4    1  0.3901757E+000  0.2208857E+03  0.7546771E-02  0.1133224E+00
         21   -1    0    0  501  502  0.00000000000E+00  0.00000000000E+00  0.46228868938E+03  0.46228868938E+03  0.00000000000E+00 0.  1.
         21   -1    0    0  502  503 -0.00000000000E+00 -0.00000000000E+00 -0.31296952911E+03  0.31296952911E+03  0.00000000000E+00 0. -1.
          6    1    1    2  501    0  0.78299291588E+02  0.11283053106E+03  0.39023224602E+03  0.44841020688E+03  0.17300000000E+03 0.  1.
         -6    1    1    2    0  503 -0.78299291588E+02 -0.11283053106E+03 -0.24091308575E+03  0.32684801160E+03  0.17300000000E+03 0. -1.
<mgrwt>
<rscale>  2 0.22088573E+03</rscale>
<asrwt>0</asrwt>
<pdfrwt beam="1">  1       21 0.71121337E-01 0.22088573E+03</pdfrwt>
<pdfrwt beam="2">  1       21 0.48149158E-01 0.22088573E+03</pdfrwt>
<totfact> 0.72275506E+03</totfact>
</mgrwt>
</event>
<event>
 4    1  0.3901757E+000  0.2139497E+03  0.7546771E-02  0.1138476E+00
         21   -1    0    0  503  502  0.00000000000E+00  0.00000000000E+00  0.23192395210E+03  0.23192395210E+03  0.00000000000E+00 0.  1.
         21   -1    0    0  501  503 -0.00000000000E+00 -0.00000000000E+00 -0.28209105168E+03  0.28209105168E+03  0.00000000000E+00 0.  1.
          6    1    1    2  501    0  0.64547052166E+01  0.12571314500E+03 -0.16593162932E+03  0.27075406489E+03  0.17300000000E+03 0.  1.
         -6    1    1    2    0  502 -0.64547052166E+01 -0.12571314500E+03  0.11576452974E+03  0.24326093889E+03  0.17300000000E+03 0.  1.
<mgrwt>
<rscale>  2 0.21394966E+03</rscale>
<asrwt>0</asrwt>
<pdfrwt beam="1">  1       21 0.35680608E-01 0.21394966E+03</pdfrwt>
<pdfrwt beam="2">  1       21 0.43398623E-01 0.21394966E+03</pdfrwt>
<totfact> 0.38236729E+04</totfact>
</mgrwt>
</event>
<event>
 4    1  0.3901757E+000  0.1803683E+03  0.7546771E-02  0.1167447E+00
         21   -1    0    0  501  502  0.00000000000E+00  0.00000000000E+00  0.46414923338E+03  0.46414923338E+03  0.00000000000E+00 0. -1.
         21   -1    0    0  502  503 -0.00000000000E+00 -0.00000000000E+00 -0.91401417288E+02  0.91401417288E+02  0.00000000000E+00 0.  1.
          6    1    1    2  501    0 -0.44336339549E+02 -0.25259201708E+02  0.52248213631E+02  0.18778342340E+03  0.17300000000E+03 0.  1.
         -6    1    1    2    0  503  0.44336339549E+02  0.25259201708E+02  0.32049960246E+03  0.36776722727E+03  0.17300000000E+03 0.  1.
<mgrwt>
<rscale>  2 0.18036834E+03</rscale>
<asrwt>0</asrwt>
<pdfrwt beam="1">  1       21 0.71407573E-01 0.18036834E+03</pdfrwt>
<pdfrwt beam="2">  1       21 0.14061757E-01 0.18036834E+03</pdfrwt>
<totfact> 0.78621839E+04</totfact>
</mgrwt>
</event>
<event>
 4    1  0.3901757E+000  0.1936491E+03  0.7546771E-02  0.1155211E+00
         21   -1    0    0  503  502  0.00000000000E+00  0.00000000000E+00  0.79897295344E+03  0.79897295344E+03  0.00000000000E+00 0. -1.
         21   -1    0    0  501  503 -0.00000000000E+00 -0.00000000000E+00 -0.65346439882E+02  0.65346439882E+02  0.00000000000E+00 0. -1.
          6    1    1    2  501    0 -0.76970075951E+02  0.40578226703E+02  0.13742331259E+03  0.23745557883E+03  0.17300000000E+03 0. -1.
         -6    1    1    2    0  502  0.76970075951E+02 -0.40578226703E+02  0.59620320097E+03  0.62686381449E+03  0.17300000000E+03 0. -1.
<mgrwt>
<rscale>  2 0.19364913E+03</rscale>
<asrwt>0</asrwt>
<pdfrwt beam="1">  1       21 0.12291891E+00 0.19364913E+03</pdfrwt>
<pdfrwt beam="2">  1       21 0.10053299E-01 0.19364913E+03</pdfrwt>
<totfact> 0.39968644E+04</totfact>
</mgrwt>
</event>
<event>
 4    1  0.3901757E+000  0.2064854E+03  0.7546771E-02  0.1144380E+00
         21   -1    0    0  503  502  0.00000000000E+00  0.00000000000E+00  0.13697261450E+03  0.13697261450E+03  0.00000000000E+00 0. -1.
         21   -1    0    0  501  503 -0.00000000000E+00 -0.00000000000E+00 -0.31172896805E+03  0.31172896805E+03  0.00000000000E+00 0.  1.
          6    1    1    2  501    0 -0.42338004969E+02 -0.10447344678E+03 -0.78820577744E+02  0.22101785273E+03  0.17300000000E+03 0. -1.
         -6    1    1    2    0  502  0.42338004969E+02  0.10447344678E+03 -0.95935775803E+02  0.22768372982E+03  0.17300000000E+03 0.  1.
<mgrwt>
<rscale>  2 0.20648537E+03</rscale>
<asrwt>0</asrwt>
<pdfrwt beam="1">  1       21 0.21072710E-01 0.20648537E+03</pdfrwt>
<pdfrwt beam="2">  1       21 0.47958302E-01 0.20648537E+03</pdfrwt>
<totfact> 0.86474655E+04</totfact>
</mgrwt>
</event>
<event>
 4    1  0.3901757E+000  0.2350932E+03  0.7546771E-02  0.1123105E+00
         21   -1    0    0  503  502  0.00000000000E+00  0.00000000000E+00  0.39101813380E+02  0.39101813380E+02  0.00000000000E+00 0. -1.
         21   -1    0    0  501  503 -0.00000000000E+00 -0.00000000000E+00 -0.14233071353E+04  0.14233071353E+04  0.00000000000E+00 0.  1.
          6    1    1    2  501    0  0.76908931500E+02  0.13937302680E+03 -0.63128097371E+03  0.67363528123E+03  0.17300000000E+03 0. -1.
         -6    1    1    2    0  502 -0.76908931500E+02 -0.13937302680E+03 -0.75292434825E+03  0.78877366750E+03  0.17300000000E+03 0. -1.
<mgrwt>
<rscale>  2 0.23509322E+03</rscale>
<asrwt>0</asrwt>
<pdfrwt beam="1">  1       21 0.60156639E-02 0.23509322E+03</pdfrwt>
<pdfrwt beam="2">  1       21 0.21897032E+00 0.23509322E+03</pdfrwt>
<totfact> 0.19408695E+04</totfact>
</mgrwt>
</event>
<event>
 4    1  0.3901757E+000  0.1797922E+03  0.7546771E-02  0.1168004E+00
         21   -1    0    0  501  502  0.00000000000E+00  0.00000000000E+00  0.71386691567E+02  0.71386691567E+02  0.00000000000E+00 0.  1.
         21   -1    0    0  502  503 -0.00000000000E+00 -0.00000000000E+00 -0.50907928695E+03  0.50907928695E+03  0.00000000000E+00 0.  1.
          6    1    1    2  501    0 -0.32620739673E+02 -0.36498107114E+02 -0.12236204705E+03  0.21748033253E+03  0.17300000000E+03 0.  1.
         -6    1    1    2    0  503  0.32620739673E+02  0.36498107114E+02 -0.31533054833E+03  0.36298564599E+03  0.17300000000E+03 0.  1.
<mgrwt>
<rscale>  2 0.17979217E+03</rscale>
<asrwt>0</asrwt>
<pdfrwt beam="1">  1       21 0.10982568E-01 0.17979217E+03</pdfrwt>
<pdfrwt beam="2">  1       21 0.78319889E-01 0.17979217E+03</pdfrwt>
<totfact> 0.99662345E+04</totfact>
</mgrwt>
</event>
<event>
 4    1  0.3901757E+000  0.1865407E+03  0.7546771E-02  0.1161619E+00
         21   -1    0    0  501  502  0.00000000000E+00  0.00000000000E+00  0.49008598697E+02  0.49008598697E+02  0.00000000000E+00 0.  1.
         21   -1    0    0  502  503 -0.00000000000E+00 -0.00000000000E+00 -0.71019781749E+03  0.71019781749E+03  0.00000000000E+00 0. -1.
          6    1    1    2  501    0  0.67292435644E+02  0.18443584437E+02 -0.33647847237E+03  0.38472743608E+03  0.17300000000E+03 0. -1.
         -6    1    1    2    0  503 -0.67292435644E+02 -0.18443584437E+02 -0.32471074643E+03  0.37447898011E+03  0.17300000000E+03 0. -1.
<mgrwt>
<rscale>  2 0.18654071E+03</rscale>
<asrwt>0</asrwt>
<pdfrwt beam="1">  1       21 0.75397839E-02 0.18654071E+03</pdfrwt>
<pdfrwt beam="2">  1       21 0.10926121E+00 0.18654071E+03</pdfrwt>
<totfact> 0.88535034E+04</totfact>
</mgrwt>
</event>
<event>
 4    1  0.3901757E+000  0.1980406E+03  0.7546771E-02  0.1151403E+00
         21   -1    0    0  501  502  0.00000000000E+00  0.00000000000E+00  0.15607884583E+04  0.15607884583E+04  0.00000000000E+00 0.  1.
         21   -1    0    0  502  503 -0.00000000000E+00 -0.00000000000E+00 -0.32447477677E+02  0.32447477677E+02  0.00000000000E+00 0.  1.
          6    1    1    2  501    0  0.86253147830E+02 -0.43028705903E+02  0.11425160110E+04  0.11595528925E+04  0.17300000000E+03 0.  1.
         -6    1    1    2    0  503 -0.86253147830E+02  0.43028705903E+02  0.38582496963E+03  0.43368304352E+03  0.17300000000E+03 0.  1.
<mgrwt>
<rscale>  2 0.19804059E+03</rscale>
<asrwt>0</asrwt>
<pdfrwt beam="1">  1       21 0.24012124E+00 0.19804059E+03</pdfrwt>
<pdfrwt beam="2">  1       21 0.49919208E-02 0.19804059E+03</pdfrwt>
<totfact> 0.20422634E+04</totfact>
</mgrwt>
</event>
<event>
 4    1  0.3901757E+000  0.2746334E+03  0.7546771E-02  0.1098657E+00
         21   -1    0    0  501  502  0.00000000000E+00  0.00000000000E+00  0.15645103691E+03  0.15645103691E+03  0.00000000000E+00 0. -1.
         21   -1    0    0  502  503 -0.00000000000E+00 -0.00000000000E+00 -0.51063593425E+03  0.51063593425E+03  0.00000000000E+00 0. -1.
          6    1    1    2  501    0 -0.20656535254E+03 -0.53153238985E+02 -0.25595437565E+03  0.37541464289E+03  0.17300000000E+03 0. -1.
         -6    1    1    2    0  503  0.20656535254E+03  0.53153238985E+02 -0.98230521688E+02  0.29167232827E+03  0.17300000000E+03 0. -1.
<mgrwt>
<rscale>  2 0.27463341E+03</rscale>
<asrwt>0</asrwt>
<pdfrwt beam="1">  1       21 0.24069390E-01 0.27463341E+03</pdfrwt>
<pdfrwt beam="2">  1       21 0.78559376E-01 0.27463341E+03</pdfrwt>
<totfact> 0.22369419E+04</totfact>
</mgrwt>
</event>
<event>
 4    1  0.3901757E+000  0.2030746E+03  0.7546771E-02  0.1147171E+00
         21   -1    0    0  503  502  0.00000000000E+00  0.00000000000E+00  0.40753873051E+02  0.40753873051E+02  0.00000000000E+00 0.  1.
         21   -1    0    0  501  503 -0.00000000000E+00 -0.00000000000E+00 -0.11182942094E+04  0.11182942094E+04  0.00000000000E+00 0. -1.
          6    1    1    2  501    0  0.77378746964E+02 -0.72957640311E+02 -0.71751364319E+03  0.74569773764E+03  0.17300000000E+03 0. -1.
         -6    1    1    2    0  502 -0.77378746964E+02  0.72957640311E+02 -0.36002669312E+03  0.41335034477E+03  0.17300000000E+03 0.  1.
<mgrwt>
<rscale>  2 0.20307459E+03</rscale>
<asrwt>0</asrwt>
<pdfrwt beam="1">  1       21 0.62698257E-02 0.20307459E+03</pdfrwt>
<pdfrwt beam="2">  1       21 0.17204529E+00 0.20307459E+03</pdfrwt>
<totfact> 0.37503692E+04</totfact>
</mgrwt>
</event>
<event>
 4    1  0.3901757E+000  0.1789242E+03  0.7546771E-02  0.1168848E+00
         21   -1    0    0  501  502  0.00000000000E+00  0.00000000000E+00  0.13720694125E+03  0.13720694125E+03  0.00000000000E+00 0. -1.
         21   -1    0    0  502  503 -0.00000000000E+00 -0.00000000000E+00 -0.26686996598E+03  0.26686996598E+03  0.00000000000E+00 0. -1.
          6    1    1    2  501    0  0.19556187729E+02  0.41260548427E+02  0.67984406539E+01  0.17905333320E+03  0.17300000000E+03 0.  1.
         -6    1    1    2    0  503 -0.19556187729E+02 -0.41260548427E+02 -0.13646146538E+03  0.22502357403E+03  0.17300000000E+03 0.  1.
<mgrwt>
<rscale>  2 0.17892422E+03</rscale>
<asrwt>0</asrwt>
<pdfrwt beam="1">  1       21 0.21108760E-01 0.17892422E+03</pdfrwt>
<pdfrwt beam="2">  1       21 0.41056918E-01 0.17892422E+03</pdfrwt>
<totfact> 0.11979555E+05</totfact>
</mgrwt>
</event>
<event>
 4    1  0.3901757E+000  0.2181632E+03  0.7546771E-02  0.1135260E+00
         21   -1    0    0  501  502  0.00000000000E+00  0.00000000000E+00  0.13311557223E+03  0.13311557223E+03  0.00000000000E+00 0.  1.
         21   -1    0    0  502  503 -0.00000000000E+00 -0.00000000000E+00 -0.36271614615E+03  0.36271614615E+03  0.00000000000E+00 0. -1.
          6    1    1    2  501    0 -0.94033929052E+01  0.13258105603E+03 -0.14439423485E+03  0.26161967677E+03  0.17300000000E+03 0.  1.
         -6    1    1    2    0  503  0.94033929052E+01 -0.13258105603E+03 -0.85206339072E+02  0.23421204161E+03  0.17300000000E+03 0.  1.
<mgrwt>
<rscale>  2 0.21816315E+03</rscale>
<asrwt>0</asrwt>
<pdfrwt beam="1">  1       21 0.20479319E-01 0.21816315E+03</pdfrwt>
<pdfrwt beam="2">  1       21 0.55802484E-01 0.21816315E+03</pdfrwt>
<totfact> 0.66045412E+04</totfact>
</mgrwt>
</event>
<event>
 4    1  0.3901757E+000  0.1752277E+03  0.7546771E-02  0.1172503E+00
         21   -1    0    0  503  502  0.00000000000E+00  0.00000000000E+00  0.38082080903E+03  0.38082080903E+03  0.00000000000E+00 0. -1.
         21   -1    0    0  501  503 -0.00000000000E+00 -0.00000000000E+00 -0.18476662609E+03  0.18476662609E+03  0.00000000000E+00 0. -1.
          6    1    1    2  501    0  0.21738117553E+02  0.17413111882E+02 -0.11427986871E+03  0.20920002536E+03  0.17300000000E+03 0. -1.
         -6    1    1    2    0  502 -0.21738117553E+02 -0.17413111882E+02  0.31033405165E+03  0.35638740976E+03  0.17300000000E+03 0. -1.
<mgrwt>
<rscale>  2 0.17522774E+03</rscale>
<asrwt>0</asrwt>
<pdfrwt beam="1">  1       21 0.58587817E-01 0.17522774E+03</pdfrwt>
<pdfrwt beam="2">  1       21 0.28425635E-01 0.17522774E+03</pdfrwt>
<totfact> 0.32570298E+04</totfact>
</mgrwt>
</event>
<event>
 4    1  0.3901757E+000  0.2942293E+03  0.7546771E-02  0.1088161E+00
         21   -1    0    0  503  502  0.00000000000E+00  0.00000000000E+00  0.32854599326E+02  0.32854599326E+02  0.00000000000E+00 0. -1.
         21   -1    0    0  501  503 -0.00000000000E+00 -0.00000000000E+00 -0.27183979720E+04  0.27183979720E+04  0.00000000000E+00 0.  1.
          6    1    1    2  501    0 -0.23793863779E+03  0.52046521437E+01 -0.11017812672E+04  0.11403915312E+04  0.17300000000E+03 0. -1.
         -6    1    1    2    0  502  0.23793863779E+03 -0.52046521437E+01 -0.15837621055E+04  0.16108610401E+04  0.17300000000E+03 0.  1.
<mgrwt>
<rscale>  2 0.29422930E+03</rscale>
<asrwt>0</asrwt>
<pdfrwt beam="1">  1       21 0.50545538E-02 0.29422930E+03</pdfrwt>
<pdfrwt beam="2">  1       21 0.41821507E+00 0.29422930E+03</pdfrwt>
<totfact> 0.15640921E+03</totfact>
</mgrwt>
</event>
<event>
 4    1  0.3901757E+000  0.1922486E+03  0.7546771E-02  0.1156449E+00
         21   -1    0    0  501  502  0.00000000000E+00  0.00000000000E+00  0.39949792089E+02  0.39949792089E+02  0.00000000000E+00 0. -1.
         21   -1    0    0  502  503 -0.00000000000E+00 -0.00000000000E+00 -0.95376734007E+03  0.95376734007E+03  0.00000000000E+00 0.  1.
          6    1    1    2  501    0 -0.56682431193E+02  0.61786908927E+02 -0.37084271946E+03  0.41771263172E+03  0.17300000000E+03 0. -1.
         -6    1    1    2    0  503  0.56682431193E+02 -0.61786908927E+02 -0.54297482852E+03  0.57600450044E+03  0.17300000000E+03 0.  1.
<mgrwt>
<rscale>  2 0.19224859E+03</rscale>
<asrwt>0</asrwt>
<pdfrwt beam="1">  1       21 0.61461223E-02 0.19224859E+03</pdfrwt>
<pdfrwt beam="2">  1       21 0.14673343E+00 0.19224859E+03</pdfrwt>
<totfact> 0.59936832E+04</totfact>
</mgrwt>
</event>
<event>
 4    1  0.3901757E+000  0.2399783E+03  0.7546771E-02  0.1119807E+00
         21   -1    0    0  503  502  0.00000000000E+00  0.00000000000E+00  0.13699171573E+03  0.13699171573E+03  0.00000000000E+00 0.  1.
         21   -1    0    0  501  503 -0.00000000000E+00 -0.00000000000E+00 -0.67863779043E+03  0.67863779043E+03  0.00000000000E+00 0. -1.
          6    1    1    2  501    0 -0.76730793664E+02  0.14755661354E+03 -0.19249739455E+02  0.24074908383E+03  0.17300000000E+03 0. -1.
         -6    1    1    2    0  502  0.76730793664E+02 -0.14755661354E+03 -0.52239633524E+03  0.57488042232E+03  0.17300000000E+03 0.  1.
<mgrwt>
<rscale>  2 0.23997827E+03</rscale>
<asrwt>0</asrwt>
<pdfrwt beam="1">  1       21 0.21075648E-01 0.23997827E+03</pdfrwt>
<pdfrwt beam="2">  1       21 0.10440582E+00 0.23997827E+03</pdfrwt>
<totfact> 0.15057001E+04</totfact>
</mgrwt>
</event>
<event>
 4    1  0.3901757E+000  0.1910087E+03  0.7546771E-02  0.1157555E+00
         21   -1    0    0  501  502  0.00000000000E+00  0.00000000000E+00  0.30053313315E+03  0.30053313315E+03  0.00000000000E+00 0. -1.
         21   -1    0    0  502  503 -0.00000000000E+00 -0.00000000000E+00 -0.12139938744E+03  0.12139938744E+03  0.00000000000E+00 0. -1.
          6    1    1    2  501    0 -0.78064126264E+02 -0.21478536455E+02  0.90064418353E+02  0.21117749594E+03  0.17300000000E+03 0. -1.
         -6    1    1    2    0  503  0.78064126264E+02  0.21478536455E+02  0.89069327361E+02  0.21075502465E+03  0.17300000000E+03 0. -1.
<mgrwt>
<rscale>  2 0.19100873E+03</rscale>
<asrwt>0</asrwt>
<pdfrwt beam="1">  1       21 0.46235867E-01 0.19100873E+03</pdfrwt>
<pdfrwt beam="2">  1       21 0.18676829E-01 0.19100873E+03</pdfrwt>
<totfact> 0.11758686E+05</totfact>
</mgrwt>
</event>
<event>
 4    1  0.3901757E+000  0.1820941E+03  0.7546771E-02  0.1165792E+00
         21   -1    0    0  503  502  0.00000000000E+00  0.00000000000E+00  0.16127060263E+03  0.16127060263E+03  0.00000000000E+00 0.  1.
         21   -1    0    0  501  503 -0.00000000000E+00 -0.00000000000E+00 -0.26120249801E+03  0.26120249801E+03  0.00000000000E+00 0.  1.
          6    1    1    2  501    0 -0.48982871548E+02  0.28808901929E+02  0.47488665467E+02  0.18818461118E+03  0.17300000000E+03 0.  1.
         -6    1    1    2    0  502  0.48982871548E+02 -0.28808901929E+02 -0.14742056085E+03  0.23428848947E+03  0.17300000000E+03 0.  1.
<mgrwt>
<rscale>  2 0.18209414E+03</rscale>
<asrwt>0</asrwt>
<pdfrwt beam="1">  1       21 0.24810862E-01 0.18209414E+03</pdfrwt>
<pdfrwt beam="2">  1       21 0.40185000E-01 0.18209414E+03</pdfrwt>
<totfact> 0.92083924E+04</totfact>
</mgrwt>
</event>
<event>
 4    1  0.3901757E+000  0.1847949E+03  0.7546771E-02  0.1163242E+00
         21   -1    0    0  501  502  0.00000000000E+00  0.00000000000E+00  0.38228397003E+03  0.38228397003E+03  0.00000000000E+00 0.  1.
         21   -1    0    0  502  503 -0.00000000000E+00 -0.00000000000E+00 -0.91681560347E+02  0.91681560347E+02  0.00000000000E+00 0.  1.
          6    1    1    2  501    0 -0.61350925998E+02 -0.21359161797E+02  0.10734168067E+03  0.21370864822E+03  0.17300000000E+03 0.  1.
         -6    1    1    2    0  503  0.61350925998E+02  0.21359161797E+02  0.18326072901E+03  0.26025688216E+03  0.17300000000E+03 0.  1.
<mgrwt>
<rscale>  2 0.18479489E+03</rscale>
<asrwt>0</asrwt>
<pdfrwt beam="1">  1       21 0.58812917E-01 0.18479489E+03</pdfrwt>
<pdfrwt beam="2">  1       21 0.14104856E-01 0.18479489E+03</pdfrwt>
<totfact> 0.11897798E+05</totfact>
</mgrwt>
</event>
<event>
 4    1  0.3901757E+000  0.1932752E+03  0.7546771E-02  0.1155540E+00
         21   -1    0    0  501  502  0.00000000000E+00  0.00000000000E+00  0.80227083654E+02  0.80227083654E+02  0.00000000000E+00 0. -1.
         21   -1    0    0  502  503 -0.00000000000E+00 -0.00000000000E+00 -0.67629266630E+03  0.67629266630E+03  0.00000000000E+00 0.  1.
          6    1    1    2  501    0 -0.80768678709E+02 -0.30045598810E+02 -0.86913824017E+02  0.21191821600E+03  0.17300000000E+03 0. -1.
         -6    1    1    2    0  503  0.80768678709E+02  0.30045598810E+02 -0.50915175863E+03  0.54460153396E+03  0.17300000000E+03 0.  1.
<mgrwt>
<rscale>  2 0.19327524E+03</rscale>
<asrwt>0</asrwt>
<pdfrwt beam="1">  1       21 0.12342628E-01 0.19327524E+03</pdfrwt>
<pdfrwt beam="2">  1       21 0.10404503E+00 0.19327524E+03</pdfrwt>
<totfact> 0.41657981E+04</totfact>
</mgrwt>
</event>
<event>
 4    1  0.3901757E+000  0.1802670E+03  0.7546771E-02  0.1167545E+00
         21   -1    0    0  501  502  0.00000000000E+00  0.00000000000E+00  0.52630153247E+03  0.52630153247E+03  0.00000000000E+00 0. -1.
         21   -1    0    0  502  503 -0.00000000000E+00 -0.00000000000E+00 -0.87139624732E+02  0.87139624732E+02  0.00000000000E+00 0. -1.
          6    1    1    2  501    0 -0.43592754821E+02 -0.25823985931E+02  0.38516197137E+03  0.42525986256E+03  0.17300000000E+03 0. -1.
         -6    1    1    2    0  503  0.43592754821E+02  0.25823985931E+02  0.53999936368E+02  0.18818129463E+03  0.17300000000E+03 0. -1.
<mgrwt>
<rscale>  2 0.18026704E+03</rscale>
<asrwt>0</asrwt>
<pdfrwt beam="1">  1       21 0.80969465E-01 0.18026704E+03</pdfrwt>
<pdfrwt beam="2">  1       21 0.13406096E-01 0.18026704E+03</pdfrwt>
<totfact> 0.64721303E+04</totfact>
</mgrwt>
</event>
<event>
 4    1  0.3901757E+000  0.2912797E+03  0.7546771E-02  0.1089683E+00
         21   -1    0    0  501  502  0.00000000000E+00  0.00000000000E+00  0.12723336470E+03  0.12723336470E+03  0.00000000000E+00 0. -1.
         21   -1    0    0  502  503 -0.00000000000E+00 -0.00000000000E+00 -0.67028540172E+03  0.67028540172E+03  0.00000000000E+00 0.  1.
          6    1    1    2  501    0 -0.80605239754E+02 -0.22004011712E+03 -0.30012946503E+03  0.41823624137E+03  0.17300000000E+03 0. -1.
         -6    1    1    2    0  503  0.80605239754E+02  0.22004011712E+03 -0.24292257200E+03  0.37928252505E+03  0.17300000000E+03 0.  1.
<mgrwt>
<rscale>  2 0.29127969E+03</rscale>
<asrwt>0</asrwt>
<pdfrwt beam="1">  1       21 0.19574364E-01 0.29127969E+03</pdfrwt>
<pdfrwt beam="2">  1       21 0.10312083E+00 0.29127969E+03</pdfrwt>
<totfact> 0.17391428E+04</totfact>
</mgrwt>
</event>
<event>
 4    1  0.3901757E+000  0.2244440E+03  0.7546771E-02  0.1130613E+00
         21   -1    0    0  503  502  0.00000000000E+00  0.00000000000E+00  0.84946141542E+03  0.84946141542E+03  0.00000000000E+00 0. -1.
         21   -1    0    0  501  503 -0.00000000000E+00 -0.00000000000E+00 -0.64842562488E+02  0.64842562488E+02  0.00000000000E+00 0.  1.
          6    1    1    2  501    0 -0.11307366112E+03  0.87523917045E+02  0.25868300988E+03  0.34247917966E+03  0.17300000000E+03 0.  1.
         -6    1    1    2    0  502  0.11307366112E+03 -0.87523917045E+02  0.52593584304E+03  0.57182479825E+03  0.17300000000E+03 0. -1.
<mgrwt>
<rscale>  2 0.22444395E+03</rscale>
<asrwt>0</asrwt>
<pdfrwt beam="1">  1       21 0.13068636E+00 0.22444395E+03</pdfrwt>
<pdfrwt beam="2">  1       21 0.99757794E-02 0.22444395E+03</pdfrwt>
<totfact> 0.34141920E+04</totfact>
</mgrwt>
</event>
<event>
 4    1  0.3901757E+000  0.1795536E+03  0.7546771E-02  0.1168236E+00
         21   -1    0    0  501  502  0.00000000000E+00  0.00000000000E+00  0.65038892840E+03  0.65038892840E+03  0.00000000000E+00 0. -1.
         21   -1    0    0  502  503 -0.00000000000E+00 -0.00000000000E+00 -0.53642121031E+02  0.53642121031E+02  0.00000000000E+00 0. -1.
          6    1    1    2  501    0 -0.47986029518E+02  0.27967513637E+01  0.39536712995E+03  0.43422879717E+03  0.17300000000E+03 0. -1.
         -6    1    1    2    0  503  0.47986029518E+02 -0.27967513637E+01  0.20137967742E+03  0.26980225226E+03  0.17300000000E+03 0. -1.
<mgrwt>
<rscale>  2 0.17955356E+03</rscale>
<asrwt>0</asrwt>
<pdfrwt beam="1">  1       21 0.10005983E+00 0.17955356E+03</pdfrwt>
<pdfrwt beam="2">  1       21 0.82526345E-02 0.17955356E+03</pdfrwt>
<totfact> 0.93704605E+04</totfact>
</mgrwt>
</event>
<event>
 4    1  0.3901757E+000  0.2247512E+03  0.7546771E-02  0.1130390E+00
         21   -1    0    0  503  502  0.00000000000E+00  0.00000000000E+00  0.44885648325E+02  0.44885648325E+02  0.00000000000E+00 0.  1.
         21   -1    0    0  501  503 -0.00000000000E+00 -0.00000000000E+00 -0.11278386583E+04  0.11278386583E+04  0.00000000000E+00 0.  1.
          6    1    1    2  501    0 -0.64422640485E+02  0.12819447481E+03 -0.56889240319E+03  0.61167938202E+03  0.17300000000E+03 0.  1.
         -6    1    1    2    0  502  0.64422640485E+02 -0.12819447481E+03 -0.51406060681E+03  0.56104492463E+03  0.17300000000E+03 0.  1.
<mgrwt>
<rscale>  2 0.22475120E+03</rscale>
<asrwt>0</asrwt>
<pdfrwt beam="1">  1       21 0.69054849E-02 0.22475120E+03</pdfrwt>
<pdfrwt beam="2">  1       21 0.17351363E+00 0.22475120E+03</pdfrwt>
<totfact> 0.30598360E+04</totfact>
</mgrwt>
</event>
<event>
 4    1  0.3901757E+000  0.2669178E+03  0.7546771E-02  0.1103057E+00
         21   -1    0    0  503  502  0.00000000000E+00  0.00000000000E+00  0.32445629090E+03  0.32445629090E+03  0.00000000000E+00 0.  1.
         21   -1    0    0  501  503 -0.00000000000E+00 -0.00000000000E+00 -0.28682308206E+03  0.28682308206E+03  0.00000000000E+00 0.  1.
          6    1    1    2  501    0  0.15346135417E+03 -0.13328807780E+03 -0.12916804998E+03  0.29652906104E+03  0.17300000000E+03 0.  1.
         -6    1    1    2    0  502 -0.15346135417E+03  0.13328807780E+03  0.16680125883E+03  0.31475031192E+03  0.17300000000E+03 0.  1.
<mgrwt>
<rscale>  2 0.26691778E+03</rscale>
<asrwt>0</asrwt>
<pdfrwt beam="1">  1       21 0.49916352E-01 0.26691778E+03</pdfrwt>
<pdfrwt beam="2">  1       21 0.44126628E-01 0.26691778E+03</pdfrwt>
<totfact> 0.18125990E+04</totfact>
</mgrwt>
</event>
<event>
 4    1  0.3901757E+000  0.2167520E+03  0.7546771E-02  0.1136328E+00
         21   -1    0    0  503  502  0.00000000000E+00  0.00000000000E+00  0.19566661811E+03  0.19566661811E+03  0.00000000000E+00 0. -1.
         21   -1    0    0  501  503 -0.00000000000E+00 -0.00000000000E+00 -0.25590438512E+03  0.25590438512E+03  0.00000000000E+00 0.  1.
          6    1    1    2  501    0  0.21759767545E+02  0.12875927728E+03 -0.86212527934E+02  0.23326816959E+03  0.17300000000E+03 0. -1.
         -6    1    1    2    0  502 -0.21759767545E+02 -0.12875927728E+03  0.25974760933E+02  0.21830283364E+03  0.17300000000E+03 0. -1.
<mgrwt>
<rscale>  2 0.21675202E+03</rscale>
<asrwt>0</asrwt>
<pdfrwt beam="1">  1       21 0.30102557E-01 0.21675202E+03</pdfrwt>
<pdfrwt beam="2">  1       21 0.39369905E-01 0.21675202E+03</pdfrwt>
<totfact> 0.65136622E+04</totfact>
</mgrwt>
</event>
<event>
 4    1  0.3901757E+000  0.2228086E+03  0.7546771E-02  0.1131806E+00
         21   -1    0    0  501  502  0.00000000000E+00  0.00000000000E+00  0.75050317866E+03  0.75050317866E+03  0.00000000000E+00 0.  1.
         21   -1    0    0  502  503 -0.00000000000E+00 -0.00000000000E+00 -0.79632509369E+02  0.79632509369E+02  0.00000000000E+00 0.  1.
          6    1    1    2  501    0  0.11134767395E+03  0.85535892184E+02  0.50624173569E+03  0.55310431954E+03  0.17300000000E+03 0.  1.
         -6    1    1    2    0  503 -0.11134767395E+03 -0.85535892184E+02  0.16462893361E+03  0.27703136849E+03  0.17300000000E+03 0.  1.
<mgrwt>
<rscale>  2 0.22280865E+03</rscale>
<asrwt>0</asrwt>
<pdfrwt beam="1">  1       21 0.11546202E+00 0.22280865E+03</pdfrwt>
<pdfrwt beam="2">  1       21 0.12251156E-01 0.22280865E+03</pdfrwt>
<totfact> 0.32280623E+04</totfact>
</mgrwt>
</event>
<event>
 4    1  0.3901757E+000  0.2972406E+03  0.7546771E-02  0.1086628E+00
         21   -1    0    0  503  502  0.00000000000E+00  0.00000000000E+00  0.10214643122E+04  0.10214643122E+04  0.00000000000E+00 0.  1.
         21   -1    0    0  501  503 -0.00000000000E+00 -0.00000000000E+00 -0.37962521651E+03  0.37962521651E+03  0.00000000000E+00 0. -1.
          6    1    1    2  501    0 -0.23733671501E+03 -0.45762976960E+02 -0.29466592430E+03  0.41854506722E+03  0.17300000000E+03 0. -1.
         -6    1    1    2    0  502  0.23733671501E+03  0.45762976960E+02  0.93650501995E+03  0.98254446146E+03  0.17300000000E+03 0.  1.
<mgrwt>
<rscale>  2 0.29724059E+03</rscale>
<asrwt>0</asrwt>
<pdfrwt beam="1">  1       21 0.15714835E+00 0.29724059E+03</pdfrwt>
<pdfrwt beam="2">  1       21 0.58403880E-01 0.29724059E+03</pdfrwt>
<totfact> 0.66050610E+02</totfact>
</mgrwt>
</event>
<event>
 4    1  0.3901757E+000  0.1730437E+03  0.7546771E-02  0.1174710E+00
         21   -1    0    0  501  502  0.00000000000E+00  0.00000000000E+00  0.10144870275E+04  0.10144870275E+04  0.00000000000E+00 0.  1.
         21   -1    0    0  502  503 -0.00000000000E+00 -0.00000000000E+00 -0.13673561467E+03  0.13673561467E+03  0.00000000000E+00 0.  1.
          6    1    1    2  501    0  0.37236401547E+01  0.11234790843E+01  0.94858736722E+03  0.96424173367E+03  0.17300000000E+03 0.  1.
         -6    1    1    2    0  503 -0.37236401547E+01 -0.11234790843E+01 -0.70835954401E+02  0.18698090848E+03  0.17300000000E+03 0.  1.
<mgrwt>
<rscale>  2 0.17304372E+03</rscale>
<asrwt>0</asrwt>
<pdfrwt beam="1">  1       21 0.15607492E+00 0.17304372E+03</pdfrwt>
<pdfrwt beam="2">  1       21 0.21036249E-01 0.17304372E+03</pdfrwt>
<totfact> 0.57468930E+03</totfact>
</mgrwt>
</event>
<event>
 4    1  0.3901757E+000  0.1926079E+03  0.7546771E-02  0.1156130E+00
         21   -1    0    0  501  502  0.00000000000E+00  0.00000000000E+00  0.14451804116E+04  0.14451804116E+04  0.00000000000E+00 0.  1.
         21   -1    0    0  502  503 -0.00000000000E+00 -0.00000000000E+00 -0.46302782030E+02  0.46302782030E+02  0.00000000000E+00 0.  1.
          6    1    1    2  501    0 -0.76037712593E+02  0.37243548305E+02  0.11972486464E+04  0.12126426254E+04  0.17300000000E+03 0.  1.
         -6    1    1    2    0  503  0.76037712593E+02 -0.37243548305E+02  0.20162898310E+03  0.27884056816E+03  0.17300000000E+03 0.  1.
<mgrwt>
<rscale>  2 0.19260793E+03</rscale>
<asrwt>0</asrwt>
<pdfrwt beam="1">  1       21 0.22233541E+00 0.19260793E+03</pdfrwt>
<pdfrwt beam="2">  1       21 0.71235061E-02 0.19260793E+03</pdfrwt>
<totfact> 0.14286561E+04</totfact>
</mgrwt>
</event>
<event>
 4    1  0.3901757E+000  0.1749777E+03  0.7546771E-02  0.1172754E+00
         21   -1    0    0  501  502  0.00000000000E+00  0.00000000000E+00  0.93015067795E+02  0.93015067795E+02  0.00000000000E+00 0.  1.
         21   -1    0    0  502  503 -0.00000000000E+00 -0.00000000000E+00 -0.48212393760E+03  0.48212393760E+03  0.00000000000E+00 0.  1.
          6    1    1    2  501    0  0.25145027038E+02 -0.74776190184E+01 -0.32577676479E+02  0.17798452791E+03  0.17300000000E+03 0.  1.
         -6    1    1    2    0  503 -0.25145027038E+02  0.74776190184E+01 -0.35653119333E+03  0.39715447748E+03  0.17300000000E+03 0.  1.
<mgrwt>
<rscale>  2 0.17497768E+03</rscale>
<asrwt>0</asrwt>
<pdfrwt beam="1">  1       21 0.14310010E-01 0.17497768E+03</pdfrwt>
<pdfrwt beam="2">  1       21 0.74172914E-01 0.17497768E+03</pdfrwt>
<totfact> 0.70189213E+04</totfact>
</mgrwt>
</event>
<event>
 4    1  0.3901757E+000  0.3936220E+03  0.7546771E-02  0.1046011E+00
         21   -1    0    0  503  502  0.00000000000E+00  0.00000000000E+00  0.10741153172E+03  0.10741153172E+03  0.00000000000E+00 0.  1.
         21   -1    0    0  501  503 -0.00000000000E+00 -0.00000000000E+00 -0.16202435380E+04  0.16202435380E+04  0.00000000000E+00 0. -1.
          6    1    1    2  501    0 -0.25651328950E+03 -0.24333148620E+03 -0.10425478977E+04  0.11143807244E+04  0.17300000000E+03 0. -1.
         -6    1    1    2    0  502  0.25651328950E+03  0.24333148620E+03 -0.47028410857E+03  0.61327434533E+03  0.17300000000E+03 0.  1.
<mgrwt>
<rscale>  2 0.39362200E+03</rscale>
<asrwt>0</asrwt>
<pdfrwt beam="1">  1       21 0.16524852E-01 0.39362200E+03</pdfrwt>
<pdfrwt beam="2">  1       21 0.24926822E+00 0.39362200E+03</pdfrwt>
<totfact> 0.18867642E+03</totfact>
</mgrwt>
</event>
<event>
 4    1  0.3901757E+000  0.1776657E+03  0.7546771E-02  0.1170081E+00
         21   -1    0    0  501  502  0.00000000000E+00  0.00000000000E+00  0.62062461889E+03  0.62062461889E+03  0.00000000000E+00 0.  1.
         21   -1    0    0  502  503 -0.00000000000E+00 -0.00000000000E+00 -0.47170128274E+03  0.47170128274E+03  0.00000000000E+00 0.  1.
          6    1    1    2  501    0  0.70136620786E+01  0.39836104846E+02  0.59034056227E+03  0.61649581197E+03  0.17300000000E+03 0.  1.
         -6    1    1    2    0  503 -0.70136620786E+01 -0.39836104846E+02 -0.44141722612E+03  0.47583008966E+03  0.17300000000E+03 0.  1.
<mgrwt>
<rscale>  2 0.17766572E+03</rscale>
<asrwt>0</asrwt>
<pdfrwt beam="1">  1       21 0.95480711E-01 0.17766572E+03</pdfrwt>
<pdfrwt beam="2">  1       21 0.72569428E-01 0.17766572E+03</pdfrwt>
<totfact> 0.15892345E+03</totfact>
</mgrwt>
</event>
<event>
 4    1  0.3901757E+000  0.1802620E+03  0.7546771E-02  0.1167550E+00
         21   -1    0    0  501  502  0.00000000000E+00  0.00000000000E+00  0.38862296367E+02  0.38862296367E+02  0.00000000000E+00 0. -1.
         21   -1    0    0  502  503 -0.00000000000E+00 -0.00000000000E+00 -0.10059441700E+04  0.10059441700E+04  0.00000000000E+00 0. -1.
          6    1    1    2  501    0 -0.50440436498E+02 -0.46004233767E+01 -0.26891093666E+03  0.32373985449E+03  0.17300000000E+03 0. -1.
         -6    1    1    2    0  503  0.50440436498E+02  0.46004233767E+01 -0.69817093694E+03  0.72106661185E+03  0.17300000000E+03 0. -1.
<mgrwt>
<rscale>  2 0.18026204E+03</rscale>
<asrwt>0</asrwt>
<pdfrwt beam="1">  1       21 0.59788155E-02 0.18026204E+03</pdfrwt>
<pdfrwt beam="2">  1       21 0.15476062E+00 0.18026204E+03</pdfrwt>
<totfact> 0.54972619E+04</totfact>
</mgrwt>
</event>
<event>
 4    1  0.3901757E+000  0.2278377E+03  0.7546771E-02  0.1128171E+00
         21   -1    0    0  503  502  0.00000000000E+00  0.00000000000E+00  0.53091392881E+02  0.53091392881E+02  0.00000000000E+00 0.  1.
         21   -1    0    0  501  503 -0.00000000000E+00 -0.00000000000E+00 -0.10578311416E+04  0.10578311416E+04  0.00000000000E+00 0.  1.
          6    1    1    2  501    0  0.14825771226E+03  0.83035849414E+00 -0.65520189061E+03  0.69368548795E+03  0.17300000000E+03 0.  1.
         -6    1    1    2    0  502 -0.14825771226E+03 -0.83035849414E+00 -0.34953785809E+03  0.41723704651E+03  0.17300000000E+03 0.  1.
<mgrwt>
<rscale>  2 0.22783775E+03</rscale>
<asrwt>0</asrwt>
<pdfrwt beam="1">  1       21 0.81679065E-02 0.22783775E+03</pdfrwt>
<pdfrwt beam="2">  1       21 0.16274325E+00 0.22783775E+03</pdfrwt>
<totfact> 0.27214101E+04</totfact>
</mgrwt>
</event>
<event>
 4    1  0.3901757E+000  0.2043882E+03  0.7546771E-02  0.1146089E+00
         21   -1    0    0  503  502  0.00000000000E+00  0.00000000000E+00  0.25096821517E+03  0.25096821517E+03  0.00000000000E+00 0.  1.
         21   -1    0    0  501  503 -0.00000000000E+00 -0.00000000000E+00 -0.16843608964E+03  0.16843608964E+03  0.00000000000E+00 0. -1.
          6    1    1    2  501    0  0.88031428728E+02 -0.64000133715E+02  0.64016858888E+02  0.21417914880E+03  0.17300000000E+03 0. -1.
         -6    1    1    2    0  502 -0.88031428728E+02  0.64000133715E+02  0.18515266639E+02  0.20522515601E+03  0.17300000000E+03 0. -1.
<mgrwt>
<rscale>  2 0.20438823E+03</rscale>
<asrwt>0</asrwt>
<pdfrwt beam="1">  1       21 0.38610495E-01 0.20438823E+03</pdfrwt>
<pdfrwt beam="2">  1       21 0.25913245E-01 0.20438823E+03</pdfrwt>
<totfact> 0.91032477E+04</totfact>
</mgrwt>
</event>
<event>
 4    1  0.3901757E+000  0.2344105E+03  0.7546771E-02  0.1123573E+00
         21   -1    0    0  501  502  0.00000000000E+00  0.00000000000E+00  0.24539194802E+03  0.24539194802E+03  0.00000000000E+00 0. -1.
         21   -1    0    0  502  503 -0.00000000000E+00 -0.00000000000E+00 -0.23678985233E+03  0.23678985233E+03  0.00000000000E+00 0.  1.
          6    1    1    2  501    0  0.15025947967E+03  0.49410367699E+02 -0.51904226567E+02  0.24008820130E+03  0.17300000000E+03 0.  1.
         -6    1    1    2    0  503 -0.15025947967E+03 -0.49410367699E+02  0.60506322261E+02  0.24209359905E+03  0.17300000000E+03 0. -1.
<mgrwt>
<rscale>  2 0.23441053E+03</rscale>
<asrwt>0</asrwt>
<pdfrwt beam="1">  1       21 0.37752607E-01 0.23441053E+03</pdfrwt>
<pdfrwt beam="2">  1       21 0.36429208E-01 0.23441053E+03</pdfrwt>
<totfact> 0.48231741E+04</totfact>
</mgrwt>
</event>
<event>
 4    1  0.3901757E+000  0.2571352E+03  0.7546771E-02  0.1108877E+00
         21   -1    0    0  501  502  0.00000000000E+00  0.00000000000E+00  0.27609505858E+04  0.27609505858E+04  0.00000000000E+00 0. -1.
         21   -1    0    0  502  503 -0.00000000000E+00 -0.00000000000E+00 -0.48622982634E+02  0.48622982634E+02  0.00000000000E+00 0.  1.
          6    1    1    2  501    0 -0.18818159992E+03  0.27877868014E+02  0.23569019323E+04  0.23708870088E+04  0.17300000000E+03 0. -1.
         -6    1    1    2    0  503  0.18818159992E+03 -0.27877868014E+02  0.35542567082E+03  0.43868655958E+03  0.17300000000E+03 0.  1.
<mgrwt>
<rscale>  2 0.25713516E+03</rscale>
<asrwt>0</asrwt>
<pdfrwt beam="1">  1       21 0.42476151E+00 0.25713516E+03</pdfrwt>
<pdfrwt beam="2">  1       21 0.74804610E-02 0.25713516E+03</pdfrwt>
<totfact> 0.74983381E+02</totfact>
</mgrwt>
</event>
<event>
 4    1  0.3901757E+000  0.2205700E+03  0.7546771E-02  0.1133459E+00
         21   -1    0    0  501  502  0.00000000000E+00  0.00000000000E+00  0.68236897301E+02  0.68236897301E+02  0.00000000000E+00 0.  1.
         21   -1    0    0  502  503 -0.00000000000E+00 -0.00000000000E+00 -0.95875364945E+03  0.95875364945E+03  0.00000000000E+00 0.  1.
          6    1    1    2  501    0  0.53536693024E+02 -0.12592045516E+03 -0.70524788994E+03  0.73893553494E+03  0.17300000000E+03 0.  1.
         -6    1    1    2    0  503 -0.53536693024E+02  0.12592045516E+03 -0.18526886221E+03  0.28805501181E+03  0.17300000000E+03 0.  1.
<mgrwt>
<rscale>  2 0.22057003E+03</rscale>
<asrwt>0</asrwt>
<pdfrwt beam="1">  1       21 0.10497984E-01 0.22057003E+03</pdfrwt>
<pdfrwt beam="2">  1       21 0.14750057E+00 0.22057003E+03</pdfrwt>
<totfact> 0.22851736E+04</totfact>
</mgrwt>
</event>
<event>
 4    1  0.3901757E+000  0.2603296E+03  0.7546771E-02  0.1106945E+00
         21   -1    0    0  503  502  0.00000000000E+00  0.00000000000E+00  0.33528976997E+03  0.33528976997E+03  0.00000000000E+00 0. -1.
         21   -1    0    0  501  503 -0.00000000000E+00 -0.00000000000E+00 -0.23997867227E+03  0.23997867227E+03  0.00000000000E+00 0.  1.
          6    1    1    2  501    0  0.10620220772E+03  0.16298338556E+03 -0.66577115698E+02  0.26870802971E+03  0.17300000000E+03 0.  1.
         -6    1    1    2    0  502 -0.10620220772E+03 -0.16298338556E+03  0.16188821340E+03  0.30656041253E+03  0.17300000000E+03 0. -1.
<mgrwt>
<rscale>  2 0.26032959E+03</rscale>
<asrwt>0</asrwt>
<pdfrwt beam="1">  1       21 0.51583041E-01 0.26032959E+03</pdfrwt>
<pdfrwt beam="2">  1       21 0.36919796E-01 0.26032959E+03</pdfrwt>
<totfact> 0.24400291E+04</totfact>
</mgrwt>
</event>
<event>
 4    1  0.3901757E+000  0.1881381E+03  0.7546771E-02  0.1160151E+00
         21   -1    0    0  503  502  0.00000000000E+00  0.00000000000E+00  0.15383072661E+04  0.15383072661E+04  0.00000000000E+00 0.  1.
         21   -1    0    0  501  503 -0.00000000000E+00 -0.00000000000E+00 -0.52540504567E+02  0.52540504567E+02  0.00000000000E+00 0.  1.
          6    1    1    2  501    0 -0.44871177162E+02  0.58766559288E+02  0.14654958331E+03  0.23848000209E+03  0.17300000000E+03 0.  1.
         -6    1    1    2    0  502  0.44871177162E+02 -0.58766559288E+02  0.13392171783E+04  0.13523677686E+04  0.17300000000E+03 0.  1.
<mgrwt>
<rscale>  2 0.18813806E+03</rscale>
<asrwt>0</asrwt>
<pdfrwt beam="1">  1       21 0.23666262E+00 0.18813806E+03</pdfrwt>
<pdfrwt beam="2">  1       21 0.80831557E-02 0.18813806E+03</pdfrwt>
<totfact> 0.94402613E+03</totfact>
</mgrwt>
</event>
<event>
 4    1  0.3901757E+000  0.1764816E+03  0.7546771E-02  0.1171252E+00
         21   -1    0    0  503  502  0.00000000000E+00  0.00000000000E+00  0.21737864836E+03  0.21737864836E+03  0.00000000000E+00 0. -1.
         21   -1    0    0  501  503 -0.00000000000E+00 -0.00000000000E+00 -0.14376627526E+03  0.14376627526E+03  0.00000000000E+00 0. -1.
          6    1    1    2  501    0  0.30705014489E+02 -0.16551563006E+02  0.47320931552E+02  0.18271568820E+03  0.17300000000E+03 0. -1.
         -6    1    1    2    0  502 -0.30705014489E+02  0.16551563006E+02  0.26291441552E+02  0.17842923542E+03  0.17300000000E+03 0. -1.
<mgrwt>
<rscale>  2 0.17648159E+03</rscale>
<asrwt>0</asrwt>
<pdfrwt beam="1">  1       21 0.33442869E-01 0.17648159E+03</pdfrwt>
<pdfrwt beam="2">  1       21 0.22117889E-01 0.17648159E+03</pdfrwt>
<totfact> 0.16538266E+05</totfact>
</mgrwt>
</event>
<event>
 4    1  0.3901757E+000  0.2238333E+03  0.7546771E-02  0.1131057E+00
         21   -1    0    0  501  502  0.00000000000E+00  0.00000000000E+00  0.20893475989E+03  0.20893475989E+03  0.00000000000E+00 0.  1.
         21   -1    0    0  502  503 -0.00000000000E+00 -0.00000000000E+00 -0.39772549255E+03  0.39772549255E+03  0.00000000000E+00 0. -1.
          6    1    1    2  501    0  0.82845930852E+01  0.14178754162E+03  0.96747432409E+02  0.24384709783E+03  0.17300000000E+03 0.  1.
         -6    1    1    2    0  503 -0.82845930852E+01 -0.14178754162E+03 -0.28553816507E+03  0.36281315460E+03  0.17300000000E+03 0. -1.
<mgrwt>
<rscale>  2 0.22383329E+03</rscale>
<asrwt>0</asrwt>
<pdfrwt beam="1">  1       21 0.32143809E-01 0.22383329E+03</pdfrwt>
<pdfrwt beam="2">  1       21 0.61188537E-01 0.22383329E+03</pdfrwt>
<totfact> 0.22723838E+04</totfact>
</mgrwt>
</event>
<event>
 4    1  0.3901757E+000  0.1916463E+03  0.7546771E-02  0.1156985E+00
         21   -1    0    0  503  502  0.00000000000E+00  0.00000000000E+00  0.17387943074E+03  0.17387943074E+03  0.00000000000E+00 0.  1.
         21   -1    0    0  501  503 -0.00000000000E+00 -0.00000000000E+00 -0.27628233100E+03  0.27628233100E+03  0.00000000000E+00 0.  1.
          6    1    1    2  501    0 -0.52263496657E+02 -0.63779522070E+02 -0.16042047950E+03  0.24992605059E+03  0.17300000000E+03 0.  1.
         -6    1    1    2    0  502  0.52263496657E+02  0.63779522070E+02  0.58017579248E+02  0.20023571115E+03  0.17300000000E+03 0.  1.
<mgrwt>
<rscale>  2 0.19164629E+03</rscale>
<asrwt>0</asrwt>
<pdfrwt beam="1">  1       21 0.26750682E-01 0.19164629E+03</pdfrwt>
<pdfrwt beam="2">  1       21 0.42504973E-01 0.19164629E+03</pdfrwt>
<totfact> 0.70881628E+04</totfact>
</mgrwt>
</event>
<event>
 4    1  0.3901757E+000  0.1960362E+03  0.7546771E-02  0.1153127E+00
         21   -1    0    0  501  502  0.00000000000E+00  0.00000000000E+00  0.63066364430E+03  0.63066364430E+03  0.00000000000E+00 0. -1.
         21   -1    0    0  502  503 -0.00000000000E+00 -0.00000000000E+00 -0.67559229077E+02  0.67559229077E+02  0.00000000000E+00 0. -1.
          6    1    1    2  501    0  0.92157896358E+02 -0.28483446945E+01  0.17224396159E+03  0.26095626690E+03  0.17300000000E+03 0. -1.
         -6    1    1    2    0  503 -0.92157896358E+02  0.28483446945E+01  0.39086045363E+03  0.43726660648E+03  0.17300000000E+03 0. -1.
<mgrwt>
<rscale>  2 0.19603620E+03</rscale>
<asrwt>0</asrwt>
<pdfrwt beam="1">  1       21 0.97025172E-01 0.19603620E+03</pdfrwt>
<pdfrwt beam="2">  1       21 0.10393728E-01 0.19603620E+03</pdfrwt>
<totfact> 0.66708763E+04</totfact>
</mgrwt>
</event>
<event>
 4    1  0.3901757E+000  0.2147886E+03  0.7546771E-02  0.1137829E+00
         21   -1    0    0  501  502  0.00000000000E+00  0.00000000000E+00  0.26954674100E+03  0.26954674100E+03  0.00000000000E+00 0. -1.
         21   -1    0    0  502  503 -0.00000000000E+00 -0.00000000000E+00 -0.67324465725E+03  0.67324465725E+03  0.00000000000E+00 0.  1.
          6    1    1    2  501    0  0.12140759412E+03  0.38279566280E+02  0.20524065889E+03  0.29708223973E+03  0.17300000000E+03 0. -1.
         -6    1    1    2    0  503 -0.12140759412E+03 -0.38279566280E+02 -0.60893857514E+03  0.64570915852E+03  0.17300000000E+03 0.  1.
<mgrwt>
<rscale>  2 0.21478857E+03</rscale>
<asrwt>0</asrwt>
<pdfrwt beam="1">  1       21 0.41468730E-01 0.21478857E+03</pdfrwt>
<pdfrwt beam="2">  1       21 0.10357610E+00 0.21478857E+03</pdfrwt>
<totfact> 0.41531140E+03</totfact>
</mgrwt>
</event>
<event>
 4    1  0.3901757E+000  0.1960798E+03  0.7546771E-02  0.1153089E+00
         21   -1    0    0  501  502  0.00000000000E+00  0.00000000000E+00  0.24972401506E+03  0.24972401506E+03  0.00000000000E+00 0. -1.
         21   -1    0    0  502  503 -0.00000000000E+00 -0.00000000000E+00 -0.47634273245E+03  0.47634273245E+03  0.00000000000E+00 0. -1.
          6    1    1    2  501    0 -0.75476386411E+02 -0.53118870912E+02  0.18534800852E+03  0.26981694464E+03  0.17300000000E+03 0. -1.
         -6    1    1    2    0  503  0.75476386411E+02  0.53118870912E+02 -0.41196672591E+03  0.45624980286E+03  0.17300000000E+03 0. -1.
<mgrwt>
<rscale>  2 0.19607983E+03</rscale>
<asrwt>0</asrwt>
<pdfrwt beam="1">  1       21 0.38419079E-01 0.19607983E+03</pdfrwt>
<pdfrwt beam="2">  1       21 0.73283497E-01 0.19607983E+03</pdfrwt>
<totfact> 0.10911838E+04</totfact>
</mgrwt>
</event>
<event>
 4    1  0.3901757E+000  0.1926176E+03  0.7546771E-02  0.1156121E+00
         21   -1    0    0  501  502  0.00000000000E+00  0.00000000000E+00  0.56131443985E+02  0.56131443985E+02  0.00000000000E+00 0.  1.
         21   -1    0    0  502  503 -0.00000000000E+00 -0.00000000000E+00 -0.14815061669E+04  0.14815061669E+04  0.00000000000E+00 0. -1.
          6    1    1    2  501    0  0.71845859725E+02 -0.44840871693E+02 -0.14052462428E+03  0.23842965705E+03  0.17300000000E+03 0.  1.
         -6    1    1    2    0  503 -0.71845859725E+02  0.44840871693E+02 -0.12848500986E+04  0.12992079538E+04  0.17300000000E+03 0. -1.
<mgrwt>
<rscale>  2 0.19261758E+03</rscale>
<asrwt>0</asrwt>
<pdfrwt beam="1">  1       21 0.86356080E-02 0.19261758E+03</pdfrwt>
<pdfrwt beam="2">  1       21 0.22792399E+00 0.19261758E+03</pdfrwt>
<totfact> 0.94537563E+03</totfact>
</mgrwt>
</event>
<event>
 4    1  0.3901757E+000  0.3042237E+03  0.7546771E-02  0.1083148E+00
         21   -1    0    0  501  502  0.00000000000E+00  0.00000000000E+00  0.25069987420E+03  0.25069987420E+03  0.00000000000E+00 0. -1.
         21   -1    0    0  502  503 -0.00000000000E+00 -0.00000000000E+00 -0.40397648545E+03  0.40397648545E+03  0.00000000000E+00 0.  1.
          6    1    1    2  501    0  0.24994947829E+03 -0.12177347841E+02  0.19438800594E+02  0.30484405270E+03  0.17300000000E+03 0. -1.
         -6    1    1    2    0  503 -0.24994947829E+03  0.12177347841E+02 -0.17271541185E+03  0.34983230695E+03  0.17300000000E+03 0.  1.
<mgrwt>
<rscale>  2 0.30422365E+03</rscale>
<asrwt>0</asrwt>
<pdfrwt beam="1">  1       21 0.38569212E-01 0.30422365E+03</pdfrwt>
<pdfrwt beam="2">  1       21 0.62150228E-01 0.30422365E+03</pdfrwt>
<totfact> 0.14692267E+04</totfact>
</mgrwt>
</event>
<event>
 4    1  0.3901757E+000  0.1874842E+03  0.7546771E-02  0.1160750E+00
         21   -1    0    0  501  502  0.00000000000E+00  0.00000000000E+00  0.48084000653E+03  0.48084000653E+03  0.00000000000E+00 0.  1.
         21   -1    0    0  502  503 -0.00000000000E+00 -0.00000000000E+00 -0.10169245380E+03  0.10169245380E+03  0.00000000000E+00 0.  1.
          6    1    1    2  501    0  0.72250544795E+02 -0.10823435489E+01  0.35134719668E+02  0.19074789964E+03  0.17300000000E+03 0.  1.
         -6    1    1    2    0  503 -0.72250544795E+02  0.10823435489E+01  0.34401283305E+03  0.39178456069E+03  0.17300000000E+03 0.  1.
<mgrwt>
<rscale>  2 0.18748417E+03</rscale>
<asrwt>0</asrwt>
<pdfrwt beam="1">  1       21 0.73975384E-01 0.18748417E+03</pdfrwt>
<pdfrwt beam="2">  1       21 0.15644993E-01 0.18748417E+03</pdfrwt>
<totfact> 0.59699359E+04</totfact>
</mgrwt>
</event>
<event>
 4    1  0.3901757E+000  0.1803626E+03  0.7546771E-02  0.1167453E+00
         21   -1    0    0  503  502  0.00000000000E+00  0.00000000000E+00  0.32357845478E+03  0.32357845478E+03  0.00000000000E+00 0.  1.
         21   -1    0    0  501  503 -0.00000000000E+00 -0.00000000000E+00 -0.19275989844E+03  0.19275989844E+03  0.00000000000E+00 0. -1.
          6    1    1    2  501    0 -0.71503254661E+01 -0.50502778012E+02 -0.11316641192E+03  0.21292556100E+03  0.17300000000E+03 0. -1.
         -6    1    1    2    0  502  0.71503254661E+01  0.50502778012E+02  0.24398496826E+03  0.30341279221E+03  0.17300000000E+03 0.  1.
<mgrwt>
<rscale>  2 0.18036257E+03</rscale>
<asrwt>0</asrwt>
<pdfrwt beam="1">  1       21 0.49781301E-01 0.18036257E+03</pdfrwt>
<pdfrwt beam="2">  1       21 0.29655369E-01 0.18036257E+03</pdfrwt>
<totfact> 0.42165157E+04</totfact>
</mgrwt>
</event>
<event>
 4    1  0.3901757E+000  0.2644869E+03  0.7546771E-02  0.1104477E+00
         21   -1    0    0  503  502  0.00000000000E+00  0.00000000000E+00  0.37742925986E+03  0.37742925986E+03  0.00000000000E+00 0. -1.
         21   -1    0    0  501  503 -0.00000000000E+00 -0.00000000000E+00 -0.18550454464E+03  0.18550454464E+03  0.00000000000E+00 0. -1.
          6    1    1    2  501    0  0.87315559067E+02  0.18000081444E+03  0.87617453295E+02  0.27862181927E+03  0.17300000000E+03 0. -1.
         -6    1    1    2    0  502 -0.87315559067E+02 -0.18000081444E+03  0.10430726192E+03  0.28431198523E+03  0.17300000000E+03 0. -1.
<mgrwt>
<rscale>  2 0.26448686E+03</rscale>
<asrwt>0</asrwt>
<pdfrwt beam="1">  1       21 0.58066040E-01 0.26448686E+03</pdfrwt>
<pdfrwt beam="2">  1       21 0.28539161E-01 0.26448686E+03</pdfrwt>
<totfact> 0.31527146E+04</totfact>
</mgrwt>
</event>
<event>
 4    1  0.3901757E+000  0.1875381E+03  0.7546771E-02  0.1160701E+00
         21   -1    0    0  501  502  0.00000000000E+00  0.00000000000E+00  0.89705799124E+02  0.89705799124E+02  0.00000000000E+00 0.  1.
         21   -1    0    0  502  503 -0.00000000000E+00 -0.00000000000E+00 -0.42160143852E+03  0.42160143852E+03  0.00000000000E+00 0.  1.
          6    1    1    2  501    0  0.10614668589E+02  0.71616187136E+02 -0.23361471527E+03  0.29957700953E+03  0.17300000000E+03 0.  1.
         -6    1    1    2    0  503 -0.10614668589E+02 -0.71616187136E+02 -0.98280924123E+02  0.21173022811E+03  0.17300000000E+03 0.  1.
<mgrwt>
<rscale>  2 0.18753813E+03</rscale>
<asrwt>0</asrwt>
<pdfrwt beam="1">  1       21 0.13800892E-01 0.18753813E+03</pdfrwt>
<pdfrwt beam="2">  1       21 0.64861761E-01 0.18753813E+03</pdfrwt>
<totfact> 0.10011318E+05</totfact>
</mgrwt>
</event>
<event>
 4    1  0.3901757E+000  0.2955272E+03  0.7546771E-02  0.1087498E+00
         21   -1    0    0  503  502  0.00000000000E+00  0.00000000000E+00  0.29187909734E+03  0.29187909734E+03  0.00000000000E+00 0.  1.
         21   -1    0    0  501  503 -0.00000000000E+00 -0.00000000000E+00 -0.40152376800E+03  0.40152376800E+03  0.00000000000E+00 0. -1.
          6    1    1    2  501    0 -0.23719779332E+03  0.33830920856E+02 -0.22982470324E+03  0.37437376855E+03  0.17300000000E+03 0. -1.
         -6    1    1    2    0  502  0.23719779332E+03 -0.33830920856E+02  0.12018003259E+03  0.31902909678E+03  0.17300000000E+03 0.  1.
<mgrwt>
<rscale>  2 0.29552720E+03</rscale>
<asrwt>0</asrwt>
<pdfrwt beam="1">  1       21 0.44904477E-01 0.29552720E+03</pdfrwt>
<pdfrwt beam="2">  1       21 0.61772887E-01 0.29552720E+03</pdfrwt>
<totfact> 0.10936679E+04</totfact>
</mgrwt>
</event>
<event>
 4    1  0.3901757E+000  0.3718532E+03  0.7546771E-02  0.1053987E+00
         21   -1    0    0  501  502  0.00000000000E+00  0.00000000000E+00  0.56193038965E+03  0.56193038965E+03  0.00000000000E+00 0.  1.
         21   -1    0    0  502  503 -0.00000000000E+00 -0.00000000000E+00 -0.24657025099E+03  0.24657025099E+03  0.00000000000E+00 0. -1.
          6    1    1    2  501    0  0.31052337913E+03  0.10918331516E+03  0.13948953742E+03  0.39715500292E+03  0.17300000000E+03 0. -1.
         -6    1    1    2    0  503 -0.31052337913E+03 -0.10918331516E+03  0.17587060123E+03  0.41134563772E+03  0.17300000000E+03 0.  1.
<mgrwt>
<rscale>  2 0.37185315E+03</rscale>
<asrwt>0</asrwt>
<pdfrwt beam="1">  1       21 0.86450829E-01 0.37185315E+03</pdfrwt>
<pdfrwt beam="2">  1       21 0.37933885E-01 0.37185315E+03</pdfrwt>
<totfact> 0.70225776E+03</totfact>
</mgrwt>
</event>
<event>
 4    1  0.3901757E+000  0.2103323E+03  0.7546771E-02  0.1141303E+00
         21   -1    0    0  501  502  0.00000000000E+00  0.00000000000E+00  0.97115356781E+03  0.97115356781E+03  0.00000000000E+00 0.  1.
         21   -1    0    0  502  503 -0.00000000000E+00 -0.00000000000E+00 -0.33388465804E+03  0.33388465804E+03  0.00000000000E+00 0. -1.
          6    1    1    2  501    0  0.47710244931E+02  0.10970154514E+03  0.92500849146E+03  0.94862026425E+03  0.17300000000E+03 0.  1.
         -6    1    1    2    0  503 -0.47710244931E+02 -0.10970154514E+03 -0.28773958169E+03  0.35641796160E+03  0.17300000000E+03 0. -1.
<mgrwt>
<rscale>  2 0.21033235E+03</rscale>
<asrwt>0</asrwt>
<pdfrwt beam="1">  1       21 0.14940824E+00 0.21033235E+03</pdfrwt>
<pdfrwt beam="2">  1       21 0.51366871E-01 0.21033235E+03</pdfrwt>
<totfact> 0.10684945E+03</totfact>
</mgrwt>
</event>
<event>
 4    1  0.3901757E+000  0.2038275E+03  0.7546771E-02  0.1146549E+00
         21   -1    0    0  503  502  0.00000000000E+00  0.00000000000E+00  0.24603299915E+04  0.24603299915E+04  0.00000000000E+00 0.  1.
         21   -1    0    0  501  503 -0.00000000000E+00 -0.00000000000E+00 -0.27242224042E+02  0.27242224042E+02  0.00000000000E+00 0.  1.
          6    1    1    2  501    0  0.21470134478E+02 -0.10562040578E+03  0.44967548761E+03  0.49371416928E+03  0.17300000000E+03 0.  1.
         -6    1    1    2    0  502 -0.21470134478E+02  0.10562040578E+03  0.19834122799E+04  0.19938580463E+04  0.17300000000E+03 0.  1.
<mgrwt>
<rscale>  2 0.20382747E+03</rscale>
<asrwt>0</asrwt>
<pdfrwt beam="1">  1       21 0.37851213E+00 0.20382747E+03</pdfrwt>
<pdfrwt beam="2">  1       21 0.41911133E-02 0.20382747E+03</pdfrwt>
<totfact> 0.42161688E+03</totfact>
</mgrwt>
</event>
<event>
 4    1  0.3901757E+000  0.1931451E+03  0.7546771E-02  0.1155655E+00
         21   -1    0    0  501  502  0.00000000000E+00  0.00000000000E+00  0.56930873877E+02  0.56930873877E+02  0.00000000000E+00 0. -1.
         21   -1    0    0  502  503 -0.00000000000E+00 -0.00000000000E+00 -0.65694313032E+03  0.65694313032E+03  0.00000000000E+00 0.  1.
          6    1    1    2  501    0  0.31906614831E+02 -0.79736992880E+02 -0.28198589781E+03  0.34179096926E+03  0.17300000000E+03 0.  1.
         -6    1    1    2    0  503 -0.31906614831E+02  0.79736992880E+02 -0.31802635863E+03  0.37208303494E+03  0.17300000000E+03 0.  1.
<mgrwt>
<rscale>  2 0.19314508E+03</rscale>
<asrwt>0</asrwt>
<pdfrwt beam="1">  1       21 0.87585961E-02 0.19314508E+03</pdfrwt>
<pdfrwt beam="2">  1       21 0.10106817E+00 0.19314508E+03</pdfrwt>
<totfact> 0.81994225E+04</totfact>
</mgrwt>
</event>
<event>
 4    1  0.3901757E+000  0.2006582E+03  0.7546771E-02  0.1149185E+00
         21   -1    0    0  501  502  0.00000000000E+00  0.00000000000E+00  0.10236901399E+03  0.10236901399E+03  0.00000000000E+00 0.  1.
         21   -1    0    0  502  503 -0.00000000000E+00 -0.00000000000E+00 -0.50790989865E+03  0.50790989865E+03  0.00000000000E+00 0. -1.
          6    1    1    2  501    0  0.61904913282E+02 -0.80637954632E+02 -0.57833289480E+02  0.20882621336E+03  0.17300000000E+03 0. -1.
         -6    1    1    2    0  503 -0.61904913282E+02  0.80637954632E+02 -0.34770759518E+03  0.40145269928E+03  0.17300000000E+03 0.  1.
<mgrwt>
<rscale>  2 0.20065816E+03</rscale>
<asrwt>0</asrwt>
<pdfrwt beam="1">  1       21 0.15749079E-01 0.20065816E+03</pdfrwt>
<pdfrwt beam="2">  1       21 0.78139987E-01 0.20065816E+03</pdfrwt>
<totfact> 0.51846481E+04</totfact>
</mgrwt>
</event>
<event>
 4    1  0.3901757E+000  0.2095149E+03  0.7546771E-02  0.1141951E+00
         21   -1    0    0  501  502  0.00000000000E+00  0.00000000000E+00  0.77276661178E+02  0.77276661178E+02  0.00000000000E+00 0.  1.
         21   -1    0    0  502  503 -0.00000000000E+00 -0.00000000000E+00 -0.95422329829E+03  0.95422329829E+03  0.00000000000E+00 0.  1.
          6    1    1    2  501    0  0.89627654040E+02  0.77034946893E+02 -0.11037120463E+03  0.23680857718E+03  0.17300000000E+03 0.  1.
         -6    1    1    2    0  503 -0.89627654040E+02 -0.77034946893E+02 -0.76657543247E+03  0.79469138229E+03  0.17300000000E+03 0.  1.
<mgrwt>
<rscale>  2 0.20951491E+03</rscale>
<asrwt>0</asrwt>
<pdfrwt beam="1">  1       21 0.11888718E-01 0.20951491E+03</pdfrwt>
<pdfrwt beam="2">  1       21 0.14680358E+00 0.20951491E+03</pdfrwt>
<totfact> 0.18660057E+04</totfact>
</mgrwt>
</event>
<event>
 4    1  0.3901757E+000  0.2774648E+03  0.7546771E-02  0.1097082E+00
         21   -1    0    0  503  502  0.00000000000E+00  0.00000000000E+00  0.13158781600E+04  0.13158781600E+04  0.00000000000E+00 0.  1.
         21   -1    0    0  501  503 -0.00000000000E+00 -0.00000000000E+00 -0.77153824380E+02  0.77153824380E+02  0.00000000000E+00 0. -1.
          6    1    1    2  501    0  0.82182557924E+02  0.20075787692E+03  0.27693590586E+03  0.39202065498E+03  0.17300000000E+03 0. -1.
         -6    1    1    2    0  502 -0.82182557924E+02 -0.20075787692E+03  0.96178842971E+03  0.10010113294E+04  0.17300000000E+03 0.  1.
<mgrwt>
<rscale>  2 0.27746477E+03</rscale>
<asrwt>0</asrwt>
<pdfrwt beam="1">  1       21 0.20244278E+00 0.27746477E+03</pdfrwt>
<pdfrwt beam="2">  1       21 0.11869820E-01 0.27746477E+03</pdfrwt>
<totfact> 0.72728052E+03</totfact>
</mgrwt>
</event>
<event>
 4    1  0.3901757E+000  0.1967051E+03  0.7546771E-02  0.1152549E+00
         21   -1    0    0  503  502  0.00000000000E+00  0.00000000000E+00  0.12268723874E+03  0.12268723874E+03  0.00000000000E+00 0. -1.
         21   -1    0    0  501  503 -0.00000000000E+00 -0.00000000000E+00 -0.54876901163E+03  0.54876901163E+03  0.00000000000E+00 0. -1.
          6    1    1    2  501    0 -0.67437155956E+02 -0.64931761901E+02 -0.43198568737E+03  0.47466255151E+03  0.17300000000E+03 0. -1.
         -6    1    1    2    0  502  0.67437155956E+02  0.64931761901E+02  0.59039144798E+01  0.19679369887E+03  0.17300000000E+03 0. -1.
<mgrwt>
<rscale>  2 0.19670512E+03</rscale>
<asrwt>0</asrwt>
<pdfrwt beam="1">  1       21 0.18874960E-01 0.19670512E+03</pdfrwt>
<pdfrwt beam="2">  1       21 0.84426002E-01 0.19670512E+03</pdfrwt>
<totfact> 0.31220171E+04</totfact>
</mgrwt>
</event>
<event>
 4    1  0.3901757E+000  0.1798631E+03  0.7546771E-02  0.1167936E+00
         21   -1    0    0  501  502  0.00000000000E+00  0.00000000000E+00  0.27344116412E+03  0.27344116412E+03  0.00000000000E+00 0.  1.
         21   -1    0    0  502  503 -0.00000000000E+00 -0.00000000000E+00 -0.57272239619E+03  0.57272239619E+03  0.00000000000E+00 0.  1.
          6    1    1    2  501    0  0.22801508947E+02  0.43610051743E+02  0.22721714402E+03  0.28979022751E+03  0.17300000000E+03 0.  1.
         -6    1    1    2    0  503 -0.22801508947E+02 -0.43610051743E+02 -0.52649837609E+03  0.55637333280E+03  0.17300000000E+03 0.  1.
<mgrwt>
<rscale>  2 0.17986313E+03</rscale>
<asrwt>0</asrwt>
<pdfrwt beam="1">  1       21 0.42067872E-01 0.17986313E+03</pdfrwt>
<pdfrwt beam="2">  1       21 0.88111138E-01 0.17986313E+03</pdfrwt>
<totfact> 0.60598498E+03</totfact>
</mgrwt>
</event>
<event>
 4    1  0.3901757E+000  0.3644618E+03  0.7546771E-02  0.1056831E+00
         21   -1    0    0  501  502  0.00000000000E+00  0.00000000000E+00  0.71594370123E+03  0.71594370123E+03  0.00000000000E+00 0. -1.
         21   -1    0    0  502  503 -0.00000000000E+00 -0.00000000000E+00 -0.18998601613E+03  0.18998601613E+03  0.00000000000E+00 0.  1.
          6    1    1    2  501    0 -0.29852364038E+03  0.11741829477E+03  0.19364479563E+03  0.41271143270E+03  0.17300000000E+03 0.  1.
         -6    1    1    2    0  503  0.29852364038E+03 -0.11741829477E+03  0.33231288947E+03  0.49321828466E+03  0.17300000000E+03 0. -1.
<mgrwt>
<rscale>  2 0.36446182E+03</rscale>
<asrwt>0</asrwt>
<pdfrwt beam="1">  1       21 0.11014518E+00 0.36446182E+03</pdfrwt>
<pdfrwt beam="2">  1       21 0.29228618E-01 0.36446182E+03</pdfrwt>
<totfact> 0.66346451E+03</totfact>
</mgrwt>
</event>
<event>
 4    1  0.3901757E+000  0.1982082E+03  0.7546771E-02  0.1151260E+00
         21   -1    0    0  501  502  0.00000000000E+00  0.00000000000E+00  0.46280321275E+02  0.46280321275E+02  0.00000000000E+00 0.  1.
         21   -1    0    0  502  503 -0.00000000000E+00 -0.00000000000E+00 -0.21183195212E+04  0.21183195212E+04  0.00000000000E+00 0.  1.
          6    1    1    2  501    0  0.95584249457E+02 -0.14870402513E+02 -0.19818602933E+03  0.28029302495E+03  0.17300000000E+03 0.  1.
         -6    1    1    2    0  503 -0.95584249457E+02  0.14870402513E+02 -0.18738531706E+04  0.18843068175E+04  0.17300000000E+03 0.  1.
<mgrwt>
<rscale>  2 0.19820817E+03</rscale>
<asrwt>0</asrwt>
<pdfrwt beam="1">  1       21 0.71200485E-02 0.19820817E+03</pdfrwt>
<pdfrwt beam="2">  1       21 0.32589535E+00 0.19820817E+03</pdfrwt>
<totfact> 0.35290829E+03</totfact>
</mgrwt>
</event>
<event>
 4    1  0.3901757E+000  0.1819070E+03  0.7546771E-02  0.1165970E+00
         21   -1    0    0  501  502  0.00000000000E+00  0.00000000000E+00  0.15839426581E+03  0.15839426581E+03  0.00000000000E+00 0. -1.
         21   -1    0    0  502  503 -0.00000000000E+00 -0.00000000000E+00 -0.27055608092E+03  0.27055608092E+03  0.00000000000E+00 0.  1.
          6    1    1    2  501    0  0.39348723155E+02  0.40160319292E+02  0.46295646940E+02  0.18770578091E+03  0.17300000000E+03 0. -1.
         -6    1    1    2    0  503 -0.39348723155E+02 -0.40160319292E+02 -0.15845746205E+03  0.24124456583E+03  0.17300000000E+03 0.  1.
<mgrwt>
<rscale>  2 0.18190705E+03</rscale>
<asrwt>0</asrwt>
<pdfrwt beam="1">  1       21 0.24368349E-01 0.18190705E+03</pdfrwt>
<pdfrwt beam="2">  1       21 0.41624012E-01 0.18190705E+03</pdfrwt>
<totfact> 0.88749826E+04</totfact>
</mgrwt>
</event>
<event>
 4    1  0.3901757E+000  0.2065180E+03  0.7546771E-02  0.1144353E+00
         21   -1    0    0  503  502  0.00000000000E+00  0.00000000000E+00  0.15048334139E+03  0.15048334139E+03  0.00000000000E+00 0. -1.
         21   -1    0    0  501  503 -0.00000000000E+00 -0.00000000000E+00 -0.54276633183E+03  0.54276633183E+03  0.00000000000E+00 0. -1.
          6    1    1    2  501    0  0.34353812886E+02  0.10742668289E+03 -0.43574602175E+03  0.48220770642E+03  0.17300000000E+03 0. -1.
         -6    1    1    2    0  502 -0.34353812886E+02 -0.10742668289E+03  0.43463031315E+02  0.21104196679E+03  0.17300000000E+03 0. -1.
<mgrwt>
<rscale>  2 0.20651798E+03</rscale>
<asrwt>0</asrwt>
<pdfrwt beam="1">  1       21 0.23151284E-01 0.20651798E+03</pdfrwt>
<pdfrwt beam="2">  1       21 0.83502511E-01 0.20651798E+03</pdfrwt>
<totfact> 0.21694185E+04</totfact>
</mgrwt>
</event>
<event>
 4    1  0.3901757E+000  0.1806179E+03  0.7546771E-02  0.1167206E+00
         21   -1    0    0  501  502  0.00000000000E+00  0.00000000000E+00  0.82891612763E+02  0.82891612763E+02  0.00000000000E+00 0.  1.
         21   -1    0    0  502  503 -0.00000000000E+00 -0.00000000000E+00 -0.39977853508E+03  0.39977853508E+03  0.00000000000E+00 0.  1.
          6    1    1    2  501    0  0.51899394947E+02 -0.53263998651E+00 -0.18854242003E+03  0.26109591160E+03  0.17300000000E+03 0.  1.
         -6    1    1    2    0  503 -0.51899394947E+02  0.53263998651E+00 -0.12834450229E+03  0.22157423625E+03  0.17300000000E+03 0.  1.
<mgrwt>
<rscale>  2 0.18061791E+03</rscale>
<asrwt>0</asrwt>
<pdfrwt beam="1">  1       21 0.12752556E-01 0.18061791E+03</pdfrwt>
<pdfrwt beam="2">  1       21 0.61504391E-01 0.18061791E+03</pdfrwt>
<totfact> 0.12981527E+05</totfact>
</mgrwt>
</event>
<event>
 4    1  0.3901757E+000  0.1788969E+03  0.7546771E-02  0.1168875E+00
         21   -1    0    0  503  502  0.00000000000E+00  0.00000000000E+00  0.10284009051E+03  0.10284009051E+03  0.00000000000E+00 0.  1.
         21   -1    0    0  501  503 -0.00000000000E+00 -0.00000000000E+00 -0.68050523640E+03  0.68050523640E+03  0.00000000000E+00 0.  1.
          6    1    1    2  501    0  0.19096084588E+02 -0.41357463272E+02 -0.57736773706E+03  0.60444818141E+03  0.17300000000E+03 0.  1.
         -6    1    1    2    0  502 -0.19096084588E+02  0.41357463272E+02 -0.29740883473E+00  0.17889714550E+03  0.17300000000E+03 0.  1.
<mgrwt>
<rscale>  2 0.17889690E+03</rscale>
<asrwt>0</asrwt>
<pdfrwt beam="1">  1       21 0.15821552E-01 0.17889690E+03</pdfrwt>
<pdfrwt beam="2">  1       21 0.10469312E+00 0.17889690E+03</pdfrwt>
<totfact> 0.26399352E+04</totfact>
</mgrwt>
</event>
<event>
 4    1  0.3901757E+000  0.2107807E+03  0.7546771E-02  0.1140949E+00
         21   -1    0    0  501  502  0.00000000000E+00  0.00000000000E+00  0.21157576617E+04  0.21157576617E+04  0.00000000000E+00 0. -1.
         21   -1    0    0  502  503 -0.00000000000E+00 -0.00000000000E+00 -0.21082672179E+02  0.21082672179E+02  0.00000000000E+00 0.  1.
          6    1    1    2  501    0  0.81295939204E+01  0.12013906491E+03  0.11147048672E+04  0.11344582082E+04  0.17300000000E+03 0.  1.
         -6    1    1    2    0  503 -0.81295939204E+01 -0.12013906491E+03  0.97997012231E+03  0.10023821257E+04  0.17300000000E+03 0.  1.
<mgrwt>
<rscale>  2 0.21078066E+03</rscale>
<asrwt>0</asrwt>
<pdfrwt beam="1">  1       21 0.32550101E+00 0.21078066E+03</pdfrwt>
<pdfrwt beam="2">  1       21 0.32434897E-02 0.21078066E+03</pdfrwt>
<totfact> 0.13262832E+04</totfact>
</mgrwt>
</event>
<event>
 4    1  0.3901757E+000  0.1859796E+03  0.7546771E-02  0.1162138E+00
         21   -1    0    0  503  502  0.00000000000E+00  0.00000000000E+00  0.30535559185E+02  0.30535559185E+02  0.00000000000E+00 0. -1.
         21   -1    0    0  501  503 -0.00000000000E+00 -0.00000000000E+00 -0.13992900501E+04  0.13992900501E+04  0.00000000000E+00 0. -1.
          6    1    1    2  501    0 -0.13896861657E+02  0.66830373501E+02 -0.99640986557E+03  0.10136177987E+04  0.17300000000E+03 0.  1.
         -6    1    1    2    0  502  0.13896861657E+02 -0.66830373501E+02 -0.37234462530E+03  0.41620781057E+03  0.17300000000E+03 0.  1.
<mgrwt>
<rscale>  2 0.18597963E+03</rscale>
<asrwt>0</asrwt>
<pdfrwt beam="1">  1       21 0.46977787E-02 0.18597963E+03</pdfrwt>
<pdfrwt beam="2">  1       21 0.21527538E+00 0.18597963E+03</pdfrwt>
<totfact> 0.32317872E+04</totfact>
</mgrwt>
</event>
<event>
 4    1  0.3901757E+000  0.2502288E+03  0.7546771E-02  0.1113160E+00
         21   -1    0    0  503  502  0.00000000000E+00  0.00000000000E+00  0.23554254851E+03  0.23554254851E+03  0.00000000000E+00 0. -1.
         21   -1    0    0  501  503 -0.00000000000E+00 -0.00000000000E+00 -0.34017310421E+03  0.34017310421E+03  0.00000000000E+00 0. -1.
          6    1    1    2  501    0  0.84901609811E+02 -0.15961575047E+03 -0.18688457269E+03  0.31231444836E+03  0.17300000000E+03 0. -1.
         -6    1    1    2    0  502 -0.84901609811E+02  0.15961575047E+03  0.82254016979E+02  0.26340120436E+03  0.17300000000E+03 0. -1.
<mgrwt>
<rscale>  2 0.25022884E+03</rscale>
<asrwt>0</asrwt>
<pdfrwt beam="1">  1       21 0.36237315E-01 0.25022884E+03</pdfrwt>
<pdfrwt beam="2">  1       21 0.52334323E-01 0.25022884E+03</pdfrwt>
<totfact> 0.24682860E+04</totfact>
</mgrwt>
</event>
<event>
 4    1  0.3901757E+000  0.1737222E+03  0.7546771E-02  0.1174021E+00
         21   -1    0    0  501  502  0.00000000000E+00  0.00000000000E+00  0.28559956589E+03  0.28559956589E+03  0.00000000000E+00 0. -1.
         21   -1    0    0  502  503 -0.00000000000E+00 -0.00000000000E+00 -0.10567051143E+03  0.10567051143E+03  0.00000000000E+00 0. -1.
          6    1    1    2  501    0  0.15703310301E+02 -0.19496912854E+01  0.90233250171E+02  0.19575861331E+03  0.17300000000E+03 0. -1.
         -6    1    1    2    0  503 -0.15703310301E+02  0.19496912854E+01  0.89695804287E+02  0.19551146400E+03  0.17300000000E+03 0. -1.
<mgrwt>
<rscale>  2 0.17372218E+03</rscale>
<asrwt>0</asrwt>
<pdfrwt beam="1">  1       21 0.43938394E-01 0.17372218E+03</pdfrwt>
<pdfrwt beam="2">  1       21 0.16257002E-01 0.17372218E+03</pdfrwt>
<totfact> 0.16952038E+05</totfact>
</mgrwt>
</event>
<event>
 4    1  0.3901757E+000  0.1904540E+03  0.7546771E-02  0.1158052E+00
         21   -1    0    0  503  502  0.00000000000E+00  0.00000000000E+00  0.12779455689E+03  0.12779455689E+03  0.00000000000E+00 0. -1.
         21   -1    0    0  501  503 -0.00000000000E+00 -0.00000000000E+00 -0.28768365574E+03  0.28768365574E+03  0.00000000000E+00 0.  1.
          6    1    1    2  501    0  0.88905685153E+01 -0.79149760246E+02 -0.10396853836E+03  0.21698429373E+03  0.17300000000E+03 0. -1.
         -6    1    1    2    0  502 -0.88905685153E+01  0.79149760246E+02 -0.55920560490E+02  0.19849391890E+03  0.17300000000E+03 0. -1.
<mgrwt>
<rscale>  2 0.19045400E+03</rscale>
<asrwt>0</asrwt>
<pdfrwt beam="1">  1       21 0.19660701E-01 0.19045400E+03</pdfrwt>
<pdfrwt beam="2">  1       21 0.44259023E-01 0.19045400E+03</pdfrwt>
<totfact> 0.11693980E+05</totfact>
</mgrwt>
</event>
<event>
 4    1  0.3901757E+000  0.1981805E+03  0.7546771E-02  0.1151283E+00
         21   -1    0    0  503  502  0.00000000000E+00  0.00000000000E+00  0.55060010685E+03  0.55060010685E+03  0.00000000000E+00 0. -1.
         21   -1    0    0  501  503 -0.00000000000E+00 -0.00000000000E+00 -0.76557082007E+02  0.76557082007E+02  0.00000000000E+00 0. -1.
          6    1    1    2  501    0  0.17633421556E+02  0.95055536192E+02  0.15510078302E+03  0.25165799294E+03  0.17300000000E+03 0. -1.
         -6    1    1    2    0  502 -0.17633421556E+02 -0.95055536192E+02  0.31894224182E+03  0.37549919592E+03  0.17300000000E+03 0. -1.
<mgrwt>
<rscale>  2 0.19818045E+03</rscale>
<asrwt>0</asrwt>
<pdfrwt beam="1">  1       21 0.84707706E-01 0.19818045E+03</pdfrwt>
<pdfrwt beam="2">  1       21 0.11778013E-01 0.19818045E+03</pdfrwt>
<totfact> 0.73093247E+04</totfact>
</mgrwt>
</event>
<event>
 4    1  0.3901757E+000  0.2707962E+03  0.7546771E-02  0.1100825E+00
         21   -1    0    0  501  502  0.00000000000E+00  0.00000000000E+00  0.19931683994E+03  0.19931683994E+03  0.00000000000E+00 0.  1.
         21   -1    0    0  502  503 -0.00000000000E+00 -0.00000000000E+00 -0.37280470168E+03  0.37280470168E+03  0.00000000000E+00 0.  1.
          6    1    1    2  501    0  0.89972705607E+02  0.18790019265E+03 -0.11952328632E+03  0.29600065224E+03  0.17300000000E+03 0.  1.
         -6    1    1    2    0  503 -0.89972705607E+02 -0.18790019265E+03 -0.53964575423E+02  0.27612088938E+03  0.17300000000E+03 0.  1.
<mgrwt>
<rscale>  2 0.27079618E+03</rscale>
<asrwt>0</asrwt>
<pdfrwt beam="1">  1       21 0.30664129E-01 0.27079618E+03</pdfrwt>
<pdfrwt beam="2">  1       21 0.57354569E-01 0.27079618E+03</pdfrwt>
<totfact> 0.28047674E+04</totfact>
</mgrwt>
</event>
<event>
 4    1  0.3901757E+000  0.1792911E+03  0.7546771E-02  0.1168491E+00
         21   -1    0    0  503  502  0.00000000000E+00  0.00000000000E+00  0.13480801457E+03  0.13480801457E+03  0.00000000000E+00 0. -1.
         21   -1    0    0  501  503 -0.00000000000E+00 -0.00000000000E+00 -0.86098590711E+03  0.86098590711E+03  0.00000000000E+00 0. -1.
          6    1    1    2  501    0  0.46317225581E+02 -0.84266499497E+01 -0.78646161854E+03  0.80663943076E+03  0.17300000000E+03 0. -1.
         -6    1    1    2    0  502 -0.46317225581E+02  0.84266499497E+01  0.60283725999E+02  0.18915449092E+03  0.17300000000E+03 0. -1.
<mgrwt>
<rscale>  2 0.17929109E+03</rscale>
<asrwt>0</asrwt>
<pdfrwt beam="1">  1       21 0.20739694E-01 0.17929109E+03</pdfrwt>
<pdfrwt beam="2">  1       21 0.13245937E+00 0.17929109E+03</pdfrwt>
<totfact> 0.89814793E+03</totfact>
</mgrwt>
</event>
<event>
 4    1  0.3901757E+000  0.1967739E+03  0.7546771E-02  0.1152490E+00
         21   -1    0    0  501  502  0.00000000000E+00  0.00000000000E+00  0.42698093817E+03  0.42698093817E+03  0.00000000000E+00 0. -1.
         21   -1    0    0  502  503 -0.00000000000E+00 -0.00000000000E+00 -0.90685951930E+02  0.90685951930E+02  0.00000000000E+00 0. -1.
          6    1    1    2  501    0 -0.52431285282E+02  0.77729883325E+02  0.16670754668E+03  0.25789800418E+03  0.17300000000E+03 0. -1.
         -6    1    1    2    0  503  0.52431285282E+02 -0.77729883325E+02  0.16958743956E+03  0.25976888593E+03  0.17300000000E+03 0. -1.
<mgrwt>
<rscale>  2 0.19677392E+03</rscale>
<asrwt>0</asrwt>
<pdfrwt beam="1">  1       21 0.65689374E-01 0.19677392E+03</pdfrwt>
<pdfrwt beam="2">  1       21 0.13951685E-01 0.19677392E+03</pdfrwt>
<totfact> 0.95140927E+04</totfact>
</mgrwt>
</event>
<event>
 4    1  0.3901757E+000  0.2089292E+03  0.7546771E-02  0.1142417E+00
         21   -1    0    0  501  502  0.00000000000E+00  0.00000000000E+00  0.88716793525E+03  0.88716793525E+03  0.00000000000E+00 0.  1.
         21   -1    0    0  502  503 -0.00000000000E+00 -0.00000000000E+00 -0.10077239817E+03  0.10077239817E+03  0.00000000000E+00 0.  1.
          6    1    1    2  501    0  0.11693777104E+03 -0.69248382911E+01  0.74656446344E+03  0.77524827878E+03  0.17300000000E+03 0.  1.
         -6    1    1    2    0  503 -0.11693777104E+03  0.69248382911E+01  0.39831073642E+02  0.21269205464E+03  0.17300000000E+03 0.  1.
<mgrwt>
<rscale>  2 0.20892916E+03</rscale>
<asrwt>0</asrwt>
<pdfrwt beam="1">  1       21 0.13648737E+00 0.20892916E+03</pdfrwt>
<pdfrwt beam="2">  1       21 0.15503446E-01 0.20892916E+03</pdfrwt>
<totfact> 0.13952709E+04</totfact>
</mgrwt>
</event>
<event>
 4    1  0.3901757E+000  0.1845321E+03  0.7546771E-02  0.1163488E+00
         21   -1    0    0  503  502  0.00000000000E+00  0.00000000000E+00  0.70121535017E+03  0.70121535017E+03  0.00000000000E+00 0.  1.
         21   -1    0    0  501  503 -0.00000000000E+00 -0.00000000000E+00 -0.48648499544E+02  0.48648499544E+02  0.00000000000E+00 0. -1.
          6    1    1    2  501    0 -0.32053758716E+02  0.55638426859E+02  0.31042920143E+03  0.36113483229E+03  0.17300000000E+03 0. -1.
         -6    1    1    2    0  502  0.32053758716E+02 -0.55638426859E+02  0.34213764920E+03  0.38872901743E+03  0.17300000000E+03 0. -1.
<mgrwt>
<rscale>  2 0.18453205E+03</rscale>
<asrwt>0</asrwt>
<pdfrwt beam="1">  1       21 0.10787928E+00 0.18453205E+03</pdfrwt>
<pdfrwt beam="2">  1       21 0.74843850E-02 0.18453205E+03</pdfrwt>
<totfact> 0.92549203E+04</totfact>
</mgrwt>
</event>
<event>
 4    1  0.3901757E+000  0.1777288E+03  0.7546771E-02  0.1170019E+00
         21   -1    0    0  503  502  0.00000000000E+00  0.00000000000E+00  0.21640790695E+02  0.21640790695E+02  0.00000000000E+00 0. -1.
         21   -1    0    0  501  503 -0.00000000000E+00 -0.00000000000E+00 -0.35514435066E+04  0.35514435066E+04  0.00000000000E+00 0. -1.
          6    1    1    2  501    0 -0.32761619418E+02  0.24190812192E+02 -0.31360117678E+04  0.31410439868E+04  0.17300000000E+03 0. -1.
         -6    1    1    2    0  502  0.32761619418E+02 -0.24190812192E+02 -0.39379094810E+03  0.43204031051E+03  0.17300000000E+03 0. -1.
<mgrwt>
<rscale>  2 0.17772878E+03</rscale>
<asrwt>0</asrwt>
<pdfrwt beam="1">  1       21 0.33293536E-02 0.17772878E+03</pdfrwt>
<pdfrwt beam="2">  1       21 0.54637573E+00 0.17772878E+03</pdfrwt>
<totfact> 0.47752051E+02</totfact>
</mgrwt>
</event>
<event>
 4    1  0.3901757E+000  0.2468438E+03  0.7546771E-02  0.1115316E+00
         21   -1    0    0  503  502  0.00000000000E+00  0.00000000000E+00  0.15949097677E+03  0.15949097677E+03  0.00000000000E+00 0. -1.
         21   -1    0    0  501  503 -0.00000000000E+00 -0.00000000000E+00 -0.46544015424E+03  0.46544015424E+03  0.00000000000E+00 0. -1.
          6    1    1    2  501    0  0.72795853949E+02 -0.16032356456E+03 -0.28524250156E+03  0.37722031547E+03  0.17300000000E+03 0. -1.
         -6    1    1    2    0  502 -0.72795853949E+02  0.16032356456E+03 -0.20706675906E+02  0.24771081553E+03  0.17300000000E+03 0. -1.
<mgrwt>
<rscale>  2 0.24684384E+03</rscale>
<asrwt>0</asrwt>
<pdfrwt beam="1">  1       21 0.24537074E-01 0.24684384E+03</pdfrwt>
<pdfrwt beam="2">  1       21 0.71606176E-01 0.24684384E+03</pdfrwt>
<totfact> 0.26892080E+04</totfact>
</mgrwt>
</event>
<event>
 4    1  0.3901757E+000  0.2290321E+03  0.7546771E-02  0.1127323E+00
         21   -1    0    0  501  502  0.00000000000E+00  0.00000000000E+00  0.18462946822E+03  0.18462946822E+03  0.00000000000E+00 0.  1.
         21   -1    0    0  502  503 -0.00000000000E+00 -0.00000000000E+00 -0.28478874081E+03  0.28478874081E+03  0.00000000000E+00 0. -1.
          6    1    1    2  501    0  0.13108230712E+03  0.73103708081E+02 -0.38650861039E+02  0.23227055869E+03  0.17300000000E+03 0. -1.
         -6    1    1    2    0  503 -0.13108230712E+03 -0.73103708081E+02 -0.61508411551E+02  0.23714765035E+03  0.17300000000E+03 0. -1.
<mgrwt>
<rscale>  2 0.22903214E+03</rscale>
<asrwt>0</asrwt>
<pdfrwt beam="1">  1       21 0.28404534E-01 0.22903214E+03</pdfrwt>
<pdfrwt beam="2">  1       21 0.43813653E-01 0.22903214E+03</pdfrwt>
<totfact> 0.58357224E+04</totfact>
</mgrwt>
</event>
<event>
 4    1  0.3901757E+000  0.1754197E+03  0.7546771E-02  0.1172311E+00
         21   -1    0    0  503  502  0.00000000000E+00  0.00000000000E+00  0.58798633424E+03  0.58798633424E+03  0.00000000000E+00 0. -1.
         21   -1    0    0  501  503 -0.00000000000E+00 -0.00000000000E+00 -0.76992929927E+02  0.76992929927E+02  0.00000000000E+00 0. -1.
          6    1    1    2  501    0 -0.23935543740E+02 -0.16436309965E+02  0.67333792426E+02  0.18789864859E+03  0.17300000000E+03 0. -1.
         -6    1    1    2    0  502  0.23935543740E+02  0.16436309965E+02  0.44365961188E+03  0.47708061557E+03  0.17300000000E+03 0. -1.
<mgrwt>
<rscale>  2 0.17541968E+03</rscale>
<asrwt>0</asrwt>
<pdfrwt beam="1">  1       21 0.90459433E-01 0.17541968E+03</pdfrwt>
<pdfrwt beam="2">  1       21 0.11845067E-01 0.17541968E+03</pdfrwt>
<totfact> 0.62863064E+04</totfact>
</mgrwt>
</event>
<event>
 4    1  0.3901757E+000  0.2571936E+03  0.7546771E-02  0.1108841E+00
         21   -1    0    0  503  502  0.00000000000E+00  0.00000000000E+00  0.70560946774E+03  0.70560946774E+03  0.00000000000E+00 0. -1.
         21   -1    0    0  501  503 -0.00000000000E+00 -0.00000000000E+00 -0.16936147361E+03  0.16936147361E+03  0.00000000000E+00 0.  1.
          6    1    1    2  501    0  0.16135176605E+03 -0.10092153857E+03 -0.24196783762E+02  0.25832931251E+03  0.17300000000E+03 0.  1.
         -6    1    1    2    0  502 -0.16135176605E+03  0.10092153857E+03  0.56044477789E+03  0.61664162884E+03  0.17300000000E+03 0. -1.
<mgrwt>
<rscale>  2 0.25719360E+03</rscale>
<asrwt>0</asrwt>
<pdfrwt beam="1">  1       21 0.10855530E+00 0.25719360E+03</pdfrwt>
<pdfrwt beam="2">  1       21 0.26055612E-01 0.25719360E+03</pdfrwt>
<totfact> 0.90523161E+03</totfact>
</mgrwt>
</event>
<event>
 4    1  0.3901757E+000  0.4071922E+03  0.7546771E-02  0.1041317E+00
         21   -1    0    0  501  502  0.00000000000E+00  0.00000000000E+00  0.37667318515E+03  0.37667318515E+03  0.00000000000E+00 0. -1.
         21   -1    0    0  502  503 -0.00000000000E+00 -0.00000000000E+00 -0.44673440808E+03  0.44673440808E+03  0.00000000000E+00 0. -1.
          6    1    1    2  501    0  0.12598356311E+03  0.34641685650E+03  0.14822866913E+02  0.40746191727E+03  0.17300000000E+03 0. -1.
         -6    1    1    2    0  503 -0.12598356311E+03 -0.34641685650E+03 -0.84884089841E+02  0.41594567596E+03  0.17300000000E+03 0. -1.
<mgrwt>
<rscale>  2 0.40719221E+03</rscale>
<asrwt>0</asrwt>
<pdfrwt beam="1">  1       21 0.57949721E-01 0.40719221E+03</pdfrwt>
<pdfrwt beam="2">  1       21 0.68728370E-01 0.40719221E+03</pdfrwt>
<totfact> 0.48051212E+03</totfact>
</mgrwt>
</event>
<event>
 4    1  0.3901757E+000  0.2570203E+03  0.7546771E-02  0.1108947E+00
         21   -1    0    0  503  502  0.00000000000E+00  0.00000000000E+00  0.20629406273E+03  0.20629406273E+03  0.00000000000E+00 0. -1.
         21   -1    0    0  501  503 -0.00000000000E+00 -0.00000000000E+00 -0.36771036023E+03  0.36771036023E+03  0.00000000000E+00 0. -1.
          6    1    1    2  501    0  0.99766882001E+02  0.16179310441E+03 -0.18385026740E+03  0.31600689897E+03  0.17300000000E+03 0. -1.
         -6    1    1    2    0  502 -0.99766882001E+02 -0.16179310441E+03  0.22433969889E+02  0.25799752399E+03  0.17300000000E+03 0. -1.
<mgrwt>
<rscale>  2 0.25702031E+03</rscale>
<asrwt>0</asrwt>
<pdfrwt beam="1">  1       21 0.31737549E-01 0.25702031E+03</pdfrwt>
<pdfrwt beam="2">  1       21 0.56570824E-01 0.25702031E+03</pdfrwt>
<totfact> 0.27151432E+04</totfact>
</mgrwt>
</event>
<event>
 4    1  0.3901757E+000  0.2040752E+03  0.7546771E-02  0.1146346E+00
         21   -1    0    0  503  502  0.00000000000E+00  0.00000000000E+00  0.12752730327E+03  0.12752730327E+03  0.00000000000E+00 0.  1.
         21   -1    0    0  501  503 -0.00000000000E+00 -0.00000000000E+00 -0.36981165551E+03  0.36981165551E+03  0.00000000000E+00 0.  1.
          6    1    1    2  501    0  0.90438433725E+02 -0.59485866001E+02 -0.20617369043E+03  0.29009355245E+03  0.17300000000E+03 0. -1.
         -6    1    1    2    0  502 -0.90438433725E+02  0.59485866001E+02 -0.36110661806E+02  0.20724540633E+03  0.17300000000E+03 0. -1.
<mgrwt>
<rscale>  2 0.20407518E+03</rscale>
<asrwt>0</asrwt>
<pdfrwt beam="1">  1       21 0.19619585E-01 0.20407518E+03</pdfrwt>
<pdfrwt beam="2">  1       21 0.56894100E-01 0.20407518E+03</pdfrwt>
<totfact> 0.69098452E+04</totfact>
</mgrwt>
</event>
<event>
 4    1  0.3901757E+000  0.2124826E+03  0.7546771E-02  0.1139615E+00
         21   -1    0    0  501  502  0.00000000000E+00  0.00000000000E+00  0.15161761126E+03  0.15161761126E+03  0.00000000000E+00 0.  1.
         21   -1    0    0  502  503 -0.00000000000E+00 -0.00000000000E+00 -0.37505251954E+03  0.37505251954E+03  0.00000000000E+00 0.  1.
          6    1    1    2  501    0  0.10612646693E+03  0.62905031857E+02  0.78111620803E+01  0.21262616083E+03  0.17300000000E+03 0.  1.
         -6    1    1    2    0  503 -0.10612646693E+03 -0.62905031857E+02 -0.23124607037E+03  0.31404396997E+03  0.17300000000E+03 0.  1.
<mgrwt>
<rscale>  2 0.21248263E+03</rscale>
<asrwt>0</asrwt>
<pdfrwt beam="1">  1       21 0.23325787E-01 0.21248263E+03</pdfrwt>
<pdfrwt beam="2">  1       21 0.57700386E-01 0.21248263E+03</pdfrwt>
<totfact> 0.48218783E+04</totfact>
</mgrwt>
</event>
<event>
 4    1  0.3901757E+000  0.1842737E+03  0.7546771E-02  0.1163730E+00
         21   -1    0    0  503  502  0.00000000000E+00  0.00000000000E+00  0.23878475205E+03  0.23878475205E+03  0.00000000000E+00 0.  1.
         21   -1    0    0  501  503 -0.00000000000E+00 -0.00000000000E+00 -0.32412431145E+03  0.32412431145E+03  0.00000000000E+00 0.  1.
          6    1    1    2  501    0  0.62694254245E+02 -0.98605616185E+01 -0.25352762863E+03  0.31342153511E+03  0.17300000000E+03 0.  1.
         -6    1    1    2    0  502 -0.62694254245E+02  0.98605616185E+01  0.16818806924E+03  0.24948752839E+03  0.17300000000E+03 0.  1.
<mgrwt>
<rscale>  2 0.18427371E+03</rscale>
<asrwt>0</asrwt>
<pdfrwt beam="1">  1       21 0.36736116E-01 0.18427371E+03</pdfrwt>
<pdfrwt beam="2">  1       21 0.49865279E-01 0.18427371E+03</pdfrwt>
<totfact> 0.27510330E+04</totfact>
</mgrwt>
</event>
<event>
 4    1  0.3901757E+000  0.1857141E+03  0.7546771E-02  0.1162385E+00
         21   -1    0    0  501  502  0.00000000000E+00  0.00000000000E+00  0.29366640914E+04  0.29366640914E+04  0.00000000000E+00 0.  1.
         21   -1    0    0  502  503 -0.00000000000E+00 -0.00000000000E+00 -0.13077094760E+02  0.13077094760E+02  0.00000000000E+00 0.  1.
          6    1    1    2  501    0  0.13106153914E+02 -0.66249191321E+02  0.19326007667E+04  0.19415033995E+04  0.17300000000E+03 0.  1.
         -6    1    1    2    0  503 -0.13106153914E+02  0.66249191321E+02  0.99098622994E+03  0.10082377867E+04  0.17300000000E+03 0.  1.
<mgrwt>
<rscale>  2 0.18571410E+03</rscale>
<asrwt>0</asrwt>
<pdfrwt beam="1">  1       21 0.45179395E+00 0.18571410E+03</pdfrwt>
<pdfrwt beam="2">  1       21 0.20118631E-02 0.18571410E+03</pdfrwt>
<totfact> 0.49856126E+03</totfact>
</mgrwt>
</event>
<event>
 4    1  0.3901757E+000  0.1770034E+03  0.7546771E-02  0.1170735E+00
         21   -1    0    0  503  502  0.00000000000E+00  0.00000000000E+00  0.24736270963E+04  0.24736270963E+04  0.00000000000E+00 0.  1.
         21   -1    0    0  501  503 -0.00000000000E+00 -0.00000000000E+00 -0.36484048940E+02  0.36484048940E+02  0.00000000000E+00 0.  1.
          6    1    1    2  501    0 -0.16245546816E+02 -0.33723867747E+02  0.20450306579E+03  0.27046574823E+03  0.17300000000E+03 0.  1.
         -6    1    1    2    0  502  0.16245546816E+02  0.33723867747E+02  0.22326399816E+04  0.22396453971E+04  0.17300000000E+03 0.  1.
<mgrwt>
<rscale>  2 0.17700344E+03</rscale>
<asrwt>0</asrwt>
<pdfrwt beam="1">  1       21 0.38055788E+00 0.17700344E+03</pdfrwt>
<pdfrwt beam="2">  1       21 0.56129326E-02 0.17700344E+03</pdfrwt>
<totfact> 0.25947884E+03</totfact>
</mgrwt>
</event>
<event>
 4    1  0.3901757E+000  0.1957353E+03  0.7546771E-02  0.1153388E+00
         21   -1    0    0  501  502  0.00000000000E+00  0.00000000000E+00  0.21054223696E+03  0.21054223696E+03  0.00000000000E+00 0. -1.
         21   -1    0    0  502  503 -0.00000000000E+00 -0.00000000000E+00 -0.33712810000E+03  0.33712810000E+03  0.00000000000E+00 0. -1.
          6    1    1    2  501    0 -0.74988923225E+02  0.52535372673E+02  0.12247870971E+03  0.23089681314E+03  0.17300000000E+03 0. -1.
         -6    1    1    2    0  503  0.74988923225E+02 -0.52535372673E+02 -0.24906457275E+03  0.31677352381E+03  0.17300000000E+03 0. -1.
<mgrwt>
<rscale>  2 0.19573529E+03</rscale>
<asrwt>0</asrwt>
<pdfrwt beam="1">  1       21 0.32391114E-01 0.19573529E+03</pdfrwt>
<pdfrwt beam="2">  1       21 0.51865861E-01 0.19573529E+03</pdfrwt>
<totfact> 0.32314389E+04</totfact>
</mgrwt>
</event>
<event>
 4    1  0.3901757E+000  0.1960622E+03  0.7546771E-02  0.1153104E+00
         21   -1    0    0  501  502  0.00000000000E+00  0.00000000000E+00  0.17586379546E+03  0.17586379546E+03  0.00000000000E+00 0. -1.
         21   -1    0    0  502  503 -0.00000000000E+00 -0.00000000000E+00 -0.30391219569E+03  0.30391219569E+03  0.00000000000E+00 0. -1.
          6    1    1    2  501    0 -0.88392894187E+02  0.26421434542E+02  0.63088705229E+02  0.20596257105E+03  0.17300000000E+03 0. -1.
         -6    1    1    2    0  503  0.88392894187E+02 -0.26421434542E+02 -0.19113710546E+03  0.27381342011E+03  0.17300000000E+03 0. -1.
<mgrwt>
<rscale>  2 0.19606222E+03</rscale>
<asrwt>0</asrwt>
<pdfrwt beam="1">  1       21 0.27055969E-01 0.19606222E+03</pdfrwt>
<pdfrwt beam="2">  1       21 0.46755722E-01 0.19606222E+03</pdfrwt>
<totfact> 0.56919429E+04</totfact>
</mgrwt>
</event>
<event>
 4    1  0.3901757E+000  0.2168879E+03  0.7546771E-02  0.1136225E+00
         21   -1    0    0  501  502  0.00000000000E+00  0.00000000000E+00  0.23104862546E+03  0.23104862546E+03  0.00000000000E+00 0. -1.
         21   -1    0    0  502  503 -0.00000000000E+00 -0.00000000000E+00 -0.35017198827E+03  0.35017198827E+03  0.00000000000E+00 0.  1.
          6    1    1    2  501    0 -0.11506037491E+03  0.62229226630E+02  0.12845789518E+03  0.25207498360E+03  0.17300000000E+03 0. -1.
         -6    1    1    2    0  503  0.11506037491E+03 -0.62229226630E+02 -0.24758125800E+03  0.32914563013E+03  0.17300000000E+03 0.  1.
<mgrwt>
<rscale>  2 0.21688791E+03</rscale>
<asrwt>0</asrwt>
<pdfrwt beam="1">  1       21 0.35545942E-01 0.21688791E+03</pdfrwt>
<pdfrwt beam="2">  1       21 0.53872613E-01 0.21688791E+03</pdfrwt>
<totfact> 0.24530577E+04</totfact>
</mgrwt>
</event>
<event>
 4    1  0.3901757E+000  0.1909082E+03  0.7546771E-02  0.1157645E+00
         21   -1    0    0  501  502  0.00000000000E+00  0.00000000000E+00  0.40393755136E+03  0.40393755136E+03  0.00000000000E+00 0. -1.
         21   -1    0    0  502  503 -0.00000000000E+00 -0.00000000000E+00 -0.10099899794E+03  0.10099899794E+03  0.00000000000E+00 0. -1.
          6    1    1    2  501    0  0.74476312629E+02 -0.31148614915E+02  0.23392146837E+03  0.30193577251E+03  0.17300000000E+03 0. -1.
         -6    1    1    2    0  503 -0.74476312629E+02  0.31148614915E+02  0.69017085047E+02  0.20300077680E+03  0.17300000000E+03 0. -1.
<mgrwt>
<rscale>  2 0.19090824E+03</rscale>
<asrwt>0</asrwt>
<pdfrwt beam="1">  1       21 0.62144238E-01 0.19090824E+03</pdfrwt>
<pdfrwt beam="2">  1       21 0.15538308E-01 0.19090824E+03</pdfrwt>
<totfact> 0.88441466E+04</totfact>
</mgrwt>
</event>
<event>
 4    1  0.3901757E+000  0.2046355E+03  0.7546771E-02  0.1145886E+00
         21   -1    0    0  501  502  0.00000000000E+00  0.00000000000E+00  0.27507136330E+03  0.27507136330E+03  0.00000000000E+00 0.  1.
         21   -1    0    0  502  503 -0.00000000000E+00 -0.00000000000E+00 -0.15902898607E+03  0.15902898607E+03  0.00000000000E+00 0.  1.
          6    1    1    2  501    0 -0.10397325013E+03 -0.33708150843E+02  0.13160847686E+02  0.20505824560E+03  0.17300000000E+03 0.  1.
         -6    1    1    2    0  503  0.10397325013E+03  0.33708150843E+02  0.10288152954E+03  0.22904210377E+03  0.17300000000E+03 0.  1.
<mgrwt>
<rscale>  2 0.20463547E+03</rscale>
<asrwt>0</asrwt>
<pdfrwt beam="1">  1       21 0.42318671E-01 0.20463547E+03</pdfrwt>
<pdfrwt beam="2">  1       21 0.24465998E-01 0.20463547E+03</pdfrwt>
<totfact> 0.84374173E+04</totfact>
</mgrwt>
</event>
<event>
 4    1  0.3901757E+000  0.2180961E+03  0.7546771E-02  0.1135311E+00
         21   -1    0    0  501  502  0.00000000000E+00  0.00000000000E+00  0.30341471982E+03  0.30341471982E+03  0.00000000000E+00 0. -1.
         21   -1    0    0  502  503 -0.00000000000E+00 -0.00000000000E+00 -0.16153561367E+03  0.16153561367E+03  0.00000000000E+00 0.  1.
          6    1    1    2  501    0 -0.11243226300E+03  0.70681560715E+02  0.11087570652E+03  0.24466164204E+03  0.17300000000E+03 0.  1.
         -6    1    1    2    0  503  0.11243226300E+03 -0.70681560715E+02  0.31003399633E+02  0.22028869144E+03  0.17300000000E+03 0. -1.
<mgrwt>
<rscale>  2 0.21809607E+03</rscale>
<asrwt>0</asrwt>
<pdfrwt beam="1">  1       21 0.46679188E-01 0.21809607E+03</pdfrwt>
<pdfrwt beam="2">  1       21 0.24851633E-01 0.21809607E+03</pdfrwt>
<totfact> 0.66567279E+04</totfact>
</mgrwt>
</event>
<event>
 4    1  0.3901757E+000  0.1804567E+03  0.7546771E-02  0.1167362E+00
         21   -1    0    0  503  502  0.00000000000E+00  0.00000000000E+00  0.13233912258E+03  0.13233912258E+03  0.00000000000E+00 0. -1.
         21   -1    0    0  501  503 -0.00000000000E+00 -0.00000000000E+00 -0.32366770572E+03  0.32366770572E+03  0.00000000000E+00 0. -1.
          6    1    1    2  501    0  0.35584211440E+02 -0.37005422385E+02 -0.20730360937E+03  0.27484436295E+03  0.17300000000E+03 0. -1.
         -6    1    1    2    0  502 -0.35584211440E+02  0.37005422385E+02  0.15975026225E+02  0.18116246535E+03  0.17300000000E+03 0. -1.
<mgrwt>
<rscale>  2 0.18045675E+03</rscale>
<asrwt>0</asrwt>
<pdfrwt beam="1">  1       21 0.20359865E-01 0.18045675E+03</pdfrwt>
<pdfrwt beam="2">  1       21 0.49795031E-01 0.18045675E+03</pdfrwt>
<totfact> 0.86221552E+04</totfact>
</mgrwt>
</event>
<event>
 4    1  0.3901757E+000  0.1761604E+03  0.7546771E-02  0.1171572E+00
         21   -1    0    0  501  502  0.00000000000E+00  0.00000000000E+00  0.40799727055E+03  0.40799727055E+03  0.00000000000E+00 0.  1.
         21   -1    0    0  502  503 -0.00000000000E+00 -0.00000000000E+00 -0.14920377382E+03  0.14920377382E+03  0.00000000000E+00 0.  1.
          6    1    1    2  501    0 -0.12484953818E+02 -0.30783116483E+02  0.32446169564E+03  0.36919895215E+03  0.17300000000E+03 0.  1.
         -6    1    1    2    0  503  0.12484953818E+02  0.30783116483E+02 -0.65668198903E+02  0.18800209222E+03  0.17300000000E+03 0.  1.
<mgrwt>
<rscale>  2 0.17616037E+03</rscale>
<asrwt>0</asrwt>
<pdfrwt beam="1">  1       21 0.62768810E-01 0.17616037E+03</pdfrwt>
<pdfrwt beam="2">  1       21 0.22954427E-01 0.17616037E+03</pdfrwt>
<totfact> 0.42233631E+04</totfact>
</mgrwt>
</event>
<event>
 4    1  0.3901757E+000  0.1918150E+03  0.7546771E-02  0.1156834E+00
         21   -1    0    0  501  502  0.00000000000E+00  0.00000000000E+00  0.23358353362E+03  0.23358353362E+03  0.00000000000E+00 0. -1.
         21   -1    0    0  502  503 -0.00000000000E+00 -0.00000000000E+00 -0.60017161933E+03  0.60017161933E+03  0.00000000000E+00 0. -1.
          6    1    1    2  501    0  0.61865407983E+02 -0.55105881460E+02  0.17472335244E+03  0.25946336305E+03  0.17300000000E+03 0. -1.
         -6    1    1    2    0  503 -0.61865407983E+02  0.55105881460E+02 -0.54131143815E+03  0.57429178990E+03  0.17300000000E+03 0. -1.
<mgrwt>
<rscale>  2 0.19181498E+03</rscale>
<asrwt>0</asrwt>
<pdfrwt beam="1">  1       21 0.35935928E-01 0.19181498E+03</pdfrwt>
<pdfrwt beam="2">  1       21 0.92334095E-01 0.19181498E+03</pdfrwt>
<totfact> 0.73972521E+03</totfact>
</mgrwt>
</event>
<event>
 4    1  0.3901757E+000  0.1854801E+03  0.7546771E-02  0.1162602E+00
         21   -1    0    0  503  502  0.00000000000E+00  0.00000000000E+00  0.59280682431E+03  0.59280682431E+03  0.00000000000E+00 0. -1.
         21   -1    0    0  501  503 -0.00000000000E+00 -0.00000000000E+00 -0.59045946772E+02  0.59045946772E+02  0.00000000000E+00 0.  1.
          6    1    1    2  501    0  0.62447584781E+02  0.23961755667E+02  0.22420932745E+03  0.29098571974E+03  0.17300000000E+03 0.  1.
         -6    1    1    2    0  502 -0.62447584781E+02 -0.23961755667E+02  0.30955155009E+03  0.36086705134E+03  0.17300000000E+03 0. -1.
<mgrwt>
<rscale>  2 0.18548010E+03</rscale>
<asrwt>0</asrwt>
<pdfrwt beam="1">  1       21 0.91201046E-01 0.18548010E+03</pdfrwt>
<pdfrwt beam="2">  1       21 0.90839922E-02 0.18548010E+03</pdfrwt>
<totfact> 0.98193008E+04</totfact>
</mgrwt>
</event>
<event>
 4    1  0.3901757E+000  0.2485183E+03  0.7546771E-02  0.1114245E+00
         21   -1    0    0  503  502  0.00000000000E+00  0.00000000000E+00  0.91350932516E+03  0.91350932516E+03  0.00000000000E+00 0. -1.
         21   -1    0    0  501  503 -0.00000000000E+00 -0.00000000000E+00 -0.96404619690E+02  0.96404619690E+02  0.00000000000E+00 0. -1.
          6    1    1    2  501    0 -0.16286889966E+03  0.72842718834E+02  0.13257745066E+03  0.28167023376E+03  0.17300000000E+03 0. -1.
         -6    1    1    2    0  502  0.16286889966E+03 -0.72842718834E+02  0.68452725481E+03  0.72824371109E+03  0.17300000000E+03 0. -1.
<mgrwt>
<rscale>  2 0.24851829E+03</rscale>
<asrwt>0</asrwt>
<pdfrwt beam="1">  1       21 0.14053989E+00 0.24851829E+03</pdfrwt>
<pdfrwt beam="2">  1       21 0.14831481E-01 0.24851829E+03</pdfrwt>
<totfact> 0.13687349E+04</totfact>
</mgrwt>
</event>
<event>
 4    1  0.3901757E+000  0.2782630E+03  0.7546771E-02  0.1096641E+00
         21   -1    0    0  501  502  0.00000000000E+00  0.00000000000E+00  0.18026543955E+04  0.18026543955E+04  0.00000000000E+00 0.  1.
         21   -1    0    0  502  503 -0.00000000000E+00 -0.00000000000E+00 -0.11599413354E+03  0.11599413354E+03  0.00000000000E+00 0.  1.
          6    1    1    2  501    0 -0.12976704950E+03  0.17510516968E+03  0.16045843204E+04  0.16285334350E+04  0.17300000000E+03 0.  1.
         -6    1    1    2    0  503  0.12976704950E+03 -0.17510516968E+03  0.82075941491E+02  0.29011509398E+03  0.17300000000E+03 0.  1.
<mgrwt>
<rscale>  2 0.27826302E+03</rscale>
<asrwt>0</asrwt>
<pdfrwt beam="1">  1       21 0.27733143E+00 0.27826302E+03</pdfrwt>
<pdfrwt beam="2">  1       21 0.17845253E-01 0.27826302E+03</pdfrwt>
<totfact> 0.12012668E+03</totfact>
</mgrwt>
</event>
<event>
 4    1  0.3901757E+000  0.2120626E+03  0.7546771E-02  0.1139943E+00
         21   -1    0    0  503  502  0.00000000000E+00  0.00000000000E+00  0.37804957819E+03  0.37804957819E+03  0.00000000000E+00 0.  1.
         21   -1    0    0  501  503 -0.00000000000E+00 -0.00000000000E+00 -0.14133164774E+03  0.14133164774E+03  0.00000000000E+00 0.  1.
          6    1    1    2  501    0 -0.11499922465E+03 -0.42622903300E+02  0.15024989253E+02  0.21259417645E+03  0.17300000000E+03 0.  1.
         -6    1    1    2    0  502  0.11499922465E+03  0.42622903300E+02  0.22169294120E+03  0.30678704949E+03  0.17300000000E+03 0.  1.
<mgrwt>
<rscale>  2 0.21206257E+03</rscale>
<asrwt>0</asrwt>
<pdfrwt beam="1">  1       21 0.58161473E-01 0.21206257E+03</pdfrwt>
<pdfrwt beam="2">  1       21 0.21743331E-01 0.21206257E+03</pdfrwt>
<totfact> 0.54159718E+04</totfact>
</mgrwt>
</event>
<event>
 4    1  0.3901757E+000  0.3271207E+03  0.7546771E-02  0.1072418E+00
         21   -1    0    0  501  502  0.00000000000E+00  0.00000000000E+00  0.15464496874E+03  0.15464496874E+03  0.00000000000E+00 0. -1.
         21   -1    0    0  502  503 -0.00000000000E+00 -0.00000000000E+00 -0.15159808152E+04  0.15159808152E+04  0.00000000000E+00 0.  1.
          6    1    1    2  501    0 -0.72926929582E+02 -0.26788175033E+03 -0.64822524301E+02  0.33348152704E+03  0.17300000000E+03 0. -1.
         -6    1    1    2    0  503  0.72926929582E+02  0.26788175033E+03 -0.12965133221E+04  0.13371442569E+04  0.17300000000E+03 0.  1.
<mgrwt>
<rscale>  2 0.32712073E+03</rscale>
<asrwt>0</asrwt>
<pdfrwt beam="1">  1       21 0.23791533E-01 0.32712073E+03</pdfrwt>
<pdfrwt beam="2">  1       21 0.23322782E+00 0.32712073E+03</pdfrwt>
<totfact> 0.12357475E+03</totfact>
</mgrwt>
</event>
<event>
 4    1  0.3901757E+000  0.2843870E+03  0.7546771E-02  0.1093317E+00
         21   -1    0    0  503  502  0.00000000000E+00  0.00000000000E+00  0.18712916801E+03  0.18712916801E+03  0.00000000000E+00 0. -1.
         21   -1    0    0  501  503 -0.00000000000E+00 -0.00000000000E+00 -0.43803429899E+03  0.43803429899E+03  0.00000000000E+00 0. -1.
          6    1    1    2  501    0  0.15544460127E+03 -0.16365794685E+03 -0.89356649143E+02  0.29809488150E+03  0.17300000000E+03 0. -1.
         -6    1    1    2    0  502 -0.15544460127E+03  0.16365794685E+03 -0.16154848184E+03  0.32706858549E+03  0.17300000000E+03 0. -1.
<mgrwt>
<rscale>  2 0.28438697E+03</rscale>
<asrwt>0</asrwt>
<pdfrwt beam="1">  1       21 0.28789103E-01 0.28438697E+03</pdfrwt>
<pdfrwt beam="2">  1       21 0.67389892E-01 0.28438697E+03</pdfrwt>
<totfact> 0.22211270E+04</totfact>
</mgrwt>
</event>
<event>
 4    1  0.3901757E+000  0.1739875E+03  0.7546771E-02  0.1173752E+00
         21   -1    0    0  503  502  0.00000000000E+00  0.00000000000E+00  0.64139187490E+02  0.64139187490E+02  0.00000000000E+00 0.  1.
         21   -1    0    0  501  503 -0.00000000000E+00 -0.00000000000E+00 -0.47214503135E+03  0.47214503135E+03  0.00000000000E+00 0.  1.
          6    1    1    2  501    0  0.11804420466E+02 -0.14258507785E+02 -0.19881193240E+03  0.26419279675E+03  0.17300000000E+03 0.  1.
         -6    1    1    2    0  502 -0.11804420466E+02  0.14258507785E+02 -0.20919391146E+03  0.27209142210E+03  0.17300000000E+03 0.  1.
<mgrwt>
<rscale>  2 0.17398750E+03</rscale>
<asrwt>0</asrwt>
<pdfrwt beam="1">  1       21 0.98675673E-02 0.17398750E+03</pdfrwt>
<pdfrwt beam="2">  1       21 0.72637697E-01 0.17398750E+03</pdfrwt>
<totfact> 0.14276511E+05</totfact>
</mgrwt>
</event>
<event>
 4    1  0.3901757E+000  0.2376715E+03  0.7546771E-02  0.1121354E+00
         21   -1    0    0  503  502  0.00000000000E+00  0.00000000000E+00  0.73657032566E+02  0.73657032566E+02  0.00000000000E+00 0. -1.
         21   -1    0    0  501  503 -0.00000000000E+00 -0.00000000000E+00 -0.79572426938E+03  0.79572426938E+03  0.00000000000E+00 0.  1.
          6    1    1    2  501    0 -0.16290241859E+03 -0.46425204006E+01 -0.44376313508E+03  0.50340189812E+03  0.17300000000E+03 0. -1.
         -6    1    1    2    0  502  0.16290241859E+03  0.46425204006E+01 -0.27830410174E+03  0.36597940382E+03  0.17300000000E+03 0.  1.
<mgrwt>
<rscale>  2 0.23767152E+03</rscale>
<asrwt>0</asrwt>
<pdfrwt beam="1">  1       21 0.11331852E-01 0.23767152E+03</pdfrwt>
<pdfrwt beam="2">  1       21 0.12241911E+00 0.23767152E+03</pdfrwt>
<totfact> 0.31869903E+04</totfact>
</mgrwt>
</event>
<event>
 4    1  0.3901757E+000  0.2171645E+03  0.7546771E-02  0.1136015E+00
         21   -1    0    0  501  502  0.00000000000E+00  0.00000000000E+00  0.37343793535E+03  0.37343793535E+03  0.00000000000E+00 0. -1.
         21   -1    0    0  502  503 -0.00000000000E+00 -0.00000000000E+00 -0.13055582478E+03  0.13055582478E+03  0.00000000000E+00 0. -1.
          6    1    1    2  501    0  0.12578607622E+03 -0.37540606831E+02  0.75875083944E+02  0.23003795881E+03  0.17300000000E+03 0. -1.
         -6    1    1    2    0  503 -0.12578607622E+03  0.37540606831E+02  0.16700702662E+03  0.27395580131E+03  0.17300000000E+03 0. -1.
<mgrwt>
<rscale>  2 0.21716453E+03</rscale>
<asrwt>0</asrwt>
<pdfrwt beam="1">  1       21 0.57451990E-01 0.21716453E+03</pdfrwt>
<pdfrwt beam="2">  1       21 0.20085512E-01 0.21716453E+03</pdfrwt>
<totfact> 0.64397684E+04</totfact>
</mgrwt>
</event>
<event>
 4    1  0.3901757E+000  0.1911273E+03  0.7546771E-02  0.1157448E+00
         21   -1    0    0  503  502  0.00000000000E+00  0.00000000000E+00  0.21251371574E+03  0.21251371574E+03  0.00000000000E+00 0. -1.
         21   -1    0    0  501  503 -0.00000000000E+00 -0.00000000000E+00 -0.17189334626E+03  0.17189334626E+03  0.00000000000E+00 0. -1.
          6    1    1    2  501    0  0.38776320272E+02  0.71393665778E+02  0.20121519373E+02  0.19218359469E+03  0.17300000000E+03 0. -1.
         -6    1    1    2    0  502 -0.38776320272E+02 -0.71393665778E+02  0.20498850105E+02  0.19222346730E+03  0.17300000000E+03 0. -1.
<mgrwt>
<rscale>  2 0.19112734E+03</rscale>
<asrwt>0</asrwt>
<pdfrwt beam="1">  1       21 0.32694418E-01 0.19112734E+03</pdfrwt>
<pdfrwt beam="2">  1       21 0.26445130E-01 0.19112734E+03</pdfrwt>
<totfact> 0.12253985E+05</totfact>
</mgrwt>
</event>
<event>
 4    1  0.3901757E+000  0.2327418E+03  0.7546771E-02  0.1124725E+00
         21   -1    0    0  501  502  0.00000000000E+00  0.00000000000E+00  0.91125407324E+03  0.91125407324E+03  0.00000000000E+00 0.  1.
         21   -1    0    0  502  503 -0.00000000000E+00 -0.00000000000E+00 -0.64984992512E+02  0.64984992512E+02  0.00000000000E+00 0. -1.
          6    1    1    2  501    0  0.15189166854E+03 -0.34185874459E+02  0.56566454495E+03  0.61167403934E+03  0.17300000000E+03 0.  1.
         -6    1    1    2    0  503 -0.15189166854E+03  0.34185874459E+02  0.28060453578E+03  0.36456502642E+03  0.17300000000E+03 0. -1.
<mgrwt>
<rscale>  2 0.23274182E+03</rscale>
<asrwt>0</asrwt>
<pdfrwt beam="1">  1       21 0.14019292E+00 0.23274182E+03</pdfrwt>
<pdfrwt beam="2">  1       21 0.99976918E-02 0.23274182E+03</pdfrwt>
<totfact> 0.28271569E+04</totfact>
</mgrwt>
</event>
<event>
 4    1  0.3901757E+000  0.2105119E+03  0.7546771E-02  0.1141161E+00
         21   -1    0    0  503  502  0.00000000000E+00  0.00000000000E+00  0.89653641842E+02  0.89653641842E+02  0.00000000000E+00 0.  1.
         21   -1    0    0  501  503 -0.00000000000E+00 -0.00000000000E+00 -0.51739433157E+03  0.51739433157E+03  0.00000000000E+00 0. -1.
          6    1    1    2  501    0  0.11993561969E+03  0.13000110506E+01 -0.14973568508E+03  0.25833315367E+03  0.17300000000E+03 0. -1.
         -6    1    1    2    0  502 -0.11993561969E+03 -0.13000110506E+01 -0.27800500465E+03  0.34871481974E+03  0.17300000000E+03 0.  1.
<mgrwt>
<rscale>  2 0.21051186E+03</rscale>
<asrwt>0</asrwt>
<pdfrwt beam="1">  1       21 0.13792868E-01 0.21051186E+03</pdfrwt>
<pdfrwt beam="2">  1       21 0.79599126E-01 0.21051186E+03</pdfrwt>
<totfact> 0.63015112E+04</totfact>
</mgrwt>
</event>
<event>
 4    1  0.3901757E+000  0.2194210E+03  0.7546771E-02  0.1134315E+00
         21   -1    0    0  501  502  0.00000000000E+00  0.00000000000E+00  0.64711532250E+03  0.64711532250E+03  0.00000000000E+00 0. -1.
         21   -1    0    0  502  503 -0.00000000000E+00 -0.00000000000E+00 -0.74826857278E+02  0.74826857278E+02  0.00000000000E+00 0. -1.
          6    1    1    2  501    0  0.54743504515E+02 -0.12336829142E+03  0.31339774767E+03  0.38257513622E+03  0.17300000000E+03 0. -1.
         -6    1    1    2    0  503 -0.54743504515E+02  0.12336829142E+03  0.25889071756E+03  0.33936704356E+03  0.17300000000E+03 0. -1.
<mgrwt>
<rscale>  2 0.21942103E+03</rscale>
<asrwt>0</asrwt>
<pdfrwt beam="1">  1       21 0.99556200E-01 0.21942103E+03</pdfrwt>
<pdfrwt beam="2">  1       21 0.11511825E-01 0.21942103E+03</pdfrwt>
<totfact> 0.51745417E+04</totfact>
</mgrwt>
</event>
<event>
 4    1  0.3901757E+000  0.2586239E+03  0.7546771E-02  0.1107973E+00
         21   -1    0    0  503  502  0.00000000000E+00  0.00000000000E+00  0.18864395113E+03  0.18864395113E+03  0.00000000000E+00 0. -1.
         21   -1    0    0  501  503 -0.00000000000E+00 -0.00000000000E+00 -0.43155702774E+03  0.43155702774E+03  0.00000000000E+00 0. -1.
          6    1    1    2  501    0  0.19223590763E+03  0.16334307375E+01 -0.25243795287E+03  0.36140176027E+03  0.17300000000E+03 0. -1.
         -6    1    1    2    0  502 -0.19223590763E+03 -0.16334307375E+01  0.95248762667E+01  0.25879921860E+03  0.17300000000E+03 0. -1.
<mgrwt>
<rscale>  2 0.25862388E+03</rscale>
<asrwt>0</asrwt>
<pdfrwt beam="1">  1       21 0.29022146E-01 0.25862388E+03</pdfrwt>
<pdfrwt beam="2">  1       21 0.66393389E-01 0.25862388E+03</pdfrwt>
<totfact> 0.22848931E+04</totfact>
</mgrwt>
</event>
<event>
 4    1  0.3901757E+000  0.2402830E+03  0.7546771E-02  0.1119604E+00
         21   -1    0    0  501  502  0.00000000000E+00  0.00000000000E+00  0.14904789216E+03  0.14904789216E+03  0.00000000000E+00 0.  1.
         21   -1    0    0  502  503 -0.00000000000E+00 -0.00000000000E+00 -0.41190718897E+03  0.41190718897E+03  0.00000000000E+00 0.  1.
          6    1    1    2  501    0  0.16091718190E+03 -0.43732830225E+02 -0.62966440975E+02  0.24839620078E+03  0.17300000000E+03 0. -1.
         -6    1    1    2    0  503 -0.16091718190E+03  0.43732830225E+02 -0.19989285584E+03  0.31255888035E+03  0.17300000000E+03 0. -1.
<mgrwt>
<rscale>  2 0.24028296E+03</rscale>
<asrwt>0</asrwt>
<pdfrwt beam="1">  1       21 0.22930445E-01 0.24028296E+03</pdfrwt>
<pdfrwt beam="2">  1       21 0.63370336E-01 0.24028296E+03</pdfrwt>
<totfact> 0.40177835E+04</totfact>
</mgrwt>
</event>
<event>
 4    1  0.3901757E+000  0.1820898E+03  0.7546771E-02  0.1165796E+00
         21   -1    0    0  501  502  0.00000000000E+00  0.00000000000E+00  0.39054821068E+03  0.39054821068E+03  0.00000000000E+00 0.  1.
         21   -1    0    0  502  503 -0.00000000000E+00 -0.00000000000E+00 -0.13226318379E+03  0.13226318379E+03  0.00000000000E+00 0.  1.
          6    1    1    2  501    0  0.50878826895E+02 -0.25279350570E+02  0.28557462100E+03  0.33868800503E+03  0.17300000000E+03 0.  1.
         -6    1    1    2    0  503 -0.50878826895E+02  0.25279350570E+02 -0.27289594108E+02  0.18412338944E+03  0.17300000000E+03 0.  1.
<mgrwt>
<rscale>  2 0.18208981E+03</rscale>
<asrwt>0</asrwt>
<pdfrwt beam="1">  1       21 0.60084340E-01 0.18208981E+03</pdfrwt>
<pdfrwt beam="2">  1       21 0.20348182E-01 0.18208981E+03</pdfrwt>
<totfact> 0.58016356E+04</totfact>
</mgrwt>
</event>
<event>
 4    1  0.3901757E+000  0.2071221E+03  0.7546771E-02  0.1143865E+00
         21   -1    0    0  503  502  0.00000000000E+00  0.00000000000E+00  0.89498490412E+02  0.89498490412E+02  0.00000000000E+00 0. -1.
         21   -1    0    0  501  503 -0.00000000000E+00 -0.00000000000E+00 -0.49702582684E+03  0.49702582684E+03  0.00000000000E+00 0.  1.
          6    1    1    2  501    0  0.19935380038E+02 -0.11213002588E+03 -0.25909455190E+03  0.33170702270E+03  0.17300000000E+03 0.  1.
         -6    1    1    2    0  502 -0.19935380038E+02  0.11213002588E+03 -0.14843278452E+03  0.25481729455E+03  0.17300000000E+03 0. -1.
<mgrwt>
<rscale>  2 0.20712209E+03</rscale>
<asrwt>0</asrwt>
<pdfrwt beam="1">  1       21 0.13768999E-01 0.20712209E+03</pdfrwt>
<pdfrwt beam="2">  1       21 0.76465511E-01 0.20712209E+03</pdfrwt>
<totfact> 0.69309240E+04</totfact>
</mgrwt>
</event>
<event>
 4    1  0.3901757E+000  0.2570775E+03  0.7546771E-02  0.1108912E+00
         21   -1    0    0  503  502  0.00000000000E+00  0.00000000000E+00  0.12493966182E+03  0.12493966182E+03  0.00000000000E+00 0.  1.
         21   -1    0    0  501  503 -0.00000000000E+00 -0.00000000000E+00 -0.53342597001E+03  0.53342597001E+03  0.00000000000E+00 0. -1.
          6    1    1    2  501    0  0.18594157489E+03 -0.39819350230E+02 -0.23434267000E+03  0.34785821380E+03  0.17300000000E+03 0.  1.
         -6    1    1    2    0  502 -0.18594157489E+03  0.39819350230E+02 -0.17414363819E+03  0.31050741802E+03  0.17300000000E+03 0.  1.
<mgrwt>
<rscale>  2 0.25707752E+03</rscale>
<asrwt>0</asrwt>
<pdfrwt beam="1">  1       21 0.19221486E-01 0.25707752E+03</pdfrwt>
<pdfrwt beam="2">  1       21 0.82065534E-01 0.25707752E+03</pdfrwt>
<totfact> 0.31248595E+04</totfact>
</mgrwt>
</event>
<event>
 4    1  0.3901757E+000  0.2599832E+03  0.7546771E-02  0.1107153E+00
         21   -1    0    0  503  502  0.00000000000E+00  0.00000000000E+00  0.16245195699E+03  0.16245195699E+03  0.00000000000E+00 0.  1.
         21   -1    0    0  501  503 -0.00000000000E+00 -0.00000000000E+00 -0.60612565536E+03  0.60612565536E+03  0.00000000000E+00 0. -1.
          6    1    1    2  501    0 -0.10276759972E+03 -0.16462407006E+03 -0.43702465425E+03  0.50850940248E+03  0.17300000000E+03 0. -1.
         -6    1    1    2    0  502  0.10276759972E+03  0.16462407006E+03 -0.66490441235E+01  0.26006820987E+03  0.17300000000E+03 0.  1.
<mgrwt>
<rscale>  2 0.25998320E+03</rscale>
<asrwt>0</asrwt>
<pdfrwt beam="1">  1       21 0.24992609E-01 0.25998320E+03</pdfrwt>
<pdfrwt beam="2">  1       21 0.93250099E-01 0.25998320E+03</pdfrwt>
<totfact> 0.14096757E+04</totfact>
</mgrwt>
</event>
<event>
 4    1  0.3901757E+000  0.2271668E+03  0.7546771E-02  0.1128650E+00
         21   -1    0    0  503  502  0.00000000000E+00  0.00000000000E+00  0.24315333703E+03  0.24315333703E+03  0.00000000000E+00 0.  1.
         21   -1    0    0  501  503 -0.00000000000E+00 -0.00000000000E+00 -0.30373167539E+03  0.30373167539E+03  0.00000000000E+00 0.  1.
          6    1    1    2  501    0  0.14356522682E+03  0.32630968365E+02 -0.18037246767E+03  0.29006720177E+03  0.17300000000E+03 0.  1.
         -6    1    1    2    0  502 -0.14356522682E+03 -0.32630968365E+02  0.11979412931E+03  0.25681781065E+03  0.17300000000E+03 0.  1.
<mgrwt>
<rscale>  2 0.22716680E+03</rscale>
<asrwt>0</asrwt>
<pdfrwt beam="1">  1       21 0.37408206E-01 0.22716680E+03</pdfrwt>
<pdfrwt beam="2">  1       21 0.46727950E-01 0.22716680E+03</pdfrwt>
<totfact> 0.29675647E+04</totfact>
</mgrwt>
</event>
<event>
 4    1  0.3901757E+000  0.1984319E+03  0.7546771E-02  0.1151069E+00
         21   -1    0    0  503  502  0.00000000000E+00  0.00000000000E+00  0.49020463241E+03  0.49020463241E+03  0.00000000000E+00 0. -1.
         21   -1    0    0  501  503 -0.00000000000E+00 -0.00000000000E+00 -0.81171340877E+02  0.81171340877E+02  0.00000000000E+00 0.  1.
          6    1    1    2  501    0 -0.96611208683E+02  0.10607089548E+02  0.17532898724E+03  0.26479329629E+03  0.17300000000E+03 0. -1.
         -6    1    1    2    0  502  0.96611208683E+02 -0.10607089548E+02  0.23370430430E+03  0.30658267701E+03  0.17300000000E+03 0.  1.
<mgrwt>
<rscale>  2 0.19843194E+03</rscale>
<asrwt>0</asrwt>
<pdfrwt beam="1">  1       21 0.75416095E-01 0.19843194E+03</pdfrwt>
<pdfrwt beam="2">  1       21 0.12487899E-01 0.19843194E+03</pdfrwt>
<totfact> 0.85588943E+04</totfact>
</mgrwt>
</event>
<event>
 4    1  0.3901757E+000  0.1866822E+03  0.7546771E-02  0.1161488E+00
         21   -1    0    0  503  502  0.00000000000E+00  0.00000000000E+00  0.41724814633E+02  0.41724814633E+02  0.00000000000E+00 0.  1.
         21   -1    0    0  501  503 -0.00000000000E+00 -0.00000000000E+00 -0.87460056394E+03  0.87460056394E+03  0.00000000000E+00 0.  1.
          6    1    1    2  501    0  0.70151642978E+02 -0.26339084660E-02 -0.31924307986E+03  0.36981941142E+03  0.17300000000E+03 0.  1.
         -6    1    1    2    0  502 -0.70151642978E+02  0.26339084660E-02 -0.51363266945E+03  0.54650596716E+03  0.17300000000E+03 0.  1.
<mgrwt>
<rscale>  2 0.18668222E+03</rscale>
<asrwt>0</asrwt>
<pdfrwt beam="1">  1       21 0.64192029E-02 0.18668222E+03</pdfrwt>
<pdfrwt beam="2">  1       21 0.13455392E+00 0.18668222E+03</pdfrwt>
<totfact> 0.69774976E+04</totfact>
</mgrwt>
</event>
<event>
 4    1  0.3901757E+000  0.1804827E+03  0.7546771E-02  0.1167337E+00
         21   -1    0    0  503  502  0.00000000000E+00  0.00000000000E+00  0.13931803721E+03  0.13931803721E+03  0.00000000000E+00 0.  1.
         21   -1    0    0  501  503 -0.00000000000E+00 -0.00000000000E+00 -0.23432686010E+03  0.23432686010E+03  0.00000000000E+00 0.  1.
          6    1    1    2  501    0 -0.27298618575E+02 -0.43586779298E+02 -0.38734636920E+02  0.18459250798E+03  0.17300000000E+03 0. -1.
         -6    1    1    2    0  502  0.27298618575E+02  0.43586779298E+02 -0.56274185962E+02  0.18905238933E+03  0.17300000000E+03 0. -1.
<mgrwt>
<rscale>  2 0.18048275E+03</rscale>
<asrwt>0</asrwt>
<pdfrwt beam="1">  1       21 0.21433544E-01 0.18048275E+03</pdfrwt>
<pdfrwt beam="2">  1       21 0.36050286E-01 0.18048275E+03</pdfrwt>
<totfact> 0.15102672E+05</totfact>
</mgrwt>
</event>
<event>
 4    1  0.3901757E+000  0.2386292E+03  0.7546771E-02  0.1120709E+00
         21   -1    0    0  501  502  0.00000000000E+00  0.00000000000E+00  0.77809551353E+02  0.77809551353E+02  0.00000000000E+00 0. -1.
         21   -1    0    0  502  503 -0.00000000000E+00 -0.00000000000E+00 -0.90575098452E+03  0.90575098452E+03  0.00000000000E+00 0. -1.
          6    1    1    2  501    0  0.33366290816E+02 -0.16093974265E+03 -0.19847734282E+03  0.31038228967E+03  0.17300000000E+03 0. -1.
         -6    1    1    2    0  503 -0.33366290816E+02  0.16093974265E+03 -0.62946409035E+03  0.67317824621E+03  0.17300000000E+03 0. -1.
<mgrwt>
<rscale>  2 0.23862923E+03</rscale>
<asrwt>0</asrwt>
<pdfrwt beam="1">  1       21 0.11970701E-01 0.23862923E+03</pdfrwt>
<pdfrwt beam="2">  1       21 0.13934630E+00 0.23862923E+03</pdfrwt>
<totfact> 0.20755948E+04</totfact>
</mgrwt>
</event>
<event>
 4    1  0.3901757E+000  0.2026480E+03  0.7546771E-02  0.1147524E+00
         21   -1    0    0  501  502  0.00000000000E+00  0.00000000000E+00  0.23233800492E+03  0.23233800492E+03  0.00000000000E+00 0. -1.
         21   -1    0    0  502  503 -0.00000000000E+00 -0.00000000000E+00 -0.28512985890E+03  0.28512985890E+03  0.00000000000E+00 0. -1.
          6    1    1    2  501    0  0.48491177230E+02  0.93732665167E+02  0.13311936548E+03  0.24246024881E+03  0.17300000000E+03 0. -1.
         -6    1    1    2    0  503 -0.48491177230E+02 -0.93732665167E+02 -0.18591121946E+03  0.27500761500E+03  0.17300000000E+03 0. -1.
<mgrwt>
<rscale>  2 0.20264799E+03</rscale>
<asrwt>0</asrwt>
<pdfrwt beam="1">  1       21 0.35744309E-01 0.20264799E+03</pdfrwt>
<pdfrwt beam="2">  1       21 0.43866132E-01 0.20264799E+03</pdfrwt>
<totfact> 0.37487062E+04</totfact>
</mgrwt>
</event>
<event>
 4    1  0.3901757E+000  0.2266869E+03  0.7546771E-02  0.1128994E+00
         21   -1    0    0  503  502  0.00000000000E+00  0.00000000000E+00  0.12478436893E+04  0.12478436893E+04  0.00000000000E+00 0.  1.
         21   -1    0    0  501  503 -0.00000000000E+00 -0.00000000000E+00 -0.41180599354E+02  0.41180599354E+02  0.00000000000E+00 0. -1.
          6    1    1    2  501    0  0.24452831483E+02  0.14442992862E+03  0.60354768428E+03  0.64471447359E+03  0.17300000000E+03 0.  1.
         -6    1    1    2    0  502 -0.24452831483E+02 -0.14442992862E+03  0.60311540571E+03  0.64430981511E+03  0.17300000000E+03 0. -1.
<mgrwt>
<rscale>  2 0.22668689E+03</rscale>
<asrwt>0</asrwt>
<pdfrwt beam="1">  1       21 0.19197592E+00 0.22668689E+03</pdfrwt>
<pdfrwt beam="2">  1       21 0.63354778E-02 0.22668689E+03</pdfrwt>
<totfact> 0.26568744E+04</totfact>
</mgrwt>
</event>
<event>
 4    1  0.3901757E+000  0.2004963E+03  0.7546771E-02  0.1149321E+00
         21   -1    0    0  503  502  0.00000000000E+00  0.00000000000E+00  0.23041742611E+03  0.23041742611E+03  0.00000000000E+00 0. -1.
         21   -1    0    0  501  503 -0.00000000000E+00 -0.00000000000E+00 -0.30103633629E+03  0.30103633629E+03  0.00000000000E+00 0. -1.
          6    1    1    2  501    0 -0.13515043337E+02  0.10043450972E+03 -0.20761584177E+03  0.28862273801E+03  0.17300000000E+03 0. -1.
         -6    1    1    2    0  502  0.13515043337E+02 -0.10043450972E+03  0.13699693159E+03  0.24283102439E+03  0.17300000000E+03 0. -1.
<mgrwt>
<rscale>  2 0.20049625E+03</rscale>
<asrwt>0</asrwt>
<pdfrwt beam="1">  1       21 0.35448835E-01 0.20049625E+03</pdfrwt>
<pdfrwt beam="2">  1       21 0.46313283E-01 0.20049625E+03</pdfrwt>
<totfact> 0.34124835E+04</totfact>
</mgrwt>
</event>
<event>
 4    1  0.3901757E+000  0.1926908E+03  0.7546771E-02  0.1156057E+00
         21   -1    0    0  501  502  0.00000000000E+00  0.00000000000E+00  0.28472470482E+03  0.28472470482E+03  0.00000000000E+00 0.  1.
         21   -1    0    0  502  503 -0.00000000000E+00 -0.00000000000E+00 -0.20034670388E+03  0.20034670388E+03  0.00000000000E+00 0.  1.
          6    1    1    2  501    0  0.81767633104E+02  0.22688826358E+02  0.18549041097E+03  0.26746293430E+03  0.17300000000E+03 0.  1.
         -6    1    1    2    0  503 -0.81767633104E+02 -0.22688826358E+02 -0.10111241003E+03  0.21760847439E+03  0.17300000000E+03 0.  1.
<mgrwt>
<rscale>  2 0.19269076E+03</rscale>
<asrwt>0</asrwt>
<pdfrwt beam="1">  1       21 0.43803801E-01 0.19269076E+03</pdfrwt>
<pdfrwt beam="2">  1       21 0.30822570E-01 0.19269076E+03</pdfrwt>
<totfact> 0.50620942E+04</totfact>
</mgrwt>
</event>
<event>
 4    1  0.3901757E+000  0.2840132E+03  0.7546771E-02  0.1093517E+00
         21   -1    0    0  503  502  0.00000000000E+00  0.00000000000E+00  0.34912829464E+03  0.34912829464E+03  0.00000000000E+00 0.  1.
         21   -1    0    0  501  503 -0.00000000000E+00 -0.00000000000E+00 -0.38113958860E+03  0.38113958860E+03  0.00000000000E+00 0. -1.
          6    1    1    2  501    0 -0.20281213647E+03  0.97988543041E+02 -0.24514312561E+03  0.37517818340E+03  0.17300000000E+03 0. -1.
         -6    1    1    2    0  502  0.20281213647E+03 -0.97988543041E+02  0.21313183165E+03  0.35508969984E+03  0.17300000000E+03 0.  1.
<mgrwt>
<rscale>  2 0.28401323E+03</rscale>
<asrwt>0</asrwt>
<pdfrwt beam="1">  1       21 0.53712045E-01 0.28401323E+03</pdfrwt>
<pdfrwt beam="2">  1       21 0.58636860E-01 0.28401323E+03</pdfrwt>
<totfact> 0.84516505E+03</totfact>
</mgrwt>
</event>
<event>
 4    1  0.3901757E+000  0.2098220E+03  0.7546771E-02  0.1141707E+00
         21   -1    0    0  503  502  0.00000000000E+00  0.00000000000E+00  0.10738810957E+03  0.10738810957E+03  0.00000000000E+00 0.  1.
         21   -1    0    0  501  503 -0.00000000000E+00 -0.00000000000E+00 -0.52483285508E+03  0.52483285508E+03  0.00000000000E+00 0.  1.
          6    1    1    2  501    0  0.65017456942E+02  0.99342861529E+02 -0.35660912593E+03  0.41375758910E+03  0.17300000000E+03 0.  1.
         -6    1    1    2    0  502 -0.65017456942E+02 -0.99342861529E+02 -0.60835619585E+02  0.21846337554E+03  0.17300000000E+03 0.  1.
<mgrwt>
<rscale>  2 0.20982201E+03</rscale>
<asrwt>0</asrwt>
<pdfrwt beam="1">  1       21 0.16521248E-01 0.20982201E+03</pdfrwt>
<pdfrwt beam="2">  1       21 0.80743516E-01 0.20982201E+03</pdfrwt>
<totfact> 0.43896423E+04</totfact>
</mgrwt>
</event>
<event>
 4    1  0.3901757E+000  0.2029760E+03  0.7546771E-02  0.1147252E+00
         21   -1    0    0  501  502  0.00000000000E+00  0.00000000000E+00  0.62347275491E+03  0.62347275491E+03  0.00000000000E+00 0.  1.
         21   -1    0    0  502  503 -0.00000000000E+00 -0.00000000000E+00 -0.88175682190E+02  0.88175682190E+02  0.00000000000E+00 0.  1.
          6    1    1    2  501    0 -0.79293113376E+02  0.70589234944E+02  0.44576837891E+03  0.48980474227E+03  0.17300000000E+03 0.  1.
         -6    1    1    2    0  503  0.79293113376E+02 -0.70589234944E+02  0.89528693811E+02  0.22184369483E+03  0.17300000000E+03 0.  1.
<mgrwt>
<rscale>  2 0.20297595E+03</rscale>
<asrwt>0</asrwt>
<pdfrwt beam="1">  1       21 0.95918883E-01 0.20297595E+03</pdfrwt>
<pdfrwt beam="2">  1       21 0.13565490E-01 0.20297595E+03</pdfrwt>
<totfact> 0.42401229E+04</totfact>
</mgrwt>
</event>
<event>
 4    1  0.3901757E+000  0.1768481E+03  0.7546771E-02  0.1170889E+00
         21   -1    0    0  501  502  0.00000000000E+00  0.00000000000E+00  0.82421691697E+02  0.82421691697E+02  0.00000000000E+00 0.  1.
         21   -1    0    0  502  503 -0.00000000000E+00 -0.00000000000E+00 -0.54343861780E+03  0.54343861780E+03  0.00000000000E+00 0.  1.
          6    1    1    2  501    0 -0.36521898990E+02  0.35200918100E+01 -0.58609312901E+02  0.18630698245E+03  0.17300000000E+03 0.  1.
         -6    1    1    2    0  503  0.36521898990E+02 -0.35200918100E+01 -0.40240761320E+03  0.43955332704E+03  0.17300000000E+03 0.  1.
<mgrwt>
<rscale>  2 0.17684807E+03</rscale>
<asrwt>0</asrwt>
<pdfrwt beam="1">  1       21 0.12680261E-01 0.17684807E+03</pdfrwt>
<pdfrwt beam="2">  1       21 0.83605939E-01 0.17684807E+03</pdfrwt>
<totfact> 0.66623713E+04</totfact>
</mgrwt>
</event>
<event>
 4    1  0.3901757E+000  0.1753667E+03  0.7546771E-02  0.1172364E+00
         21   -1    0    0  503  502  0.00000000000E+00  0.00000000000E+00  0.67515321173E+02  0.67515321173E+02  0.00000000000E+00 0. -1.
         21   -1    0    0  501  503 -0.00000000000E+00 -0.00000000000E+00 -0.10969559973E+04  0.10969559973E+04  0.00000000000E+00 0. -1.
          6    1    1    2  501    0 -0.25789939155E+02  0.12623425197E+02 -0.95995238187E+03  0.97583915032E+03  0.17300000000E+03 0. -1.
         -6    1    1    2    0  502  0.25789939155E+02 -0.12623425197E+02 -0.69488294253E+02  0.18863216816E+03  0.17300000000E+03 0. -1.
<mgrwt>
<rscale>  2 0.17536668E+03</rscale>
<asrwt>0</asrwt>
<pdfrwt beam="1">  1       21 0.10386973E-01 0.17536668E+03</pdfrwt>
<pdfrwt beam="2">  1       21 0.16876244E+00 0.17536668E+03</pdfrwt>
<totfact> 0.16731099E+04</totfact>
</mgrwt>
</event>
<event>
 4    1  0.3901757E+000  0.2364950E+03  0.7546771E-02  0.1122150E+00
         21   -1    0    0  501  502  0.00000000000E+00  0.00000000000E+00  0.32013512923E+03  0.32013512923E+03  0.00000000000E+00 0.  1.
         21   -1    0    0  502  503 -0.00000000000E+00 -0.00000000000E+00 -0.24503020817E+03  0.24503020817E+03  0.00000000000E+00 0.  1.
          6    1    1    2  501    0  0.34960469539E+01  0.16121002222E+03  0.18893807420E+03  0.30270032952E+03  0.17300000000E+03 0.  1.
         -6    1    1    2    0  503 -0.34960469539E+01 -0.16121002222E+03 -0.11383315314E+03  0.26246500788E+03  0.17300000000E+03 0.  1.
<mgrwt>
<rscale>  2 0.23649502E+03</rscale>
<asrwt>0</asrwt>
<pdfrwt beam="1">  1       21 0.49251558E-01 0.23649502E+03</pdfrwt>
<pdfrwt beam="2">  1       21 0.37696955E-01 0.23649502E+03</pdfrwt>
<totfact> 0.26070688E+04</totfact>
</mgrwt>
</event>
<event>
 4    1  0.3901757E+000  0.2313889E+03  0.7546771E-02  0.1125666E+00
         21   -1    0    0  503  502  0.00000000000E+00  0.00000000000E+00  0.46996915116E+03  0.46996915116E+03  0.00000000000E+00 0. -1.
         21   -1    0    0  501  503 -0.00000000000E+00 -0.00000000000E+00 -0.12811469462E+03  0.12811469462E+03  0.00000000000E+00 0.  1.
          6    1    1    2  501    0 -0.87659619205E+02  0.12620465640E+03  0.71402150833E+02  0.24215509757E+03  0.17300000000E+03 0.  1.
         -6    1    1    2    0  502  0.87659619205E+02 -0.12620465640E+03  0.27045230571E+03  0.35592874821E+03  0.17300000000E+03 0. -1.
<mgrwt>
<rscale>  2 0.23138890E+03</rscale>
<asrwt>0</asrwt>
<pdfrwt beam="1">  1       21 0.72302945E-01 0.23138890E+03</pdfrwt>
<pdfrwt beam="2">  1       21 0.19709953E-01 0.23138890E+03</pdfrwt>
<totfact> 0.40140103E+04</totfact>
</mgrwt>
</event>
<event>
 4    1  0.3901757E+000  0.1948256E+03  0.7546771E-02  0.1154180E+00
         21   -1    0    0  501  502  0.00000000000E+00  0.00000000000E+00  0.18952231521E+03  0.18952231521E+03  0.00000000000E+00 0. -1.
         21   -1    0    0  502  503 -0.00000000000E+00 -0.00000000000E+00 -0.54448183870E+03  0.54448183870E+03  0.00000000000E+00 0. -1.
          6    1    1    2  501    0  0.88745902655E+02  0.12335514278E+02  0.11432016411E+03  0.22588957495E+03  0.17300000000E+03 0. -1.
         -6    1    1    2    0  503 -0.88745902655E+02 -0.12335514278E+02 -0.46927968760E+03  0.50811457896E+03  0.17300000000E+03 0. -1.
<mgrwt>
<rscale>  2 0.19482556E+03</rscale>
<asrwt>0</asrwt>
<pdfrwt beam="1">  1       21 0.29157279E-01 0.19482556E+03</pdfrwt>
<pdfrwt beam="2">  1       21 0.83766436E-01 0.19482556E+03</pdfrwt>
<totfact> 0.13935757E+04</totfact>
</mgrwt>
</event>
<event>
 4    1  0.3901757E+000  0.1898557E+03  0.7546771E-02  0.1158592E+00
         21   -1    0    0  501  502  0.00000000000E+00  0.00000000000E+00  0.49962081426E+03  0.49962081426E+03  0.00000000000E+00 0. -1.
         21   -1    0    0  502  503 -0.00000000000E+00 -0.00000000000E+00 -0.11560912560E+03  0.11560912560E+03  0.00000000000E+00 0. -1.
          6    1    1    2  501    0 -0.32486797701E+02  0.71139379640E+02  0.38062086891E+03  0.42534391874E+03  0.17300000000E+03 0. -1.
         -6    1    1    2    0  503  0.32486797701E+02 -0.71139379640E+02  0.33908197482E+01  0.18988602113E+03  0.17300000000E+03 0. -1.
<mgrwt>
<rscale>  2 0.18985574E+03</rscale>
<asrwt>0</asrwt>
<pdfrwt beam="1">  1       21 0.76864740E-01 0.18985574E+03</pdfrwt>
<pdfrwt beam="2">  1       21 0.17786020E-01 0.18985574E+03</pdfrwt>
<totfact> 0.43256378E+04</totfact>
</mgrwt>
</event>
<event>
 4    1  0.3901757E+000  0.2777521E+03  0.7546771E-02  0.1096923E+00
         21   -1    0    0  503  502  0.00000000000E+00  0.00000000000E+00  0.36989541981E+03  0.36989541981E+03  0.00000000000E+00 0.  1.
         21   -1    0    0  501  503 -0.00000000000E+00 -0.00000000000E+00 -0.29099457164E+03  0.29099457164E+03  0.00000000000E+00 0.  1.
          6    1    1    2  501    0 -0.19184495182E+03 -0.10204297393E+03 -0.13642504386E+03  0.30944797084E+03  0.17300000000E+03 0.  1.
         -6    1    1    2    0  502  0.19184495182E+03  0.10204297393E+03  0.21532589202E+03  0.35144202060E+03  0.17300000000E+03 0.  1.
<mgrwt>
<rscale>  2 0.27775215E+03</rscale>
<asrwt>0</asrwt>
<pdfrwt beam="1">  1       21 0.56906988E-01 0.27775215E+03</pdfrwt>
<pdfrwt beam="2">  1       21 0.44768396E-01 0.27775215E+03</pdfrwt>
<totfact> 0.13251672E+04</totfact>
</mgrwt>
</event>
<event>
 4    1  0.3901757E+000  0.1833820E+03  0.7546771E-02  0.1164570E+00
         21   -1    0    0  503  502  0.00000000000E+00  0.00000000000E+00  0.10114809695E+03  0.10114809695E+03  0.00000000000E+00 0.  1.
         21   -1    0    0  501  503 -0.00000000000E+00 -0.00000000000E+00 -0.67378323755E+03  0.67378323755E+03  0.00000000000E+00 0. -1.
          6    1    1    2  501    0 -0.50330702353E+02 -0.34158004222E+02 -0.56208830435E+03  0.59124631985E+03  0.17300000000E+03 0. -1.
         -6    1    1    2    0  502  0.50330702353E+02  0.34158004222E+02 -0.10546836246E+02  0.18368501465E+03  0.17300000000E+03 0.  1.
<mgrwt>
<rscale>  2 0.18338198E+03</rscale>
<asrwt>0</asrwt>
<pdfrwt beam="1">  1       21 0.15561245E-01 0.18338198E+03</pdfrwt>
<pdfrwt beam="2">  1       21 0.10365896E+00 0.18338198E+03</pdfrwt>
<totfact> 0.27790826E+04</totfact>
</mgrwt>
</event>
<event>
 4    1  0.3901757E+000  0.2048407E+03  0.7546771E-02  0.1145718E+00
         21   -1    0    0  501  502  0.00000000000E+00  0.00000000000E+00  0.20823655573E+03  0.20823655573E+03  0.00000000000E+00 0. -1.
         21   -1    0    0  502  503 -0.00000000000E+00 -0.00000000000E+00 -0.21017838165E+03  0.21017838165E+03  0.00000000000E+00 0.  1.
          6    1    1    2  501    0  0.61917248463E+02  0.90537041637E+02  0.41539787362E+02  0.20901018037E+03  0.17300000000E+03 0.  1.
         -6    1    1    2    0  503 -0.61917248463E+02 -0.90537041637E+02 -0.43481613280E+02  0.20940475701E+03  0.17300000000E+03 0.  1.
<mgrwt>
<rscale>  2 0.20484067E+03</rscale>
<asrwt>0</asrwt>
<pdfrwt beam="1">  1       21 0.32036393E-01 0.20484067E+03</pdfrwt>
<pdfrwt beam="2">  1       21 0.32335136E-01 0.20484067E+03</pdfrwt>
<totfact> 0.85793827E+04</totfact>
</mgrwt>
</event>
<event>
 4    1  0.3901757E+000  0.1764084E+03  0.7546771E-02  0.1171325E+00
         21   -1    0    0  501  502  0.00000000000E+00  0.00000000000E+00  0.16126907685E+03  0.16126907685E+03  0.00000000000E+00 0.  1.
         21   -1    0    0  502  503 -0.00000000000E+00 -0.00000000000E+00 -0.63505188733E+03  0.63505188733E+03  0.00000000000E+00 0.  1.
          6    1    1    2  501    0  0.23914870681E+02  0.24879811948E+02  0.95313024799E+02  0.20051059518E+03  0.17300000000E+03 0.  1.
         -6    1    1    2    0  503 -0.23914870681E+02 -0.24879811948E+02 -0.56909583528E+03  0.59581036901E+03  0.17300000000E+03 0.  1.
<mgrwt>
<rscale>  2 0.17640841E+03</rscale>
<asrwt>0</asrwt>
<pdfrwt beam="1">  1       21 0.24810627E-01 0.17640841E+03</pdfrwt>
<pdfrwt beam="2">  1       21 0.97700291E-01 0.17640841E+03</pdfrwt>
<totfact> 0.13476483E+04</totfact>
</mgrwt>
</event>
<event>
 4    1  0.3901757E+000  0.1791432E+03  0.7546771E-02  0.1168635E+00
         21   -1    0    0  503  502  0.00000000000E+00  0.00000000000E+00  0.15249716178E+03  0.15249716178E+03  0.00000000000E+00 0. -1.
         21   -1    0    0  501  503 -0.00000000000E+00 -0.00000000000E+00 -0.25543629234E+03  0.25543629234E+03  0.00000000000E+00 0. -1.
          6    1    1    2  501    0  0.42755917099E+02  0.18309437251E+02 -0.13707099818E+03  0.22556764502E+03  0.17300000000E+03 0. -1.
         -6    1    1    2    0  502 -0.42755917099E+02 -0.18309437251E+02  0.34131867626E+02  0.18236580910E+03  0.17300000000E+03 0. -1.
<mgrwt>
<rscale>  2 0.17914325E+03</rscale>
<asrwt>0</asrwt>
<pdfrwt beam="1">  1       21 0.23461102E-01 0.17914325E+03</pdfrwt>
<pdfrwt beam="2">  1       21 0.39297891E-01 0.17914325E+03</pdfrwt>
<totfact> 0.10723815E+05</totfact>
</mgrwt>
</event>
<event>
 4    1  0.3901757E+000  0.2139932E+03  0.7546771E-02  0.1138442E+00
         21   -1    0    0  503  502  0.00000000000E+00  0.00000000000E+00  0.42038001765E+02  0.42038001765E+02  0.00000000000E+00 0. -1.
         21   -1    0    0  501  503 -0.00000000000E+00 -0.00000000000E+00 -0.15376271762E+04  0.15376271762E+04  0.00000000000E+00 0.  1.
          6    1    1    2  501    0 -0.68197179282E+02 -0.10589252338E+03 -0.11742705325E+04  0.11936098045E+04  0.17300000000E+03 0.  1.
         -6    1    1    2    0  502  0.68197179282E+02  0.10589252338E+03 -0.32131864194E+03  0.38605537353E+03  0.17300000000E+03 0. -1.
<mgrwt>
<rscale>  2 0.21399318E+03</rscale>
<asrwt>0</asrwt>
<pdfrwt beam="1">  1       21 0.64673850E-02 0.21399318E+03</pdfrwt>
<pdfrwt beam="2">  1       21 0.23655802E+00 0.21399318E+03</pdfrwt>
<totfact> 0.13596083E+04</totfact>
</mgrwt>
</event>
<event>
 4    1  0.3901757E+000  0.5487632E+03  0.7546771E-02  0.1001781E+00
         21   -1    0    0  501  502  0.00000000000E+00  0.00000000000E+00  0.34321910665E+03  0.34321910665E+03  0.00000000000E+00 0. -1.
         21   -1    0    0  502  503 -0.00000000000E+00 -0.00000000000E+00 -0.12187512726E+04  0.12187512726E+04  0.00000000000E+00 0.  1.
          6    1    1    2  501    0  0.24581941485E+03 -0.45911308899E+03 -0.24447467888E+02  0.54930746571E+03  0.17300000000E+03 0. -1.
         -6    1    1    2    0  503 -0.24581941485E+03  0.45911308899E+03 -0.85108469807E+03  0.10126629136E+04  0.17300000000E+03 0.  1.
<mgrwt>
<rscale>  2 0.54876317E+03</rscale>
<asrwt>0</asrwt>
<pdfrwt beam="1">  1       21 0.52802939E-01 0.54876317E+03</pdfrwt>
<pdfrwt beam="2">  1       21 0.18750020E+00 0.54876317E+03</pdfrwt>
<totfact> 0.43483853E+02</totfact>
</mgrwt>
</event>
<event>
 4    1  0.3901757E+000  0.1900183E+03  0.7546771E-02  0.1158445E+00
         21   -1    0    0  503  502  0.00000000000E+00  0.00000000000E+00  0.47514487164E+03  0.47514487164E+03  0.00000000000E+00 0. -1.
         21   -1    0    0  501  503 -0.00000000000E+00 -0.00000000000E+00 -0.91981566225E+02  0.91981566225E+02  0.00000000000E+00 0.  1.
          6    1    1    2  501    0  0.86984805942E+01  0.78117144227E+02  0.30981097294E+03  0.36344159192E+03  0.17300000000E+03 0. -1.
         -6    1    1    2    0  502 -0.86984805942E+01 -0.78117144227E+02  0.73352332479E+02  0.20368484594E+03  0.17300000000E+03 0.  1.
<mgrwt>
<rscale>  2 0.19001829E+03</rscale>
<asrwt>0</asrwt>
<pdfrwt beam="1">  1       21 0.73099210E-01 0.19001829E+03</pdfrwt>
<pdfrwt beam="2">  1       21 0.14151010E-01 0.19001829E+03</pdfrwt>
<totfact> 0.73498228E+04</totfact>
</mgrwt>
</event>
<event>
 4    1  0.3901757E+000  0.2774453E+03  0.7546771E-02  0.1097093E+00
         21   -1    0    0  501  502  0.00000000000E+00  0.00000000000E+00  0.45335331691E+03  0.45335331691E+03  0.00000000000E+00 0. -1.
         21   -1    0    0  502  503 -0.00000000000E+00 -0.00000000000E+00 -0.20522147260E+03  0.20522147260E+03  0.00000000000E+00 0. -1.
          6    1    1    2  501    0  0.21690121047E+03  0.86062526354E+00  0.26088434223E+03  0.38083659987E+03  0.17300000000E+03 0. -1.
         -6    1    1    2    0  503 -0.21690121047E+03 -0.86062526354E+00 -0.12752497913E+02  0.27773818964E+03  0.17300000000E+03 0. -1.
<mgrwt>
<rscale>  2 0.27744527E+03</rscale>
<asrwt>0</asrwt>
<pdfrwt beam="1">  1       21 0.69746664E-01 0.27744527E+03</pdfrwt>
<pdfrwt beam="2">  1       21 0.31572534E-01 0.27744527E+03</pdfrwt>
<totfact> 0.17214269E+04</totfact>
</mgrwt>
</event>
<event>
 4    1  0.3901757E+000  0.3379519E+03  0.7546771E-02  0.1067672E+00
         21   -1    0    0  501  502  0.00000000000E+00  0.00000000000E+00  0.32666499266E+03  0.32666499266E+03  0.00000000000E+00 0.  1.
         21   -1    0    0  502  503 -0.00000000000E+00 -0.00000000000E+00 -0.53006057527E+03  0.53006057527E+03  0.00000000000E+00 0. -1.
          6    1    1    2  501    0 -0.25944337046E+03 -0.13027519446E+03  0.14822478781E+03  0.36902855782E+03  0.17300000000E+03 0.  1.
         -6    1    1    2    0  503  0.25944337046E+03  0.13027519446E+03 -0.35162037043E+03  0.48769701011E+03  0.17300000000E+03 0. -1.
<mgrwt>
<rscale>  2 0.33795190E+03</rscale>
<asrwt>0</asrwt>
<pdfrwt beam="1">  1       21 0.50256153E-01 0.33795190E+03</pdfrwt>
<pdfrwt beam="2">  1       21 0.81547780E-01 0.33795190E+03</pdfrwt>
<totfact> 0.45491697E+03</totfact>
</mgrwt>
</event>
<event>
 4    1  0.3901757E+000  0.2178741E+03  0.7546771E-02  0.1135478E+00
         21   -1    0    0  503  502  0.00000000000E+00  0.00000000000E+00  0.56322773367E+03  0.56322773367E+03  0.00000000000E+00 0.  1.
         21   -1    0    0  501  503 -0.00000000000E+00 -0.00000000000E+00 -0.12058227696E+03  0.12058227696E+03  0.00000000000E+00 0.  1.
          6    1    1    2  501    0 -0.12859536479E+03 -0.31676098852E+02  0.33725091909E+02  0.22046887515E+03  0.17300000000E+03 0.  1.
         -6    1    1    2    0  502  0.12859536479E+03  0.31676098852E+02  0.40892036480E+03  0.46334113548E+03  0.17300000000E+03 0.  1.
<mgrwt>
<rscale>  2 0.21787415E+03</rscale>
<asrwt>0</asrwt>
<pdfrwt beam="1">  1       21 0.86650419E-01 0.21787415E+03</pdfrwt>
<pdfrwt beam="2">  1       21 0.18551120E-01 0.21787415E+03</pdfrwt>
<totfact> 0.30024094E+04</totfact>
</mgrwt>
</event>
<event>
 4    1  0.3901757E+000  0.1923368E+03  0.7546771E-02  0.1156370E+00
         21   -1    0    0  501  502  0.00000000000E+00  0.00000000000E+00  0.49976937316E+02  0.49976937316E+02  0.00000000000E+00 0.  1.
         21   -1    0    0  502  503 -0.00000000000E+00 -0.00000000000E+00 -0.16670531042E+04  0.16670531042E+04  0.00000000000E+00 0. -1.
          6    1    1    2  501    0  0.64181077151E+02 -0.54269880260E+02 -0.16839614015E+03  0.25563781134E+03  0.17300000000E+03 0.  1.
         -6    1    1    2    0  503 -0.64181077151E+02  0.54269880260E+02 -0.14486800268E+04  0.14613922302E+04  0.17300000000E+03 0. -1.
<mgrwt>
<rscale>  2 0.19233676E+03</rscale>
<asrwt>0</asrwt>
<pdfrwt beam="1">  1       21 0.76887592E-02 0.19233676E+03</pdfrwt>
<pdfrwt beam="2">  1       21 0.25646972E+00 0.19233676E+03</pdfrwt>
<totfact> 0.78367258E+03</totfact>
</mgrwt>
</event>
<event>
 4    1  0.3901757E+000  0.4023128E+03  0.7546771E-02  0.1042982E+00
         21   -1    0    0  501  502  0.00000000000E+00  0.00000000000E+00  0.27322274508E+03  0.27322274508E+03  0.00000000000E+00 0. -1.
         21   -1    0    0  502  503 -0.00000000000E+00 -0.00000000000E+00 -0.96854347856E+03  0.96854347856E+03  0.00000000000E+00 0. -1.
          6    1    1    2  501    0  0.32045156269E+03 -0.17098933401E+03  0.39267875820E+02  0.40422459406E+03  0.17300000000E+03 0. -1.
         -6    1    1    2    0  503 -0.32045156269E+03  0.17098933401E+03 -0.73458860929E+03  0.83754162958E+03  0.17300000000E+03 0. -1.
<mgrwt>
<rscale>  2 0.40231276E+03</rscale>
<asrwt>0</asrwt>
<pdfrwt beam="1">  1       21 0.42034268E-01 0.40231276E+03</pdfrwt>
<pdfrwt beam="2">  1       21 0.14900669E+00 0.40231276E+03</pdfrwt>
<totfact> 0.14388424E+03</totfact>
</mgrwt>
</event>
<event>
 4    1  0.3901757E+000  0.3836196E+03  0.7546771E-02  0.1049604E+00
         21   -1    0    0  501  502  0.00000000000E+00  0.00000000000E+00  0.93024060964E+03  0.93024060964E+03  0.00000000000E+00 0. -1.
         21   -1    0    0  502  503 -0.00000000000E+00 -0.00000000000E+00 -0.15870504387E+03  0.15870504387E+03  0.00000000000E+00 0.  1.
          6    1    1    2  501    0 -0.34141484325E+02 -0.34068949444E+03  0.41648542355E+03  0.56623677080E+03  0.17300000000E+03 0.  1.
         -6    1    1    2    0  503  0.34141484325E+02  0.34068949444E+03  0.35505014222E+03  0.52270888271E+03  0.17300000000E+03 0. -1.
<mgrwt>
<rscale>  2 0.38361957E+03</rscale>
<asrwt>0</asrwt>
<pdfrwt beam="1">  1       21 0.14311394E+00 0.38361957E+03</pdfrwt>
<pdfrwt beam="2">  1       21 0.24416161E-01 0.38361957E+03</pdfrwt>
<totfact> 0.47867371E+03</totfact>
</mgrwt>
</event>
<event>
 4    1  0.3901757E+000  0.1875587E+03  0.7546771E-02  0.1160682E+00
         21   -1    0    0  501  502  0.00000000000E+00  0.00000000000E+00  0.55810846319E+03  0.55810846319E+03  0.00000000000E+00 0.  1.
         21   -1    0    0  502  503 -0.00000000000E+00 -0.00000000000E+00 -0.13271198622E+03  0.13271198622E+03  0.00000000000E+00 0.  1.
          6    1    1    2  501    0 -0.49661229964E+02 -0.52754381263E+02  0.46298423101E+03  0.49953244205E+03  0.17300000000E+03 0.  1.
         -6    1    1    2    0  503  0.49661229964E+02  0.52754381263E+02 -0.37587754042E+02  0.19128800735E+03  0.17300000000E+03 0.  1.
<mgrwt>
<rscale>  2 0.18755869E+03</rscale>
<asrwt>0</asrwt>
<pdfrwt beam="1">  1       21 0.85862840E-01 0.18755869E+03</pdfrwt>
<pdfrwt beam="2">  1       21 0.20417229E-01 0.18755869E+03</pdfrwt>
<totfact> 0.26079136E+04</totfact>
</mgrwt>
</event>
<event>
 4    1  0.3901757E+000  0.2040404E+03  0.7546771E-02  0.1146374E+00
         21   -1    0    0  503  502  0.00000000000E+00  0.00000000000E+00  0.27841144576E+03  0.27841144576E+03  0.00000000000E+00 0. -1.
         21   -1    0    0  501  503 -0.00000000000E+00 -0.00000000000E+00 -0.20280761703E+03  0.20280761703E+03  0.00000000000E+00 0.  1.
          6    1    1    2  501    0  0.10744970217E+03  0.12572070660E+02  0.16111784924E+03  0.25998357025E+03  0.17300000000E+03 0. -1.
         -6    1    1    2    0  502 -0.10744970217E+03 -0.12572070660E+02 -0.85514020503E+02  0.22123549254E+03  0.17300000000E+03 0.  1.
<mgrwt>
<rscale>  2 0.20404043E+03</rscale>
<asrwt>0</asrwt>
<pdfrwt beam="1">  1       21 0.42832530E-01 0.20404043E+03</pdfrwt>
<pdfrwt beam="2">  1       21 0.31201172E-01 0.20404043E+03</pdfrwt>
<totfact> 0.51455964E+04</totfact>
</mgrwt>
</event>
<event>
 4    1  0.3901757E+000  0.1750173E+03  0.7546771E-02  0.1172714E+00
         21   -1    0    0  503  502  0.00000000000E+00  0.00000000000E+00  0.28830610047E+04  0.28830610047E+04  0.00000000000E+00 0. -1.
         21   -1    0    0  501  503 -0.00000000000E+00 -0.00000000000E+00 -0.16158949070E+02  0.16158949070E+02  0.00000000000E+00 0. -1.
          6    1    1    2  501    0  0.22585459777E+02  0.13854880189E+02  0.58508729178E+03  0.61070303725E+03  0.17300000000E+03 0. -1.
         -6    1    1    2    0  502 -0.22585459777E+02 -0.13854880189E+02  0.22818147638E+04  0.22885169165E+04  0.17300000000E+03 0. -1.
<mgrwt>
<rscale>  2 0.17501732E+03</rscale>
<asrwt>0</asrwt>
<pdfrwt beam="1">  1       21 0.44354744E+00 0.17501732E+03</pdfrwt>
<pdfrwt beam="2">  1       21 0.24859945E-02 0.17501732E+03</pdfrwt>
<totfact> 0.40658867E+03</totfact>
</mgrwt>
</event>
<event>
 4    1  0.3901757E+000  0.2293792E+03  0.7546771E-02  0.1127077E+00
         21   -1    0    0  503  502  0.00000000000E+00  0.00000000000E+00  0.37127206543E+02  0.37127206543E+02  0.00000000000E+00 0. -1.
         21   -1    0    0  501  503 -0.00000000000E+00 -0.00000000000E+00 -0.14665492948E+04  0.14665492948E+04  0.00000000000E+00 0. -1.
          6    1    1    2  501    0 -0.13147479667E+03  0.73485910140E+02 -0.85269823706E+03  0.88301137288E+03  0.17300000000E+03 0. -1.
         -6    1    1    2    0  502  0.13147479667E+03 -0.73485910140E+02 -0.57672385117E+03  0.62066512844E+03  0.17300000000E+03 0. -1.
<mgrwt>
<rscale>  2 0.22937916E+03</rscale>
<asrwt>0</asrwt>
<pdfrwt beam="1">  1       21 0.57118791E-02 0.22937916E+03</pdfrwt>
<pdfrwt beam="2">  1       21 0.22562292E+00 0.22937916E+03</pdfrwt>
<totfact> 0.19378288E+04</totfact>
</mgrwt>
</event>
<event>
 4    1  0.3901757E+000  0.2425600E+03  0.7546771E-02  0.1118099E+00
         21   -1    0    0  503  502  0.00000000000E+00  0.00000000000E+00  0.12679497414E+03  0.12679497414E+03  0.00000000000E+00 0.  1.
         21   -1    0    0  501  503 -0.00000000000E+00 -0.00000000000E+00 -0.65953370943E+03  0.65953370943E+03  0.00000000000E+00 0. -1.
          6    1    1    2  501    0 -0.78097186736E+01  0.16983921370E+03 -0.48043389268E+03  0.53819334393E+03  0.17300000000E+03 0. -1.
         -6    1    1    2    0  502  0.78097186736E+01 -0.16983921370E+03 -0.52304842612E+02  0.24813533963E+03  0.17300000000E+03 0.  1.
<mgrwt>
<rscale>  2 0.24255999E+03</rscale>
<asrwt>0</asrwt>
<pdfrwt beam="1">  1       21 0.19506919E-01 0.24255999E+03</pdfrwt>
<pdfrwt beam="2">  1       21 0.10146673E+00 0.24255999E+03</pdfrwt>
<totfact> 0.18628309E+04</totfact>
</mgrwt>
</event>
<event>
 4    1  0.3901757E+000  0.1733612E+03  0.7546771E-02  0.1174387E+00
         21   -1    0    0  501  502  0.00000000000E+00  0.00000000000E+00  0.24527574396E+03  0.24527574396E+03  0.00000000000E+00 0. -1.
         21   -1    0    0  502  503 -0.00000000000E+00 -0.00000000000E+00 -0.24037579314E+03  0.24037579314E+03  0.00000000000E+00 0. -1.
          6    1    1    2  501    0  0.10702081769E+02 -0.32491059257E+01  0.17247115911E+03  0.24454118665E+03  0.17300000000E+03 0. -1.
         -6    1    1    2    0  503 -0.10702081769E+02  0.32491059257E+01 -0.16757120829E+03  0.24111035044E+03  0.17300000000E+03 0. -1.
<mgrwt>
<rscale>  2 0.17336116E+03</rscale>
<asrwt>0</asrwt>
<pdfrwt beam="1">  1       21 0.37734730E-01 0.17336116E+03</pdfrwt>
<pdfrwt beam="2">  1       21 0.36980891E-01 0.17336116E+03</pdfrwt>
<totfact> 0.48210378E+04</totfact>
</mgrwt>
</event>
<event>
 4    1  0.3901757E+000  0.2217178E+03  0.7546771E-02  0.1132609E+00
         21   -1    0    0  503  502  0.00000000000E+00  0.00000000000E+00  0.42149249422E+03  0.42149249422E+03  0.00000000000E+00 0.  1.
         21   -1    0    0  501  503 -0.00000000000E+00 -0.00000000000E+00 -0.32787427250E+03  0.32787427250E+03  0.00000000000E+00 0.  1.
          6    1    1    2  501    0  0.13860654381E+03 -0.42417894399E+01 -0.25393906205E+03  0.33711098172E+03  0.17300000000E+03 0.  1.
         -6    1    1    2    0  502 -0.13860654381E+03  0.42417894399E+01  0.34755728376E+03  0.41225578499E+03  0.17300000000E+03 0.  1.
<mgrwt>
<rscale>  2 0.22171776E+03</rscale>
<asrwt>0</asrwt>
<pdfrwt beam="1">  1       21 0.64845000E-01 0.22171776E+03</pdfrwt>
<pdfrwt beam="2">  1       21 0.50442195E-01 0.22171776E+03</pdfrwt>
<totfact> 0.80330908E+03</totfact>
</mgrwt>
</event>
<event>
 4    1  0.3901757E+000  0.2122388E+03  0.7546771E-02  0.1139805E+00
         21   -1    0    0  501  502  0.00000000000E+00  0.00000000000E+00  0.31674856839E+03  0.31674856839E+03  0.00000000000E+00 0.  1.
         21   -1    0    0  502  503 -0.00000000000E+00 -0.00000000000E+00 -0.32039464804E+03  0.32039464804E+03  0.00000000000E+00 0.  1.
          6    1    1    2  501    0  0.57553088111E+01  0.12281360811E+03  0.23575029301E+03  0.31721208453E+03  0.17300000000E+03 0.  1.
         -6    1    1    2    0  503 -0.57553088111E+01 -0.12281360811E+03 -0.23939637266E+03  0.31993113190E+03  0.17300000000E+03 0.  1.
<mgrwt>
<rscale>  2 0.21223879E+03</rscale>
<asrwt>0</asrwt>
<pdfrwt beam="1">  1       21 0.48730549E-01 0.21223879E+03</pdfrwt>
<pdfrwt beam="2">  1       21 0.49291484E-01 0.21223879E+03</pdfrwt>
<totfact> 0.15588628E+04</totfact>
</mgrwt>
</event>
<event>
 4    1  0.3901757E+000  0.1852131E+03  0.7546771E-02  0.1162851E+00
         21   -1    0    0  501  502  0.00000000000E+00  0.00000000000E+00  0.48644440860E+03  0.48644440860E+03  0.00000000000E+00 0.  1.
         21   -1    0    0  502  503 -0.00000000000E+00 -0.00000000000E+00 -0.78722365391E+02  0.78722365391E+02  0.00000000000E+00 0.  1.
          6    1    1    2  501    0  0.57462786107E+02  0.32755499224E+02  0.29507808863E+03  0.34838911135E+03  0.17300000000E+03 0.  1.
         -6    1    1    2    0  503 -0.57462786107E+02 -0.32755499224E+02  0.11264395457E+03  0.21677766264E+03  0.17300000000E+03 0.  1.
<mgrwt>
<rscale>  2 0.18521311E+03</rscale>
<asrwt>0</asrwt>
<pdfrwt beam="1">  1       21 0.74837600E-01 0.18521311E+03</pdfrwt>
<pdfrwt beam="2">  1       21 0.12111133E-01 0.18521311E+03</pdfrwt>
<totfact> 0.92492426E+04</totfact>
</mgrwt>
</event>
<event>
 4    1  0.3901757E+000  0.1972387E+03  0.7546771E-02  0.1152090E+00
         21   -1    0    0  503  502  0.00000000000E+00  0.00000000000E+00  0.45724269962E+02  0.45724269962E+02  0.00000000000E+00 0. -1.
         21   -1    0    0  501  503 -0.00000000000E+00 -0.00000000000E+00 -0.14834012579E+04  0.14834012579E+04  0.00000000000E+00 0. -1.
          6    1    1    2  501    0  0.63040555665E+02  0.70710665512E+02 -0.12181160952E+04  0.12339813335E+04  0.17300000000E+03 0. -1.
         -6    1    1    2    0  502 -0.63040555665E+02 -0.70710665512E+02 -0.21956089267E+03  0.29514419436E+03  0.17300000000E+03 0. -1.
<mgrwt>
<rscale>  2 0.19723871E+03</rscale>
<asrwt>0</asrwt>
<pdfrwt beam="1">  1       21 0.70345030E-02 0.19723871E+03</pdfrwt>
<pdfrwt beam="2">  1       21 0.22821558E+00 0.19723871E+03</pdfrwt>
<totfact> 0.13393390E+04</totfact>
</mgrwt>
</event>
<event>
 4    1  0.3901757E+000  0.1956551E+03  0.7546771E-02  0.1153457E+00
         21   -1    0    0  503  502  0.00000000000E+00  0.00000000000E+00  0.16783137259E+03  0.16783137259E+03  0.00000000000E+00 0. -1.
         21   -1    0    0  501  503 -0.00000000000E+00 -0.00000000000E+00 -0.24024698973E+03  0.24024698973E+03  0.00000000000E+00 0. -1.
          6    1    1    2  501    0  0.89561477242E+02 -0.18183709395E+02  0.96878127658E+01  0.19589476565E+03  0.17300000000E+03 0.  1.
         -6    1    1    2    0  502 -0.89561477242E+02  0.18183709395E+02 -0.82103429901E+02  0.21218359667E+03  0.17300000000E+03 0.  1.
<mgrwt>
<rscale>  2 0.19565507E+03</rscale>
<asrwt>0</asrwt>
<pdfrwt beam="1">  1       21 0.25820211E-01 0.19565507E+03</pdfrwt>
<pdfrwt beam="2">  1       21 0.36961075E-01 0.19565507E+03</pdfrwt>
<totfact> 0.10041292E+05</totfact>
</mgrwt>
</event>
<event>
 4    1  0.3901757E+000  0.1762415E+03  0.7546771E-02  0.1171491E+00
         21   -1    0    0  501  502  0.00000000000E+00  0.00000000000E+00  0.40541207610E+03  0.40541207610E+03  0.00000000000E+00 0. -1.
         21   -1    0    0  502  503 -0.00000000000E+00 -0.00000000000E+00 -0.79026931208E+02  0.79026931208E+02  0.00000000000E+00 0. -1.
          6    1    1    2  501    0 -0.26565428348E+02 -0.20648432223E+02  0.20549913251E+03  0.27072305627E+03  0.17300000000E+03 0. -1.
         -6    1    1    2    0  503  0.26565428348E+02  0.20648432223E+02  0.12088601239E+03  0.21371595104E+03  0.17300000000E+03 0. -1.
<mgrwt>
<rscale>  2 0.17624154E+03</rscale>
<asrwt>0</asrwt>
<pdfrwt beam="1">  1       21 0.62371088E-01 0.17624154E+03</pdfrwt>
<pdfrwt beam="2">  1       21 0.12157990E-01 0.17624154E+03</pdfrwt>
<totfact> 0.13741614E+05</totfact>
</mgrwt>
</event>
<event>
 4    1  0.3901757E+000  0.2369447E+03  0.7546771E-02  0.1121845E+00
         21   -1    0    0  501  502  0.00000000000E+00  0.00000000000E+00  0.78287216232E+02  0.78287216232E+02  0.00000000000E+00 0.  1.
         21   -1    0    0  502  503 -0.00000000000E+00 -0.00000000000E+00 -0.82210106606E+03  0.82210106606E+03  0.00000000000E+00 0.  1.
          6    1    1    2  501    0  0.29649978577E+02  0.15916870665E+03 -0.21104476994E+03  0.31730536290E+03  0.17300000000E+03 0. -1.
         -6    1    1    2    0  503 -0.29649978577E+02 -0.15916870665E+03 -0.53276907988E+03  0.58308291939E+03  0.17300000000E+03 0. -1.
<mgrwt>
<rscale>  2 0.23694472E+03</rscale>
<asrwt>0</asrwt>
<pdfrwt beam="1">  1       21 0.12044187E-01 0.23694472E+03</pdfrwt>
<pdfrwt beam="2">  1       21 0.12647709E+00 0.23694472E+03</pdfrwt>
<totfact> 0.26325435E+04</totfact>
</mgrwt>
</event>
<event>
 4    1  0.3901757E+000  0.2020817E+03  0.7546771E-02  0.1147994E+00
         21   -1    0    0  501  502  0.00000000000E+00  0.00000000000E+00  0.17837580180E+04  0.17837580180E+04  0.00000000000E+00 0. -1.
         21   -1    0    0  502  503 -0.00000000000E+00 -0.00000000000E+00 -0.26210844885E+02  0.26210844885E+02  0.00000000000E+00 0. -1.
          6    1    1    2  501    0  0.91879369915E+02  0.49660793437E+02  0.12007142013E+04  0.12176007581E+04  0.17300000000E+03 0. -1.
         -6    1    1    2    0  503 -0.91879369915E+02 -0.49660793437E+02  0.55683297185E+03  0.59236810478E+03  0.17300000000E+03 0. -1.
<mgrwt>
<rscale>  2 0.20208170E+03</rscale>
<asrwt>0</asrwt>
<pdfrwt beam="1">  1       21 0.27442422E+00 0.20208170E+03</pdfrwt>
<pdfrwt beam="2">  1       21 0.40324391E-02 0.20208170E+03</pdfrwt>
<totfact> 0.18364816E+04</totfact>
</mgrwt>
</event>
<event>
 4    1  0.3901757E+000  0.1861130E+03  0.7546771E-02  0.1162015E+00
         21   -1    0    0  501  502  0.00000000000E+00  0.00000000000E+00  0.82258211436E+02  0.82258211436E+02  0.00000000000E+00 0.  1.
         21   -1    0    0  502  503 -0.00000000000E+00 -0.00000000000E+00 -0.10100143334E+04  0.10100143334E+04  0.00000000000E+00 0.  1.
          6    1    1    2  501    0 -0.52518488412E+02  0.44168515803E+02 -0.46848082642E+02  0.19191871264E+03  0.17300000000E+03 0.  1.
         -6    1    1    2    0  503  0.52518488412E+02 -0.44168515803E+02 -0.88090803932E+03  0.90035383220E+03  0.17300000000E+03 0.  1.
<mgrwt>
<rscale>  2 0.18611300E+03</rscale>
<asrwt>0</asrwt>
<pdfrwt beam="1">  1       21 0.12655109E-01 0.18611300E+03</pdfrwt>
<pdfrwt beam="2">  1       21 0.15538683E+00 0.18611300E+03</pdfrwt>
<totfact> 0.14593303E+04</totfact>
</mgrwt>
</event>
<event>
 4    1  0.3901757E+000  0.1735559E+03  0.7546771E-02  0.1174190E+00
         21   -1    0    0  501  502  0.00000000000E+00  0.00000000000E+00  0.13619911698E+03  0.13619911698E+03  0.00000000000E+00 0.  1.
         21   -1    0    0  502  503 -0.00000000000E+00 -0.00000000000E+00 -0.22139650183E+03  0.22139650183E+03  0.00000000000E+00 0.  1.
          6    1    1    2  501    0  0.12511673531E+02 -0.60080073258E+01 -0.36740542000E+02  0.17740210132E+03  0.17300000000E+03 0.  1.
         -6    1    1    2    0  503 -0.12511673531E+02  0.60080073258E+01 -0.48456842845E+02  0.18019351749E+03  0.17300000000E+03 0.  1.
<mgrwt>
<rscale>  2 0.17355586E+03</rscale>
<asrwt>0</asrwt>
<pdfrwt beam="1">  1       21 0.20953710E-01 0.17355586E+03</pdfrwt>
<pdfrwt beam="2">  1       21 0.34061000E-01 0.17355586E+03</pdfrwt>
<totfact> 0.17671707E+05</totfact>
</mgrwt>
</event>
<event>
 4    1  0.3901757E+000  0.1743394E+03  0.7546771E-02  0.1173397E+00
         21   -1    0    0  501  502  0.00000000000E+00  0.00000000000E+00  0.23609658662E+03  0.23609658662E+03  0.00000000000E+00 0. -1.
         21   -1    0    0  502  503 -0.00000000000E+00 -0.00000000000E+00 -0.20290941173E+03  0.20290941173E+03  0.00000000000E+00 0. -1.
          6    1    1    2  501    0  0.68540978896E+01 -0.20451067853E+02  0.14930623607E+03  0.22953556797E+03  0.17300000000E+03 0. -1.
         -6    1    1    2    0  503 -0.68540978896E+01  0.20451067853E+02 -0.11611906118E+03  0.20947043038E+03  0.17300000000E+03 0. -1.
<mgrwt>
<rscale>  2 0.17433940E+03</rscale>
<asrwt>0</asrwt>
<pdfrwt beam="1">  1       21 0.36322552E-01 0.17433940E+03</pdfrwt>
<pdfrwt beam="2">  1       21 0.31216833E-01 0.17433940E+03</pdfrwt>
<totfact> 0.72633404E+04</totfact>
</mgrwt>
</event>
<event>
 4    1  0.3901757E+000  0.1751605E+03  0.7546771E-02  0.1172571E+00
         21   -1    0    0  503  502  0.00000000000E+00  0.00000000000E+00  0.71032348946E+03  0.71032348946E+03  0.00000000000E+00 0. -1.
         21   -1    0    0  501  503 -0.00000000000E+00 -0.00000000000E+00 -0.44896748005E+02  0.44896748005E+02  0.00000000000E+00 0. -1.
          6    1    1    2  501    0 -0.13995694605E+02  0.23586314547E+02  0.25915966672E+03  0.31280173682E+03  0.17300000000E+03 0. -1.
         -6    1    1    2    0  502  0.13995694605E+02 -0.23586314547E+02  0.40626707474E+03  0.44241850065E+03  0.17300000000E+03 0. -1.
<mgrwt>
<rscale>  2 0.17516048E+03</rscale>
<asrwt>0</asrwt>
<pdfrwt beam="1">  1       21 0.10928053E+00 0.17516048E+03</pdfrwt>
<pdfrwt beam="2">  1       21 0.69071925E-02 0.17516048E+03</pdfrwt>
<totfact> 0.10347120E+05</totfact>
</mgrwt>
</event>
<event>
 4    1  0.3901757E+000  0.2802149E+03  0.7546771E-02  0.1095572E+00
         21   -1    0    0  501  502  0.00000000000E+00  0.00000000000E+00  0.18094977996E+03  0.18094977996E+03  0.00000000000E+00 0.  1.
         21   -1    0    0  502  503 -0.00000000000E+00 -0.00000000000E+00 -0.53015120136E+03  0.53015120136E+03  0.00000000000E+00 0. -1.
          6    1    1    2  501    0  0.15758028448E+03  0.15414225056E+03 -0.23130824092E+02  0.28116794712E+03  0.17300000000E+03 0.  1.
         -6    1    1    2    0  503 -0.15758028448E+03 -0.15414225056E+03 -0.32607059731E+03  0.42993303420E+03  0.17300000000E+03 0. -1.
<mgrwt>
<rscale>  2 0.28021488E+03</rscale>
<asrwt>0</asrwt>
<pdfrwt beam="1">  1       21 0.27838429E-01 0.28021488E+03</pdfrwt>
<pdfrwt beam="2">  1       21 0.81561721E-01 0.28021488E+03</pdfrwt>
<totfact> 0.15462072E+04</totfact>
</mgrwt>
</event>
<event>
 4    1  0.3901757E+000  0.1793832E+03  0.7546771E-02  0.1168401E+00
         21   -1    0    0  503  502  0.00000000000E+00  0.00000000000E+00  0.51829093710E+02  0.51829093710E+02  0.00000000000E+00 0.  1.
         21   -1    0    0  501  503 -0.00000000000E+00 -0.00000000000E+00 -0.67801321133E+03  0.67801321133E+03  0.00000000000E+00 0.  1.
          6    1    1    2  501    0  0.40755846233E+02  0.24254474684E+02 -0.20713699313E+03  0.27401469389E+03  0.17300000000E+03 0.  1.
         -6    1    1    2    0  502 -0.40755846233E+02 -0.24254474684E+02 -0.41904712449E+03  0.45582761115E+03  0.17300000000E+03 0.  1.
<mgrwt>
<rscale>  2 0.17938316E+03</rscale>
<asrwt>0</asrwt>
<pdfrwt beam="1">  1       21 0.79737068E-02 0.17938316E+03</pdfrwt>
<pdfrwt beam="2">  1       21 0.10430972E+00 0.17938316E+03</pdfrwt>
<totfact> 0.90097365E+04</totfact>
</mgrwt>
</event>
<event>
 4    1  0.3901757E+000  0.2325345E+03  0.7546771E-02  0.1124868E+00
         21   -1    0    0  503  502  0.00000000000E+00  0.00000000000E+00  0.74056694184E+03  0.74056694184E+03  0.00000000000E+00 0.  1.
         21   -1    0    0  501  503 -0.00000000000E+00 -0.00000000000E+00 -0.82734220417E+02  0.82734220417E+02  0.00000000000E+00 0.  1.
          6    1    1    2  501    0  0.57704130453E+02 -0.14426893045E+03  0.18782253083E+03  0.29891402452E+03  0.17300000000E+03 0.  1.
         -6    1    1    2    0  502 -0.57704130453E+02  0.14426893045E+03  0.47001019059E+03  0.52438713773E+03  0.17300000000E+03 0.  1.
<mgrwt>
<rscale>  2 0.23253449E+03</rscale>
<asrwt>0</asrwt>
<pdfrwt beam="1">  1       21 0.11393337E+00 0.23253449E+03</pdfrwt>
<pdfrwt beam="2">  1       21 0.12728342E-01 0.23253449E+03</pdfrwt>
<totfact> 0.30977681E+04</totfact>
</mgrwt>
</event>
<event>
 4    1  0.3901757E+000  0.1747121E+03  0.7546771E-02  0.1173021E+00
         21   -1    0    0  503  502  0.00000000000E+00  0.00000000000E+00  0.23059205002E+03  0.23059205002E+03  0.00000000000E+00 0. -1.
         21   -1    0    0  501  503 -0.00000000000E+00 -0.00000000000E+00 -0.13318675971E+03  0.13318675971E+03  0.00000000000E+00 0. -1.
          6    1    1    2  501    0 -0.22552446376E+02  0.93109321315E+01  0.34490577298E+02  0.17808398641E+03  0.17300000000E+03 0. -1.
         -6    1    1    2    0  502  0.22552446376E+02 -0.93109321315E+01  0.62914713011E+02  0.18569482332E+03  0.17300000000E+03 0. -1.
<mgrwt>
<rscale>  2 0.17471207E+03</rscale>
<asrwt>0</asrwt>
<pdfrwt beam="1">  1       21 0.35475700E-01 0.17471207E+03</pdfrwt>
<pdfrwt beam="2">  1       21 0.20490271E-01 0.17471207E+03</pdfrwt>
<totfact> 0.16994820E+05</totfact>
</mgrwt>
</event>
<event>
 4    1  0.3901757E+000  0.2217794E+03  0.7546771E-02  0.1132563E+00
         21   -1    0    0  501  502  0.00000000000E+00  0.00000000000E+00  0.24197234001E+04  0.24197234001E+04  0.00000000000E+00 0.  1.
         21   -1    0    0  502  503 -0.00000000000E+00 -0.00000000000E+00 -0.83085976668E+02  0.83085976668E+02  0.00000000000E+00 0.  1.
          6    1    1    2  501    0 -0.38346644780E+02 -0.13336647035E+03  0.22559240253E+04  0.22667993490E+04  0.17300000000E+03 0.  1.
         -6    1    1    2    0  503  0.38346644780E+02  0.13336647035E+03  0.80713398122E+02  0.23601002778E+03  0.17300000000E+03 0.  1.
<mgrwt>
<rscale>  2 0.22177935E+03</rscale>
<asrwt>0</asrwt>
<pdfrwt beam="1">  1       21 0.37226508E+00 0.22177935E+03</pdfrwt>
<pdfrwt beam="2">  1       21 0.12782460E-01 0.22177935E+03</pdfrwt>
<totfact> 0.64690620E+02</totfact>
</mgrwt>
</event>
<event>
 4    1  0.3901757E+000  0.1940259E+03  0.7546771E-02  0.1154880E+00
         21   -1    0    0  501  502  0.00000000000E+00  0.00000000000E+00  0.15309061233E+03  0.15309061233E+03  0.00000000000E+00 0.  1.
         21   -1    0    0  502  503 -0.00000000000E+00 -0.00000000000E+00 -0.35292833532E+03  0.35292833532E+03  0.00000000000E+00 0.  1.
          6    1    1    2  501    0 -0.87831776704E+02  0.16218749718E+01  0.39406033752E+02  0.19798708790E+03  0.17300000000E+03 0.  1.
         -6    1    1    2    0  503  0.87831776704E+02 -0.16218749718E+01 -0.23924375674E+03  0.30803185974E+03  0.17300000000E+03 0.  1.
<mgrwt>
<rscale>  2 0.19402590E+03</rscale>
<asrwt>0</asrwt>
<pdfrwt beam="1">  1       21 0.23552402E-01 0.19402590E+03</pdfrwt>
<pdfrwt beam="2">  1       21 0.54296666E-01 0.19402590E+03</pdfrwt>
<totfact> 0.54352485E+04</totfact>
</mgrwt>
</event>
<event>
 4    1  0.3901757E+000  0.1934313E+03  0.7546771E-02  0.1155402E+00
         21   -1    0    0  503  502  0.00000000000E+00  0.00000000000E+00  0.20339849527E+03  0.20339849527E+03  0.00000000000E+00 0. -1.
         21   -1    0    0  501  503 -0.00000000000E+00 -0.00000000000E+00 -0.19983073022E+03  0.19983073022E+03  0.00000000000E+00 0.  1.
          6    1    1    2  501    0  0.80818487105E+02  0.30903514470E+02 -0.55048041848E+02  0.20111176489E+03  0.17300000000E+03 0.  1.
         -6    1    1    2    0  502 -0.80818487105E+02 -0.30903514470E+02  0.58615806898E+02  0.20211746061E+03  0.17300000000E+03 0.  1.
<mgrwt>
<rscale>  2 0.19343127E+03</rscale>
<asrwt>0</asrwt>
<pdfrwt beam="1">  1       21 0.31292076E-01 0.19343127E+03</pdfrwt>
<pdfrwt beam="2">  1       21 0.30743189E-01 0.19343127E+03</pdfrwt>
<totfact> 0.99673834E+04</totfact>
</mgrwt>
</event>
<event>
 4    1  0.3901757E+000  0.2022022E+03  0.7546771E-02  0.1147894E+00
         21   -1    0    0  501  502  0.00000000000E+00  0.00000000000E+00  0.81213111385E+02  0.81213111385E+02  0.00000000000E+00 0. -1.
         21   -1    0    0  502  503 -0.00000000000E+00 -0.00000000000E+00 -0.59729703366E+03  0.59729703366E+03  0.00000000000E+00 0.  1.
          6    1    1    2  501    0 -0.36386605175E+01  0.10461105771E+03 -0.12355792844E+03  0.23696471241E+03  0.17300000000E+03 0. -1.
         -6    1    1    2    0  503  0.36386605175E+01 -0.10461105771E+03 -0.39252599383E+03  0.44154543263E+03  0.17300000000E+03 0.  1.
<mgrwt>
<rscale>  2 0.20220216E+03</rscale>
<asrwt>0</asrwt>
<pdfrwt beam="1">  1       21 0.12494325E-01 0.20220216E+03</pdfrwt>
<pdfrwt beam="2">  1       21 0.91891853E-01 0.20220216E+03</pdfrwt>
<totfact> 0.54388207E+04</totfact>
</mgrwt>
</event>
<event>
 4    1  0.3901757E+000  0.1791579E+03  0.7546771E-02  0.1168621E+00
         21   -1    0    0  501  502  0.00000000000E+00  0.00000000000E+00  0.33032302731E+03  0.33032302731E+03  0.00000000000E+00 0.  1.
         21   -1    0    0  502  503 -0.00000000000E+00 -0.00000000000E+00 -0.32520244757E+03  0.32520244757E+03  0.00000000000E+00 0.  1.
          6    1    1    2  501    0  0.14317399181E+02  0.44311959378E+02  0.27702142690E+03  0.32990666654E+03  0.17300000000E+03 0.  1.
         -6    1    1    2    0  503 -0.14317399181E+02 -0.44311959378E+02 -0.27190084715E+03  0.32561880834E+03  0.17300000000E+03 0.  1.
<mgrwt>
<rscale>  2 0.17915786E+03</rscale>
<asrwt>0</asrwt>
<pdfrwt beam="1">  1       21 0.50818927E-01 0.17915786E+03</pdfrwt>
<pdfrwt beam="2">  1       21 0.50031146E-01 0.17915786E+03</pdfrwt>
<totfact> 0.14139612E+04</totfact>
</mgrwt>
</event>
<event>
 4    1  0.3901757E+000  0.1732132E+03  0.7546771E-02  0.1174538E+00
         21   -1    0    0  503  502  0.00000000000E+00  0.00000000000E+00  0.73510932686E+02  0.73510932686E+02  0.00000000000E+00 0. -1.
         21   -1    0    0  501  503 -0.00000000000E+00 -0.00000000000E+00 -0.78217072891E+03  0.78217072891E+03  0.00000000000E+00 0. -1.
          6    1    1    2  501    0  0.68713450907E+01  0.51568916431E+01 -0.65018880073E+03  0.67286572622E+03  0.17300000000E+03 0. -1.
         -6    1    1    2    0  502 -0.68713450907E+01 -0.51568916431E+01 -0.58470995486E+02  0.18281593538E+03  0.17300000000E+03 0. -1.
<mgrwt>
<rscale>  2 0.17321319E+03</rscale>
<asrwt>0</asrwt>
<pdfrwt beam="1">  1       21 0.11309374E-01 0.17321319E+03</pdfrwt>
<pdfrwt beam="2">  1       21 0.12033396E+00 0.17321319E+03</pdfrwt>
<totfact> 0.34597478E+04</totfact>
</mgrwt>
</event>
<event>
 4    1  0.3901757E+000  0.2013669E+03  0.7546771E-02  0.1148591E+00
         21   -1    0    0  503  502  0.00000000000E+00  0.00000000000E+00  0.48012160924E+03  0.48012160924E+03  0.00000000000E+00 0.  1.
         21   -1    0    0  501  503 -0.00000000000E+00 -0.00000000000E+00 -0.84544746013E+02  0.84544746013E+02  0.00000000000E+00 0.  1.
          6    1    1    2  501    0 -0.76698215912E+02 -0.68825850500E+02  0.20699315342E+03  0.28878154301E+03  0.17300000000E+03 0.  1.
         -6    1    1    2    0  502  0.76698215912E+02  0.68825850500E+02  0.18858370981E+03  0.27588481224E+03  0.17300000000E+03 0.  1.
<mgrwt>
<rscale>  2 0.20136686E+03</rscale>
<asrwt>0</asrwt>
<pdfrwt beam="1">  1       21 0.73864862E-01 0.20136686E+03</pdfrwt>
<pdfrwt beam="2">  1       21 0.13006884E-01 0.20136686E+03</pdfrwt>
<totfact> 0.83215525E+04</totfact>
</mgrwt>
</event>
<event>
 4    1  0.3901757E+000  0.2348211E+03  0.7546771E-02  0.1123292E+00
         21   -1    0    0  501  502  0.00000000000E+00  0.00000000000E+00  0.14988288686E+04  0.14988288686E+04  0.00000000000E+00 0. -1.
         21   -1    0    0  502  503 -0.00000000000E+00 -0.00000000000E+00 -0.99814900766E+02  0.99814900766E+02  0.00000000000E+00 0. -1.
          6    1    1    2  501    0  0.12953885252E+03 -0.91824033880E+02  0.13346657191E+04  0.13551655062E+04  0.17300000000E+03 0. -1.
         -6    1    1    2    0  503 -0.12953885252E+03  0.91824033880E+02  0.64348248737E+02  0.24347826315E+03  0.17300000000E+03 0. -1.
<mgrwt>
<rscale>  2 0.23482114E+03</rscale>
<asrwt>0</asrwt>
<pdfrwt beam="1">  1       21 0.23058904E+00 0.23482114E+03</pdfrwt>
<pdfrwt beam="2">  1       21 0.15356140E-01 0.23482114E+03</pdfrwt>
<totfact> 0.31296963E+03</totfact>
</mgrwt>
</event>
<event>
 4    1  0.3901757E+000  0.2052398E+03  0.7546771E-02  0.1145392E+00
         21   -1    0    0  501  502  0.00000000000E+00  0.00000000000E+00  0.37871891988E+03  0.37871891988E+03  0.00000000000E+00 0.  1.
         21   -1    0    0  502  503 -0.00000000000E+00 -0.00000000000E+00 -0.21531133011E+03  0.21531133011E+03  0.00000000000E+00 0. -1.
          6    1    1    2  501    0  0.33631713013E+02 -0.10518224095E+03  0.28821320976E+03  0.35382234272E+03  0.17300000000E+03 0.  1.
         -6    1    1    2    0  503 -0.33631713013E+02  0.10518224095E+03 -0.12480561999E+03  0.24020790726E+03  0.17300000000E+03 0. -1.
<mgrwt>
<rscale>  2 0.20523985E+03</rscale>
<asrwt>0</asrwt>
<pdfrwt beam="1">  1       21 0.58264449E-01 0.20523985E+03</pdfrwt>
<pdfrwt beam="2">  1       21 0.33124820E-01 0.20523985E+03</pdfrwt>
<totfact> 0.24037944E+04</totfact>
</mgrwt>
</event>
<event>
 4    1  0.3901757E+000  0.3748445E+03  0.7546771E-02  0.1052856E+00
         21   -1    0    0  503  502  0.00000000000E+00  0.00000000000E+00  0.96640331408E+03  0.96640331408E+03  0.00000000000E+00 0. -1.
         21   -1    0    0  501  503 -0.00000000000E+00 -0.00000000000E+00 -0.19885547116E+03  0.19885547116E+03  0.00000000000E+00 0. -1.
          6    1    1    2  501    0 -0.12043143619E+03  0.30996081108E+03  0.81676187429E+02  0.38363972007E+03  0.17300000000E+03 0. -1.
         -6    1    1    2    0  502  0.12043143619E+03 -0.30996081108E+03  0.68587165550E+03  0.78161906517E+03  0.17300000000E+03 0. -1.
<mgrwt>
<rscale>  2 0.37484455E+03</rscale>
<asrwt>0</asrwt>
<pdfrwt beam="1">  1       21 0.14867743E+00 0.37484455E+03</pdfrwt>
<pdfrwt beam="2">  1       21 0.30593150E-01 0.37484455E+03</pdfrwt>
<totfact> 0.27895733E+03</totfact>
</mgrwt>
</event>
<event>
 4    1  0.3901757E+000  0.1890023E+03  0.7546771E-02  0.1159364E+00
         21   -1    0    0  503  502  0.00000000000E+00  0.00000000000E+00  0.83633968317E+02  0.83633968317E+02  0.00000000000E+00 0.  1.
         21   -1    0    0  501  503 -0.00000000000E+00 -0.00000000000E+00 -0.54170320980E+03  0.54170320980E+03  0.00000000000E+00 0.  1.
          6    1    1    2  501    0  0.73090424495E+02 -0.21228452690E+02 -0.37283545132E+03  0.41800494150E+03  0.17300000000E+03 0.  1.
         -6    1    1    2    0  502 -0.73090424495E+02  0.21228452690E+02 -0.85233790166E+02  0.20733223662E+03  0.17300000000E+03 0.  1.
<mgrwt>
<rscale>  2 0.18900227E+03</rscale>
<asrwt>0</asrwt>
<pdfrwt beam="1">  1       21 0.12866765E-01 0.18900227E+03</pdfrwt>
<pdfrwt beam="2">  1       21 0.83338953E-01 0.18900227E+03</pdfrwt>
<totfact> 0.65015376E+04</totfact>
</mgrwt>
</event>
<event>
 4    1  0.3901757E+000  0.2187509E+03  0.7546771E-02  0.1134818E+00
         21   -1    0    0  501  502  0.00000000000E+00  0.00000000000E+00  0.75096629190E+03  0.75096629190E+03  0.00000000000E+00 0.  1.
         21   -1    0    0  502  503 -0.00000000000E+00 -0.00000000000E+00 -0.25531111510E+03  0.25531111510E+03  0.00000000000E+00 0.  1.
          6    1    1    2  501    0  0.13330279775E+03  0.12382078082E+02  0.68368052328E+03  0.71782380126E+03  0.17300000000E+03 0.  1.
         -6    1    1    2    0  503 -0.13330279775E+03 -0.12382078082E+02 -0.18802534647E+03  0.28845360574E+03  0.17300000000E+03 0.  1.
<mgrwt>
<rscale>  2 0.21875089E+03</rscale>
<asrwt>0</asrwt>
<pdfrwt beam="1">  1       21 0.11553327E+00 0.21875089E+03</pdfrwt>
<pdfrwt beam="2">  1       21 0.39278634E-01 0.21875089E+03</pdfrwt>
<totfact> 0.35458717E+03</totfact>
</mgrwt>
</event>
<event>
 4    1  0.3901757E+000  0.1935504E+03  0.7546771E-02  0.1155298E+00
         21   -1    0    0  501  502  0.00000000000E+00  0.00000000000E+00  0.41516512721E+03  0.41516512721E+03  0.00000000000E+00 0.  1.
         21   -1    0    0  502  503 -0.00000000000E+00 -0.00000000000E+00 -0.20055691062E+03  0.20055691062E+03  0.00000000000E+00 0.  1.
          6    1    1    2  501    0 -0.27037967128E+02 -0.82472494057E+02  0.33563775321E+03  0.38744608053E+03  0.17300000000E+03 0.  1.
         -6    1    1    2    0  503  0.27037967128E+02  0.82472494057E+02 -0.12102953662E+03  0.22827595729E+03  0.17300000000E+03 0.  1.
<mgrwt>
<rscale>  2 0.19355042E+03</rscale>
<asrwt>0</asrwt>
<pdfrwt beam="1">  1       21 0.63871558E-01 0.19355042E+03</pdfrwt>
<pdfrwt beam="2">  1       21 0.30854909E-01 0.19355042E+03</pdfrwt>
<totfact> 0.22827842E+04</totfact>
</mgrwt>
</event>
<event>
 4    1  0.3901757E+000  0.1921883E+03  0.7546771E-02  0.1156502E+00
         21   -1    0    0  503  502  0.00000000000E+00  0.00000000000E+00  0.64514096977E+03  0.64514096977E+03  0.00000000000E+00 0. -1.
         21   -1    0    0  501  503 -0.00000000000E+00 -0.00000000000E+00 -0.15968058642E+03  0.15968058642E+03  0.00000000000E+00 0. -1.
          6    1    1    2  501    0 -0.57476397794E+02  0.60858887426E+02 -0.79563449220E+02  0.20800644926E+03  0.17300000000E+03 0. -1.
         -6    1    1    2    0  502  0.57476397794E+02 -0.60858887426E+02  0.56502383258E+03  0.59681510693E+03  0.17300000000E+03 0. -1.
<mgrwt>
<rscale>  2 0.19218829E+03</rscale>
<asrwt>0</asrwt>
<pdfrwt beam="1">  1       21 0.99252456E-01 0.19218829E+03</pdfrwt>
<pdfrwt beam="2">  1       21 0.24566244E-01 0.19218829E+03</pdfrwt>
<totfact> 0.13092224E+04</totfact>
</mgrwt>
</event>
<event>
 4    1  0.3901757E+000  0.2171202E+03  0.7546771E-02  0.1136048E+00
         21   -1    0    0  501  502  0.00000000000E+00  0.00000000000E+00  0.92618017409E+02  0.92618017409E+02  0.00000000000E+00 0. -1.
         21   -1    0    0  502  503 -0.00000000000E+00 -0.00000000000E+00 -0.53038693174E+03  0.53038693174E+03  0.00000000000E+00 0. -1.
          6    1    1    2  501    0 -0.79977491408E+02 -0.10399894572E+03 -0.15631076628E+03  0.26753361564E+03  0.17300000000E+03 0. -1.
         -6    1    1    2    0  503  0.79977491408E+02  0.10399894572E+03 -0.28145814805E+03  0.35547133351E+03  0.17300000000E+03 0. -1.
<mgrwt>
<rscale>  2 0.21712020E+03</rscale>
<asrwt>0</asrwt>
<pdfrwt beam="1">  1       21 0.14248926E-01 0.21712020E+03</pdfrwt>
<pdfrwt beam="2">  1       21 0.81597987E-01 0.21712020E+03</pdfrwt>
<totfact> 0.55981416E+04</totfact>
</mgrwt>
</event>
<event>
 4    1  0.3901757E+000  0.1730412E+03  0.7546771E-02  0.1174713E+00
         21   -1    0    0  501  502  0.00000000000E+00  0.00000000000E+00  0.42450860695E+02  0.42450860695E+02  0.00000000000E+00 0. -1.
         21   -1    0    0  502  503 -0.00000000000E+00 -0.00000000000E+00 -0.25278417145E+04  0.25278417145E+04  0.00000000000E+00 0. -1.
          6    1    1    2  501    0  0.35130755473E+01 -0.13808901626E+01 -0.15148398673E+03  0.22997966604E+03  0.17300000000E+03 0. -1.
         -6    1    1    2    0  503 -0.35130755473E+01  0.13808901626E+01 -0.23339068671E+04  0.23403129091E+04  0.17300000000E+03 0. -1.
<mgrwt>
<rscale>  2 0.17304118E+03</rscale>
<asrwt>0</asrwt>
<pdfrwt beam="1">  1       21 0.65308987E-02 0.17304118E+03</pdfrwt>
<pdfrwt beam="2">  1       21 0.38889890E+00 0.17304118E+03</pdfrwt>
<totfact> 0.17932029E+03</totfact>
</mgrwt>
</event>
<event>
 4    1  0.3901757E+000  0.2203499E+03  0.7546771E-02  0.1133622E+00
         21   -1    0    0  503  502  0.00000000000E+00  0.00000000000E+00  0.24835879210E+03  0.24835879210E+03  0.00000000000E+00 0. -1.
         21   -1    0    0  501  503 -0.00000000000E+00 -0.00000000000E+00 -0.24182603685E+03  0.24182603685E+03  0.00000000000E+00 0.  1.
          6    1    1    2  501    0 -0.11447287767E+02 -0.13599279683E+03 -0.10400703526E+03  0.24366276812E+03  0.17300000000E+03 0. -1.
         -6    1    1    2    0  502  0.11447287767E+02  0.13599279683E+03  0.11053979052E+03  0.24652206082E+03  0.17300000000E+03 0.  1.
<mgrwt>
<rscale>  2 0.22034991E+03</rscale>
<asrwt>0</asrwt>
<pdfrwt beam="1">  1       21 0.38209045E-01 0.22034991E+03</pdfrwt>
<pdfrwt beam="2">  1       21 0.37204006E-01 0.22034991E+03</pdfrwt>
<totfact> 0.45413279E+04</totfact>
</mgrwt>
</event>
<event>
 4    1  0.3901757E+000  0.1730860E+03  0.7546771E-02  0.1174667E+00
         21   -1    0    0  503  502  0.00000000000E+00  0.00000000000E+00  0.34274114982E+03  0.34274114982E+03  0.00000000000E+00 0. -1.
         21   -1    0    0  501  503 -0.00000000000E+00 -0.00000000000E+00 -0.93537155741E+02  0.93537155741E+02  0.00000000000E+00 0. -1.
          6    1    1    2  501    0  0.47094697214E+01 -0.27522334341E+01  0.68768240043E+02  0.18624667710E+03  0.17300000000E+03 0. -1.
         -6    1    1    2    0  502 -0.47094697214E+01  0.27522334341E+01  0.18043575404E+03  0.25003162846E+03  0.17300000000E+03 0. -1.
<mgrwt>
<rscale>  2 0.17308597E+03</rscale>
<asrwt>0</asrwt>
<pdfrwt beam="1">  1       21 0.52729407E-01 0.17308597E+03</pdfrwt>
<pdfrwt beam="2">  1       21 0.14390332E-01 0.17308597E+03</pdfrwt>
<totfact> 0.14516441E+05</totfact>
</mgrwt>
</event>
<event>
 4    1  0.3901757E+000  0.2734666E+03  0.7546771E-02  0.1099312E+00
         21   -1    0    0  503  502  0.00000000000E+00  0.00000000000E+00  0.97128984757E+03  0.97128984757E+03  0.00000000000E+00 0. -1.
         21   -1    0    0  501  503 -0.00000000000E+00 -0.00000000000E+00 -0.12159605376E+03  0.12159605376E+03  0.00000000000E+00 0.  1.
          6    1    1    2  501    0 -0.43217953170E+02 -0.20733351153E+03  0.93898653739E+02  0.28913826045E+03  0.17300000000E+03 0.  1.
         -6    1    1    2    0  502  0.43217953170E+02  0.20733351153E+03  0.75579514007E+03  0.80374764089E+03  0.17300000000E+03 0.  1.
<mgrwt>
<rscale>  2 0.27346659E+03</rscale>
<asrwt>0</asrwt>
<pdfrwt beam="1">  1       21 0.14942920E+00 0.27346659E+03</pdfrwt>
<pdfrwt beam="2">  1       21 0.18707086E-01 0.27346659E+03</pdfrwt>
<totfact> 0.74710267E+03</totfact>
</mgrwt>
</event>
<event>
 4    1  0.3901757E+000  0.2066681E+03  0.7546771E-02  0.1144232E+00
         21   -1    0    0  501  502  0.00000000000E+00  0.00000000000E+00  0.11322660716E+04  0.11322660716E+04  0.00000000000E+00 0. -1.
         21   -1    0    0  502  503 -0.00000000000E+00 -0.00000000000E+00 -0.38323471522E+02  0.38323471522E+02  0.00000000000E+00 0.  1.
          6    1    1    2  501    0 -0.87537102992E+02  0.71553817567E+02  0.62027693291E+03  0.65380055576E+03  0.17300000000E+03 0. -1.
         -6    1    1    2    0  503  0.87537102992E+02 -0.71553817567E+02  0.47366566718E+03  0.51678898738E+03  0.17300000000E+03 0.  1.
<mgrwt>
<rscale>  2 0.20666807E+03</rscale>
<asrwt>0</asrwt>
<pdfrwt beam="1">  1       21 0.17419475E+00 0.20666807E+03</pdfrwt>
<pdfrwt beam="2">  1       21 0.58959196E-02 0.20666807E+03</pdfrwt>
<totfact> 0.40172082E+04</totfact>
</mgrwt>
</event>
<event>
 4    1  0.3901757E+000  0.2115824E+03  0.7546771E-02  0.1140319E+00
         21   -1    0    0  503  502  0.00000000000E+00  0.00000000000E+00  0.84683539205E+03  0.84683539205E+03  0.00000000000E+00 0. -1.
         21   -1    0    0  501  503 -0.00000000000E+00 -0.00000000000E+00 -0.14705077735E+03  0.14705077735E+03  0.00000000000E+00 0.  1.
          6    1    1    2  501    0 -0.67850716823E+02 -0.10116520399E+03 -0.47818987499E+02  0.21691881854E+03  0.17300000000E+03 0.  1.
         -6    1    1    2    0  502  0.67850716823E+02  0.10116520399E+03  0.74760360220E+03  0.77696735086E+03  0.17300000000E+03 0. -1.
<mgrwt>
<rscale>  2 0.21158241E+03</rscale>
<asrwt>0</asrwt>
<pdfrwt beam="1">  1       21 0.13028237E+00 0.21158241E+03</pdfrwt>
<pdfrwt beam="2">  1       21 0.22623197E-01 0.21158241E+03</pdfrwt>
<totfact> 0.77611278E+03</totfact>
</mgrwt>
</event>
<event>
 4    1  0.3901757E+000  0.1925480E+03  0.7546771E-02  0.1156183E+00
         21   -1    0    0  501  502  0.00000000000E+00  0.00000000000E+00  0.25503037018E+03  0.25503037018E+03  0.00000000000E+00 0.  1.
         21   -1    0    0  502  503 -0.00000000000E+00 -0.00000000000E+00 -0.15708938826E+03  0.15708938826E+03  0.00000000000E+00 0.  1.
          6    1    1    2  501    0  0.69562618901E+02 -0.48029051426E+02  0.10524362082E+03  0.21943328702E+03  0.17300000000E+03 0.  1.
         -6    1    1    2    0  503 -0.69562618901E+02  0.48029051426E+02 -0.73026389046E+01  0.19268647141E+03  0.17300000000E+03 0.  1.
<mgrwt>
<rscale>  2 0.19254804E+03</rscale>
<asrwt>0</asrwt>
<pdfrwt beam="1">  1       21 0.39235442E-01 0.19254804E+03</pdfrwt>
<pdfrwt beam="2">  1       21 0.24167598E-01 0.19254804E+03</pdfrwt>
<totfact> 0.10119359E+05</totfact>
</mgrwt>
</event>
<event>
 4    1  0.3901757E+000  0.2256275E+03  0.7546771E-02  0.1129756E+00
         21   -1    0    0  501  502  0.00000000000E+00  0.00000000000E+00  0.17467328248E+03  0.17467328248E+03  0.00000000000E+00 0.  1.
         21   -1    0    0  502  503 -0.00000000000E+00 -0.00000000000E+00 -0.29270249632E+03  0.29270249632E+03  0.00000000000E+00 0.  1.
          6    1    1    2  501    0 -0.86256339831E+02 -0.11635547706E+03 -0.74328269174E+02  0.23755514055E+03  0.17300000000E+03 0.  1.
         -6    1    1    2    0  503  0.86256339831E+02  0.11635547706E+03 -0.43700944661E+02  0.22982063825E+03  0.17300000000E+03 0.  1.
<mgrwt>
<rscale>  2 0.22562747E+03</rscale>
<asrwt>0</asrwt>
<pdfrwt beam="1">  1       21 0.26872813E-01 0.22562747E+03</pdfrwt>
<pdfrwt beam="2">  1       21 0.45031153E-01 0.22562747E+03</pdfrwt>
<totfact> 0.61499802E+04</totfact>
</mgrwt>
</event>
<event>
 4    1  0.3901757E+000  0.1907589E+03  0.7546771E-02  0.1157779E+00
         21   -1    0    0  503  502  0.00000000000E+00  0.00000000000E+00  0.59314655087E+02  0.59314655087E+02  0.00000000000E+00 0.  1.
         21   -1    0    0  501  503 -0.00000000000E+00 -0.00000000000E+00 -0.96136795526E+03  0.96136795526E+03  0.00000000000E+00 0.  1.
          6    1    1    2  501    0  0.57780636444E+02 -0.55869024638E+02 -0.75802025676E+03  0.78165443741E+03  0.17300000000E+03 0.  1.
         -6    1    1    2    0  502 -0.57780636444E+02  0.55869024638E+02 -0.14403304341E+03  0.23902817293E+03  0.17300000000E+03 0.  1.
<mgrwt>
<rscale>  2 0.19075888E+03</rscale>
<asrwt>0</asrwt>
<pdfrwt beam="1">  1       21 0.91253317E-02 0.19075888E+03</pdfrwt>
<pdfrwt beam="2">  1       21 0.14790276E+00 0.19075888E+03</pdfrwt>
<totfact> 0.29606377E+04</totfact>
</mgrwt>
</event>
<event>
 4    1  0.3901757E+000  0.3247982E+03  0.7546771E-02  0.1073462E+00
         21   -1    0    0  501  502  0.00000000000E+00  0.00000000000E+00  0.10252583615E+03  0.10252583615E+03  0.00000000000E+00 0. -1.
         21   -1    0    0  502  503 -0.00000000000E+00 -0.00000000000E+00 -0.12580202013E+04  0.12580202013E+04  0.00000000000E+00 0. -1.
          6    1    1    2  501    0 -0.79292605698E+02 -0.26320630290E+03 -0.28746223726E+03  0.43373772380E+03  0.17300000000E+03 0. -1.
         -6    1    1    2    0  503  0.79292605698E+02  0.26320630290E+03 -0.86803212788E+03  0.92680831364E+03  0.17300000000E+03 0. -1.
<mgrwt>
<rscale>  2 0.32479821E+03</rscale>
<asrwt>0</asrwt>
<pdfrwt beam="1">  1       21 0.15773205E-01 0.32479821E+03</pdfrwt>
<pdfrwt beam="2">  1       21 0.19354158E+00 0.32479821E+03</pdfrwt>
<totfact> 0.48191592E+03</totfact>
</mgrwt>
</event>
<event>
 4    1  0.3901757E+000  0.2117599E+03  0.7546771E-02  0.1140180E+00
         21   -1    0    0  501  502  0.00000000000E+00  0.00000000000E+00  0.64223105950E+02  0.64223105950E+02  0.00000000000E+00 0. -1.
         21   -1    0    0  502  503 -0.00000000000E+00 -0.00000000000E+00 -0.75504039081E+03  0.75504039081E+03  0.00000000000E+00 0. -1.
          6    1    1    2  501    0  0.12057728519E+03 -0.19349075006E+02 -0.45777495900E+03  0.50438098844E+03  0.17300000000E+03 0. -1.
         -6    1    1    2    0  503 -0.12057728519E+03  0.19349075006E+02 -0.23304232586E+03  0.31488250833E+03  0.17300000000E+03 0. -1.
<mgrwt>
<rscale>  2 0.21175993E+03</rscale>
<asrwt>0</asrwt>
<pdfrwt beam="1">  1       21 0.98804772E-02 0.21175993E+03</pdfrwt>
<pdfrwt beam="2">  1       21 0.11616007E+00 0.21175993E+03</pdfrwt>
<totfact> 0.46941594E+04</totfact>
</mgrwt>
</event>
<event>
 4    1  0.3901757E+000  0.1751159E+03  0.7546771E-02  0.1172615E+00
         21   -1    0    0  503  502  0.00000000000E+00  0.00000000000E+00  0.61772138204E+03  0.61772138204E+03  0.00000000000E+00 0.  1.
         21   -1    0    0  501  503 -0.00000000000E+00 -0.00000000000E+00 -0.64659187250E+02  0.64659187250E+02  0.00000000000E+00 0.  1.
          6    1    1    2  501    0  0.27137338880E+02  0.36066730181E+00  0.44095344410E+03  0.47445284814E+03  0.17300000000E+03 0.  1.
         -6    1    1    2    0  502 -0.27137338880E+02 -0.36066730181E+00  0.11210875069E+03  0.20792772115E+03  0.17300000000E+03 0.  1.
<mgrwt>
<rscale>  2 0.17511586E+03</rscale>
<asrwt>0</asrwt>
<pdfrwt beam="1">  1       21 0.95034055E-01 0.17511586E+03</pdfrwt>
<pdfrwt beam="2">  1       21 0.99475677E-02 0.17511586E+03</pdfrwt>
<totfact> 0.76399946E+04</totfact>
</mgrwt>
</event>
<event>
 4    1  0.3901757E+000  0.1973378E+03  0.7546771E-02  0.1152005E+00
         21   -1    0    0  503  502  0.00000000000E+00  0.00000000000E+00  0.56244878187E+02  0.56244878187E+02  0.00000000000E+00 0. -1.
         21   -1    0    0  501  503 -0.00000000000E+00 -0.00000000000E+00 -0.85853070142E+03  0.85853070142E+03  0.00000000000E+00 0. -1.
          6    1    1    2  501    0 -0.94937434612E+02  0.28603932630E+00 -0.60236348860E+03  0.63386431569E+03  0.17300000000E+03 0. -1.
         -6    1    1    2    0  502  0.94937434612E+02 -0.28603932630E+00 -0.19992233463E+03  0.28091126392E+03  0.17300000000E+03 0. -1.
<mgrwt>
<rscale>  2 0.19733778E+03</rscale>
<asrwt>0</asrwt>
<pdfrwt beam="1">  1       21 0.86530585E-02 0.19733778E+03</pdfrwt>
<pdfrwt beam="2">  1       21 0.13208164E+00 0.19733778E+03</pdfrwt>
<totfact> 0.43339264E+04</totfact>
</mgrwt>
</event>
<event>
 4    1  0.3901757E+000  0.2546154E+03  0.7546771E-02  0.1110422E+00
         21   -1    0    0  501  502  0.00000000000E+00  0.00000000000E+00  0.69981851140E+02  0.69981851140E+02  0.00000000000E+00 0.  1.
         21   -1    0    0  502  503 -0.00000000000E+00 -0.00000000000E+00 -0.92667620549E+03  0.92667620549E+03  0.00000000000E+00 0.  1.
          6    1    1    2  501    0  0.26279946560E+02 -0.18495780839E+03 -0.41927575097E+03  0.49053152990E+03  0.17300000000E+03 0.  1.
         -6    1    1    2    0  503 -0.26279946560E+02  0.18495780839E+03 -0.43741860337E+03  0.50612652672E+03  0.17300000000E+03 0.  1.
<mgrwt>
<rscale>  2 0.25461545E+03</rscale>
<asrwt>0</asrwt>
<pdfrwt beam="1">  1       21 0.10766439E-01 0.25461545E+03</pdfrwt>
<pdfrwt beam="2">  1       21 0.14256556E+00 0.25461545E+03</pdfrwt>
<totfact> 0.23447567E+04</totfact>
</mgrwt>
</event>
<event>
 4    1  0.3901757E+000  0.2108758E+03  0.7546771E-02  0.1140874E+00
         21   -1    0    0  503  502  0.00000000000E+00  0.00000000000E+00  0.11329530606E+03  0.11329530606E+03  0.00000000000E+00 0.  1.
         21   -1    0    0  501  503 -0.00000000000E+00 -0.00000000000E+00 -0.41136217142E+03  0.41136217142E+03  0.00000000000E+00 0. -1.
          6    1    1    2  501    0  0.69523971410E+02  0.98519068093E+02 -0.20520429228E+03  0.29424036254E+03  0.17300000000E+03 0. -1.
         -6    1    1    2    0  502 -0.69523971410E+02 -0.98519068093E+02 -0.92862573087E+02  0.23041711494E+03  0.17300000000E+03 0.  1.
<mgrwt>
<rscale>  2 0.21087577E+03</rscale>
<asrwt>0</asrwt>
<pdfrwt beam="1">  1       21 0.17430047E-01 0.21087577E+03</pdfrwt>
<pdfrwt beam="2">  1       21 0.63286488E-01 0.21087577E+03</pdfrwt>
<totfact> 0.68252086E+04</totfact>
</mgrwt>
</event>
<event>
 4    1  0.3901757E+000  0.1778284E+03  0.7546771E-02  0.1169921E+00
         21   -1    0    0  503  502  0.00000000000E+00  0.00000000000E+00  0.13088025642E+04  0.13088025642E+04  0.00000000000E+00 0.  1.
         21   -1    0    0  501  503 -0.00000000000E+00 -0.00000000000E+00 -0.27319272917E+02  0.27319272917E+02  0.00000000000E+00 0.  1.
          6    1    1    2  501    0  0.33200773204E+02 -0.24323939677E+02  0.41362156150E+03  0.45022854365E+03  0.17300000000E+03 0.  1.
         -6    1    1    2    0  502 -0.33200773204E+02  0.24323939677E+02  0.86786172982E+03  0.88589329350E+03  0.17300000000E+03 0.  1.
<mgrwt>
<rscale>  2 0.17782842E+03</rscale>
<asrwt>0</asrwt>
<pdfrwt beam="1">  1       21 0.20135419E+00 0.17782842E+03</pdfrwt>
<pdfrwt beam="2">  1       21 0.42029661E-02 0.17782842E+03</pdfrwt>
<totfact> 0.47935952E+04</totfact>
</mgrwt>
</event>
<event>
 4    1  0.3901757E+000  0.1783933E+03  0.7546771E-02  0.1169367E+00
         21   -1    0    0  501  502  0.00000000000E+00  0.00000000000E+00  0.85554384201E+03  0.85554384201E+03  0.00000000000E+00 0. -1.
         21   -1    0    0  502  503 -0.00000000000E+00 -0.00000000000E+00 -0.37690075275E+02  0.37690075275E+02  0.00000000000E+00 0. -1.
          6    1    1    2  501    0  0.40428619397E+01 -0.43345332643E+02  0.35787383655E+03  0.39987228646E+03  0.17300000000E+03 0.  1.
         -6    1    1    2    0  503 -0.40428619397E+01  0.43345332643E+02  0.45997993018E+03  0.49336163082E+03  0.17300000000E+03 0.  1.
<mgrwt>
<rscale>  2 0.17839328E+03</rscale>
<asrwt>0</asrwt>
<pdfrwt beam="1">  1       21 0.13162212E+00 0.17839328E+03</pdfrwt>
<pdfrwt beam="2">  1       21 0.57984737E-02 0.17839328E+03</pdfrwt>
<totfact> 0.88154594E+04</totfact>
</mgrwt>
</event>
<event>
 4    1  0.3901757E+000  0.1846109E+03  0.7546771E-02  0.1163414E+00
         21   -1    0    0  503  502  0.00000000000E+00  0.00000000000E+00  0.41061339643E+03  0.41061339643E+03  0.00000000000E+00 0. -1.
         21   -1    0    0  501  503 -0.00000000000E+00 -0.00000000000E+00 -0.18597271754E+03  0.18597271754E+03  0.00000000000E+00 0. -1.
          6    1    1    2  501    0 -0.64108492193E+02  0.65032305122E+01 -0.10964143149E+03  0.21471477424E+03  0.17300000000E+03 0. -1.
         -6    1    1    2    0  502  0.64108492193E+02 -0.65032305122E+01  0.33428211039E+03  0.38187133973E+03  0.17300000000E+03 0. -1.
<mgrwt>
<rscale>  2 0.18461092E+03</rscale>
<asrwt>0</asrwt>
<pdfrwt beam="1">  1       21 0.63171292E-01 0.18461092E+03</pdfrwt>
<pdfrwt beam="2">  1       21 0.28611187E-01 0.18461092E+03</pdfrwt>
<totfact> 0.27215118E+04</totfact>
</mgrwt>
</event>
<event>
 4    1  0.3901757E+000  0.1985017E+03  0.7546771E-02  0.1151009E+00
         21   -1    0    0  503  502  0.00000000000E+00  0.00000000000E+00  0.71187268016E+03  0.71187268016E+03  0.00000000000E+00 0. -1.
         21   -1    0    0  501  503 -0.00000000000E+00 -0.00000000000E+00 -0.57455548743E+02  0.57455548743E+02  0.00000000000E+00 0.  1.
          6    1    1    2  501    0 -0.79223399697E+02 -0.56547119920E+02  0.25359012564E+03  0.32204172968E+03  0.17300000000E+03 0.  1.
         -6    1    1    2    0  502  0.79223399697E+02  0.56547119920E+02  0.40082700577E+03  0.44728649922E+03  0.17300000000E+03 0. -1.
<mgrwt>
<rscale>  2 0.19850170E+03</rscale>
<asrwt>0</asrwt>
<pdfrwt beam="1">  1       21 0.10951887E+00 0.19850170E+03</pdfrwt>
<pdfrwt beam="2">  1       21 0.88393157E-02 0.19850170E+03</pdfrwt>
<totfact> 0.66356007E+04</totfact>
</mgrwt>
</event>
<event>
 4    1  0.3901757E+000  0.2208683E+03  0.7546771E-02  0.1133237E+00
         21   -1    0    0  501  502  0.00000000000E+00  0.00000000000E+00  0.38966103756E+03  0.38966103756E+03  0.00000000000E+00 0. -1.
         21   -1    0    0  502  503 -0.00000000000E+00 -0.00000000000E+00 -0.21814249324E+03  0.21814249324E+03  0.00000000000E+00 0. -1.
          6    1    1    2  501    0 -0.13256102933E+03 -0.35796203170E+02  0.28413422539E+03  0.35988199829E+03  0.17300000000E+03 0. -1.
         -6    1    1    2    0  503  0.13256102933E+03  0.35796203170E+02 -0.11261568106E+03  0.24792153250E+03  0.17300000000E+03 0. -1.
<mgrwt>
<rscale>  2 0.22086827E+03</rscale>
<asrwt>0</asrwt>
<pdfrwt beam="1">  1       21 0.59947852E-01 0.22086827E+03</pdfrwt>
<pdfrwt beam="2">  1       21 0.33560384E-01 0.22086827E+03</pdfrwt>
<totfact> 0.21845074E+04</totfact>
</mgrwt>
</event>
<event>
 4    1  0.3901757E+000  0.1804411E+03  0.7546771E-02  0.1167377E+00
         21   -1    0    0  501  502  0.00000000000E+00  0.00000000000E+00  0.89476756840E+02  0.89476756840E+02  0.00000000000E+00 0. -1.
         21   -1    0    0  502  503 -0.00000000000E+00 -0.00000000000E+00 -0.47899144797E+03  0.47899144797E+03  0.00000000000E+00 0. -1.
          6    1    1    2  501    0  0.50926402332E+02  0.60414252200E+01 -0.55420026231E+02  0.18876010325E+03  0.17300000000E+03 0. -1.
         -6    1    1    2    0  503 -0.50926402332E+02 -0.60414252200E+01 -0.33409466490E+03  0.37970810156E+03  0.17300000000E+03 0. -1.
<mgrwt>
<rscale>  2 0.18044112E+03</rscale>
<asrwt>0</asrwt>
<pdfrwt beam="1">  1       21 0.13765654E-01 0.18044112E+03</pdfrwt>
<pdfrwt beam="2">  1       21 0.73690995E-01 0.18044112E+03</pdfrwt>
<totfact> 0.76199656E+04</totfact>
</mgrwt>
</event>
<event>
 4    1  0.3901757E+000  0.2282123E+03  0.7546771E-02  0.1127904E+00
         21   -1    0    0  501  502  0.00000000000E+00  0.00000000000E+00  0.20313802625E+03  0.20313802625E+03  0.00000000000E+00 0. -1.
         21   -1    0    0  502  503 -0.00000000000E+00 -0.00000000000E+00 -0.30752693873E+03  0.30752693873E+03  0.00000000000E+00 0. -1.
          6    1    1    2  501    0 -0.47940019692E+02  0.14090285871E+03 -0.15632240878E+03  0.27661806985E+03  0.17300000000E+03 0. -1.
         -6    1    1    2    0  503  0.47940019692E+02 -0.14090285871E+03  0.51933496306E+02  0.23404689513E+03  0.17300000000E+03 0. -1.
<mgrwt>
<rscale>  2 0.22821232E+03</rscale>
<asrwt>0</asrwt>
<pdfrwt beam="1">  1       21 0.31252004E-01 0.22821232E+03</pdfrwt>
<pdfrwt beam="2">  1       21 0.47311836E-01 0.22821232E+03</pdfrwt>
<totfact> 0.41323252E+04</totfact>
</mgrwt>
</event>
<event>
 4    1  0.3901757E+000  0.1757635E+03  0.7546771E-02  0.1171967E+00
         21   -1    0    0  503  502  0.00000000000E+00  0.00000000000E+00  0.10665624170E+04  0.10665624170E+04  0.00000000000E+00 0. -1.
         21   -1    0    0  501  503 -0.00000000000E+00 -0.00000000000E+00 -0.35783313795E+02  0.35783313795E+02  0.00000000000E+00 0. -1.
          6    1    1    2  501    0 -0.32563619339E+01 -0.30874099962E+02  0.27479210537E+03  0.32619551670E+03  0.17300000000E+03 0.  1.
         -6    1    1    2    0  502  0.32563619339E+01  0.30874099962E+02  0.75598699780E+03  0.77615021406E+03  0.17300000000E+03 0.  1.
<mgrwt>
<rscale>  2 0.17576352E+03</rscale>
<asrwt>0</asrwt>
<pdfrwt beam="1">  1       21 0.16408650E+00 0.17576352E+03</pdfrwt>
<pdfrwt beam="2">  1       21 0.55051260E-02 0.17576352E+03</pdfrwt>
<totfact> 0.54221873E+04</totfact>
</mgrwt>
</event>
<event>
 4    1  0.3901757E+000  0.2152006E+03  0.7546771E-02  0.1137513E+00
         21   -1    0    0  501  502  0.00000000000E+00  0.00000000000E+00  0.55204143282E+03  0.55204143282E+03  0.00000000000E+00 0. -1.
         21   -1    0    0  502  503 -0.00000000000E+00 -0.00000000000E+00 -0.10878198963E+03  0.10878198963E+03  0.00000000000E+00 0. -1.
          6    1    1    2  501    0 -0.10457698157E+03  0.73796675534E+02  0.37968107815E+03  0.43642756043E+03  0.17300000000E+03 0. -1.
         -6    1    1    2    0  503  0.10457698157E+03 -0.73796675534E+02  0.63578365030E+02  0.22439586202E+03  0.17300000000E+03 0. -1.
<mgrwt>
<rscale>  2 0.21520059E+03</rscale>
<asrwt>0</asrwt>
<pdfrwt beam="1">  1       21 0.84929449E-01 0.21520059E+03</pdfrwt>
<pdfrwt beam="2">  1       21 0.16735691E-01 0.21520059E+03</pdfrwt>
<totfact> 0.38094980E+04</totfact>
</mgrwt>
</event>
<event>
 4    1  0.3901757E+000  0.1804008E+03  0.7546771E-02  0.1167416E+00
         21   -1    0    0  501  502  0.00000000000E+00  0.00000000000E+00  0.36723349532E+03  0.36723349532E+03  0.00000000000E+00 0. -1.
         21   -1    0    0  502  503 -0.00000000000E+00 -0.00000000000E+00 -0.11206804549E+03  0.11206804549E+03  0.00000000000E+00 0. -1.
          6    1    1    2  501    0 -0.14505116396E+02 -0.49041322149E+02  0.23720170930E+03  0.29800855789E+03  0.17300000000E+03 0. -1.
         -6    1    1    2    0  503  0.14505116396E+02  0.49041322149E+02  0.17963740528E+02  0.18129298291E+03  0.17300000000E+03 0. -1.
<mgrwt>
<rscale>  2 0.18040080E+03</rscale>
<asrwt>0</asrwt>
<pdfrwt beam="1">  1       21 0.56497460E-01 0.18040080E+03</pdfrwt>
<pdfrwt beam="2">  1       21 0.17241238E-01 0.18040080E+03</pdfrwt>
<totfact> 0.90002667E+04</totfact>
</mgrwt>
</event>
<event>
 4    1  0.3901757E+000  0.3178930E+03  0.7546771E-02  0.1076623E+00
         21   -1    0    0  503  502  0.00000000000E+00  0.00000000000E+00  0.36592716952E+03  0.36592716952E+03  0.00000000000E+00 0.  1.
         21   -1    0    0  501  503 -0.00000000000E+00 -0.00000000000E+00 -0.53885447258E+03  0.53885447258E+03  0.00000000000E+00 0. -1.
          6    1    1    2  501    0 -0.98541368004E+02  0.24782361178E+03 -0.40232764739E+03  0.51276064554E+03  0.17300000000E+03 0. -1.
         -6    1    1    2    0  502  0.98541368004E+02 -0.24782361178E+03  0.22940034433E+03  0.39202099656E+03  0.17300000000E+03 0.  1.
<mgrwt>
<rscale>  2 0.31789298E+03</rscale>
<asrwt>0</asrwt>
<pdfrwt beam="1">  1       21 0.56296488E-01 0.31789298E+03</pdfrwt>
<pdfrwt beam="2">  1       21 0.82900687E-01 0.31789298E+03</pdfrwt>
<totfact> 0.34719164E+03</totfact>
</mgrwt>
</event>
<event>
 4    1  0.3901757E+000  0.2254432E+03  0.7546771E-02  0.1129889E+00
         21   -1    0    0  501  502  0.00000000000E+00  0.00000000000E+00  0.73415391513E+03  0.73415391513E+03  0.00000000000E+00 0.  1.
         21   -1    0    0  502  503 -0.00000000000E+00 -0.00000000000E+00 -0.94410310436E+02  0.94410310436E+02  0.00000000000E+00 0.  1.
          6    1    1    2  501    0 -0.57624434852E+02  0.13257100453E+03  0.53382892313E+03  0.57948077268E+03  0.17300000000E+03 0.  1.
         -6    1    1    2    0  503  0.57624434852E+02 -0.13257100453E+03  0.10591468157E+03  0.24908345289E+03  0.17300000000E+03 0.  1.
<mgrwt>
<rscale>  2 0.22544322E+03</rscale>
<asrwt>0</asrwt>
<pdfrwt beam="1">  1       21 0.11294675E+00 0.22544322E+03</pdfrwt>
<pdfrwt beam="2">  1       21 0.14524664E-01 0.22544322E+03</pdfrwt>
<totfact> 0.24997591E+04</totfact>
</mgrwt>
</event>
<event>
 4    1  0.3901757E+000  0.1757820E+03  0.7546771E-02  0.1171949E+00
         21   -1    0    0  501  502  0.00000000000E+00  0.00000000000E+00  0.35526364130E+02  0.35526364130E+02  0.00000000000E+00 0.  1.
         21   -1    0    0  502  503 -0.00000000000E+00 -0.00000000000E+00 -0.95553197577E+03  0.95553197577E+03  0.00000000000E+00 0. -1.
          6    1    1    2  501    0 -0.15363300524E+02 -0.27097324460E+02 -0.31153664551E+03  0.35770711132E+03  0.17300000000E+03 0.  1.
         -6    1    1    2    0  503  0.15363300524E+02  0.27097324460E+02 -0.60846896613E+03  0.63335122858E+03  0.17300000000E+03 0. -1.
<mgrwt>
<rscale>  2 0.17578196E+03</rscale>
<asrwt>0</asrwt>
<pdfrwt beam="1">  1       21 0.54655940E-02 0.17578196E+03</pdfrwt>
<pdfrwt beam="2">  1       21 0.14700493E+00 0.17578196E+03</pdfrwt>
<totfact> 0.73504798E+04</totfact>
</mgrwt>
</event>
<event>
 4    1  0.3901757E+000  0.3147616E+03  0.7546771E-02  0.1078086E+00
         21   -1    0    0  503  502  0.00000000000E+00  0.00000000000E+00  0.14253234937E+03  0.14253234937E+03  0.00000000000E+00 0. -1.
         21   -1    0    0  501  503 -0.00000000000E+00 -0.00000000000E+00 -0.84035762134E+03  0.84035762134E+03  0.00000000000E+00 0.  1.
          6    1    1    2  501    0 -0.18230997403E+03  0.18949654444E+03 -0.55323019102E+03  0.63650491847E+03  0.17300000000E+03 0. -1.
         -6    1    1    2    0  502  0.18230997403E+03 -0.18949654444E+03 -0.14459508095E+03  0.34638505225E+03  0.17300000000E+03 0. -1.
<mgrwt>
<rscale>  2 0.31476160E+03</rscale>
<asrwt>0</asrwt>
<pdfrwt beam="1">  1       21 0.21928054E-01 0.31476160E+03</pdfrwt>
<pdfrwt beam="2">  1       21 0.12928578E+00 0.31476160E+03</pdfrwt>
<totfact> 0.79094257E+03</totfact>
</mgrwt>
</event>
<event>
 4    1  0.3901757E+000  0.2378992E+03  0.7546771E-02  0.1121200E+00
         21   -1    0    0  501  502  0.00000000000E+00  0.00000000000E+00  0.38063390945E+02  0.38063390945E+02  0.00000000000E+00 0.  1.
         21   -1    0    0  502  503 -0.00000000000E+00 -0.00000000000E+00 -0.20215749168E+04  0.20215749168E+04  0.00000000000E+00 0. -1.
          6    1    1    2  501    0  0.97490536109E+02 -0.13100621779E+03 -0.46213444745E+03  0.51977329794E+03  0.17300000000E+03 0.  1.
         -6    1    1    2    0  503 -0.97490536109E+02  0.13100621779E+03 -0.15213770784E+04  0.15398650098E+04  0.17300000000E+03 0. -1.
<mgrwt>
<rscale>  2 0.23789921E+03</rscale>
<asrwt>0</asrwt>
<pdfrwt beam="1">  1       21 0.58559064E-02 0.23789921E+03</pdfrwt>
<pdfrwt beam="2">  1       21 0.31101152E+00 0.23789921E+03</pdfrwt>
<totfact> 0.57782886E+03</totfact>
</mgrwt>
</event>
<event>
 4    1  0.3901757E+000  0.2923887E+03  0.7546771E-02  0.1089109E+00
         21   -1    0    0  501  502  0.00000000000E+00  0.00000000000E+00  0.91664128138E+03  0.91664128138E+03  0.00000000000E+00 0. -1.
         21   -1    0    0  502  503 -0.00000000000E+00 -0.00000000000E+00 -0.14985488473E+03  0.14985488473E+03  0.00000000000E+00 0.  1.
          6    1    1    2  501    0  0.23523422295E+03  0.15066998829E+02  0.71108133810E+03  0.76884837484E+03  0.17300000000E+03 0. -1.
         -6    1    1    2    0  503 -0.23523422295E+03 -0.15066998829E+02  0.55705058547E+02  0.29764779127E+03  0.17300000000E+03 0.  1.
<mgrwt>
<rscale>  2 0.29238870E+03</rscale>
<asrwt>0</asrwt>
<pdfrwt beam="1">  1       21 0.14102173E+00 0.29238870E+03</pdfrwt>
<pdfrwt beam="2">  1       21 0.23054598E-01 0.29238870E+03</pdfrwt>
<totfact> 0.58039309E+03</totfact>
</mgrwt>
</event>
<event>
 4    1  0.3901757E+000  0.2723008E+03  0.7546771E-02  0.1099970E+00
         21   -1    0    0  501  502  0.00000000000E+00  0.00000000000E+00  0.13403835117E+04  0.13403835117E+04  0.00000000000E+00 0. -1.
         21   -1    0    0  502  503 -0.00000000000E+00 -0.00000000000E+00 -0.65125320946E+02  0.65125320946E+02  0.00000000000E+00 0. -1.
          6    1    1    2  501    0 -0.20897698280E+03 -0.23395773174E+02  0.91033662242E+03  0.95018972193E+03  0.17300000000E+03 0. -1.
         -6    1    1    2    0  503  0.20897698280E+03  0.23395773174E+02  0.36492156832E+03  0.45531911070E+03  0.17300000000E+03 0. -1.
<mgrwt>
<rscale>  2 0.27230083E+03</rscale>
<asrwt>0</asrwt>
<pdfrwt beam="1">  1       21 0.20621283E+00 0.27230083E+03</pdfrwt>
<pdfrwt beam="2">  1       21 0.10019281E-01 0.27230083E+03</pdfrwt>
<totfact> 0.93463535E+03</totfact>
</mgrwt>
</event>
<event>
 4    1  0.3901757E+000  0.1987964E+03  0.7546771E-02  0.1150758E+00
         21   -1    0    0  503  502  0.00000000000E+00  0.00000000000E+00  0.21739494825E+03  0.21739494825E+03  0.00000000000E+00 0. -1.
         21   -1    0    0  501  503 -0.00000000000E+00 -0.00000000000E+00 -0.22366427502E+03  0.22366427502E+03  0.00000000000E+00 0. -1.
          6    1    1    2  501    0 -0.43725820977E+01  0.97836068346E+02 -0.98556397966E+02  0.22188596018E+03  0.17300000000E+03 0. -1.
         -6    1    1    2    0  502  0.43725820977E+01 -0.97836068346E+02  0.92287071195E+02  0.21917326309E+03  0.17300000000E+03 0. -1.
<mgrwt>
<rscale>  2 0.19879642E+03</rscale>
<asrwt>0</asrwt>
<pdfrwt beam="1">  1       21 0.33445377E-01 0.19879642E+03</pdfrwt>
<pdfrwt beam="2">  1       21 0.34409889E-01 0.19879642E+03</pdfrwt>
<totfact> 0.69886634E+04</totfact>
</mgrwt>
</event>
<event>
 4    1  0.3901757E+000  0.1799541E+03  0.7546771E-02  0.1167847E+00
         21   -1    0    0  501  502  0.00000000000E+00  0.00000000000E+00  0.30521027692E+03  0.30521027692E+03  0.00000000000E+00 0.  1.
         21   -1    0    0  502  503 -0.00000000000E+00 -0.00000000000E+00 -0.20283433386E+03  0.20283433386E+03  0.00000000000E+00 0.  1.
          6    1    1    2  501    0 -0.41597955505E+02  0.26909210639E+02  0.22661091813E+03  0.28937173970E+03  0.17300000000E+03 0.  1.
         -6    1    1    2    0  503  0.41597955505E+02 -0.26909210639E+02 -0.12423497507E+03  0.21867287109E+03  0.17300000000E+03 0.  1.
<mgrwt>
<rscale>  2 0.17995415E+03</rscale>
<asrwt>0</asrwt>
<pdfrwt beam="1">  1       21 0.46955427E-01 0.17995415E+03</pdfrwt>
<pdfrwt beam="2">  1       21 0.31205282E-01 0.17995415E+03</pdfrwt>
<totfact> 0.43101816E+04</totfact>
</mgrwt>
</event>
<event>
 4    1  0.3901757E+000  0.2186285E+03  0.7546771E-02  0.1134910E+00
         21   -1    0    0  503  502  0.00000000000E+00  0.00000000000E+00  0.92300709772E+03  0.92300709772E+03  0.00000000000E+00 0.  1.
         21   -1    0    0  501  503 -0.00000000000E+00 -0.00000000000E+00 -0.56383317963E+02  0.56383317963E+02  0.00000000000E+00 0.  1.
          6    1    1    2  501    0 -0.12688212302E+03  0.42075370056E+02  0.29347392231E+03  0.36595813010E+03  0.17300000000E+03 0.  1.
         -6    1    1    2    0  502  0.12688212302E+03 -0.42075370056E+02  0.57314985744E+03  0.61343228558E+03  0.17300000000E+03 0.  1.
<mgrwt>
<rscale>  2 0.21862847E+03</rscale>
<asrwt>0</asrwt>
<pdfrwt beam="1">  1       21 0.14200108E+00 0.21862847E+03</pdfrwt>
<pdfrwt beam="2">  1       21 0.86743572E-02 0.21862847E+03</pdfrwt>
<totfact> 0.35401294E+04</totfact>
</mgrwt>
</event>
<event>
 4    1  0.3901757E+000  0.2169435E+03  0.7546771E-02  0.1136182E+00
         21   -1    0    0  501  502  0.00000000000E+00  0.00000000000E+00  0.20522078813E+03  0.20522078813E+03  0.00000000000E+00 0. -1.
         21   -1    0    0  502  503 -0.00000000000E+00 -0.00000000000E+00 -0.38551957127E+03  0.38551957127E+03  0.00000000000E+00 0. -1.
          6    1    1    2  501    0  0.69610950836E+02 -0.11085943236E+03  0.97852066731E+02  0.23799059894E+03  0.17300000000E+03 0. -1.
         -6    1    1    2    0  503 -0.69610950836E+02  0.11085943236E+03 -0.27815084987E+03  0.35274976046E+03  0.17300000000E+03 0. -1.
<mgrwt>
<rscale>  2 0.21694354E+03</rscale>
<asrwt>0</asrwt>
<pdfrwt beam="1">  1       21 0.31572429E-01 0.21694354E+03</pdfrwt>
<pdfrwt beam="2">  1       21 0.59310703E-01 0.21694354E+03</pdfrwt>
<totfact> 0.25269430E+04</totfact>
</mgrwt>
</event>
<event>
 4    1  0.3901757E+000  0.2336888E+03  0.7546771E-02  0.1124070E+00
         21   -1    0    0  501  502  0.00000000000E+00  0.00000000000E+00  0.17175182277E+03  0.17175182277E+03  0.00000000000E+00 0.  1.
         21   -1    0    0  502  503 -0.00000000000E+00 -0.00000000000E+00 -0.45903903075E+03  0.45903903075E+03  0.00000000000E+00 0. -1.
          6    1    1    2  501    0  0.72809135905E+02 -0.13921302385E+03  0.31204040808E+02  0.23576286485E+03  0.17300000000E+03 0.  1.
         -6    1    1    2    0  503 -0.72809135905E+02  0.13921302385E+03 -0.31849124878E+03  0.39502798867E+03  0.17300000000E+03 0. -1.
<mgrwt>
<rscale>  2 0.23368876E+03</rscale>
<asrwt>0</asrwt>
<pdfrwt beam="1">  1       21 0.26423358E-01 0.23368876E+03</pdfrwt>
<pdfrwt beam="2">  1       21 0.70621388E-01 0.23368876E+03</pdfrwt>
<totfact> 0.24203985E+04</totfact>
</mgrwt>
</event>
<event>
 4    1  0.3901757E+000  0.2318761E+03  0.7546771E-02  0.1125326E+00
         21   -1    0    0  503  502  0.00000000000E+00  0.00000000000E+00  0.68398208444E+03  0.68398208444E+03  0.00000000000E+00 0.  1.
         21   -1    0    0  501  503 -0.00000000000E+00 -0.00000000000E+00 -0.88821725660E+02  0.88821725660E+02  0.00000000000E+00 0.  1.
          6    1    1    2  501    0  0.15386421875E+03 -0.12779471600E+02  0.16655033464E+03  0.28549172786E+03  0.17300000000E+03 0.  1.
         -6    1    1    2    0  502 -0.15386421875E+03  0.12779471600E+02  0.42861002414E+03  0.48731208225E+03  0.17300000000E+03 0.  1.
<mgrwt>
<rscale>  2 0.23187607E+03</rscale>
<asrwt>0</asrwt>
<pdfrwt beam="1">  1       21 0.10522801E+00 0.23187607E+03</pdfrwt>
<pdfrwt beam="2">  1       21 0.13664881E-01 0.23187607E+03</pdfrwt>
<totfact> 0.33062580E+04</totfact>
</mgrwt>
</event>
<event>
 4    1  0.3901757E+000  0.1849320E+03  0.7546771E-02  0.1163113E+00
         21   -1    0    0  501  502  0.00000000000E+00  0.00000000000E+00  0.29184641464E+03  0.29184641464E+03  0.00000000000E+00 0.  1.
         21   -1    0    0  502  503 -0.00000000000E+00 -0.00000000000E+00 -0.38496700455E+03  0.38496700455E+03  0.00000000000E+00 0.  1.
          6    1    1    2  501    0 -0.17533154075E+02 -0.62955853201E+02  0.23567958648E+03  0.29957422857E+03  0.17300000000E+03 0.  1.
         -6    1    1    2    0  503  0.17533154075E+02  0.62955853201E+02 -0.32880017639E+03  0.37723919062E+03  0.17300000000E+03 0.  1.
<mgrwt>
<rscale>  2 0.18493202E+03</rscale>
<asrwt>0</asrwt>
<pdfrwt beam="1">  1       21 0.44899448E-01 0.18493202E+03</pdfrwt>
<pdfrwt beam="2">  1       21 0.59225693E-01 0.18493202E+03</pdfrwt>
<totfact> 0.12748071E+04</totfact>
</mgrwt>
</event>
<event>
 4    1  0.3901757E+000  0.3889705E+03  0.7546771E-02  0.1047667E+00
         21   -1    0    0  501  502  0.00000000000E+00  0.00000000000E+00  0.70980337125E+03  0.70980337125E+03  0.00000000000E+00 0.  1.
         21   -1    0    0  502  503 -0.00000000000E+00 -0.00000000000E+00 -0.45241076114E+03  0.45241076114E+03  0.00000000000E+00 0. -1.
          6    1    1    2  501    0  0.87959594507E+02  0.33709372220E+03  0.55128802597E+03  0.67469738060E+03  0.17300000000E+03 0.  1.
         -6    1    1    2    0  503 -0.87959594507E+02 -0.33709372220E+03 -0.29389541586E+03  0.48751675179E+03  0.17300000000E+03 0. -1.
<mgrwt>
<rscale>  2 0.38897052E+03</rscale>
<asrwt>0</asrwt>
<pdfrwt beam="1">  1       21 0.10920052E+00 0.38897052E+03</pdfrwt>
<pdfrwt beam="2">  1       21 0.69601656E-01 0.38897052E+03</pdfrwt>
<totfact> 0.10901577E+03</totfact>
</mgrwt>
</event>
<event>
 4    1  0.3901757E+000  0.1901827E+03  0.7546771E-02  0.1158297E+00
         21   -1    0    0  503  502  0.00000000000E+00  0.00000000000E+00  0.16745056788E+03  0.16745056788E+03  0.00000000000E+00 0. -1.
         21   -1    0    0  501  503 -0.00000000000E+00 -0.00000000000E+00 -0.21746673965E+03  0.21746673965E+03  0.00000000000E+00 0. -1.
          6    1    1    2  501    0 -0.38211499908E+02  0.69140061116E+02 -0.40809286442E+02  0.19451186246E+03  0.17300000000E+03 0. -1.
         -6    1    1    2    0  502  0.38211499908E+02 -0.69140061116E+02 -0.92068853200E+01  0.19040544507E+03  0.17300000000E+03 0. -1.
<mgrwt>
<rscale>  2 0.19018272E+03</rscale>
<asrwt>0</asrwt>
<pdfrwt beam="1">  1       21 0.25761626E-01 0.19018272E+03</pdfrwt>
<pdfrwt beam="2">  1       21 0.33456422E-01 0.19018272E+03</pdfrwt>
<totfact> 0.12316828E+05</totfact>
</mgrwt>
</event>
<event>
 4    1  0.3901757E+000  0.2385439E+03  0.7546771E-02  0.1120767E+00
         21   -1    0    0  501  502  0.00000000000E+00  0.00000000000E+00  0.67396822826E+02  0.67396822826E+02  0.00000000000E+00 0. -1.
         21   -1    0    0  502  503 -0.00000000000E+00 -0.00000000000E+00 -0.15957390751E+04  0.15957390751E+04  0.00000000000E+00 0. -1.
          6    1    1    2  501    0 -0.18539301457E+01  0.16422770891E+03 -0.19352940836E+03  0.30717553504E+03  0.17300000000E+03 0. -1.
         -6    1    1    2    0  503  0.18539301457E+01 -0.16422770891E+03 -0.13348128439E+04  0.13559603629E+04  0.17300000000E+03 0. -1.
<mgrwt>
<rscale>  2 0.23854387E+03</rscale>
<asrwt>0</asrwt>
<pdfrwt beam="1">  1       21 0.10368742E-01 0.23854387E+03</pdfrwt>
<pdfrwt beam="2">  1       21 0.24549831E+00 0.23854387E+03</pdfrwt>
<totfact> 0.51535659E+03</totfact>
</mgrwt>
</event>
<event>
 4    1  0.3901757E+000  0.2488237E+03  0.7546771E-02  0.1114050E+00
         21   -1    0    0  503  502  0.00000000000E+00  0.00000000000E+00  0.24223202843E+03  0.24223202843E+03  0.00000000000E+00 0. -1.
         21   -1    0    0  501  503 -0.00000000000E+00 -0.00000000000E+00 -0.30734026444E+03  0.30734026444E+03  0.00000000000E+00 0.  1.
          6    1    1    2  501    0  0.17648223970E+03 -0.28952722994E+02 -0.14530536345E+03  0.28814386987E+03  0.17300000000E+03 0.  1.
         -6    1    1    2    0  502 -0.17648223970E+03  0.28952722994E+02  0.80197127439E+02  0.26142842299E+03  0.17300000000E+03 0. -1.
<mgrwt>
<rscale>  2 0.24882371E+03</rscale>
<asrwt>0</asrwt>
<pdfrwt beam="1">  1       21 0.37266466E-01 0.24882371E+03</pdfrwt>
<pdfrwt beam="2">  1       21 0.47283118E-01 0.24882371E+03</pdfrwt>
<totfact> 0.28884877E+04</totfact>
</mgrwt>
</event>
<event>
 4    1  0.3901757E+000  0.3171076E+03  0.7546771E-02  0.1076988E+00
         21   -1    0    0  501  502  0.00000000000E+00  0.00000000000E+00  0.13673916391E+03  0.13673916391E+03  0.00000000000E+00 0. -1.
         21   -1    0    0  502  503 -0.00000000000E+00 -0.00000000000E+00 -0.90699174720E+03  0.90699174720E+03  0.00000000000E+00 0.  1.
          6    1    1    2  501    0  0.14350495105E+03 -0.22368408389E+03 -0.15813356790E+03  0.35434935538E+03  0.17300000000E+03 0. -1.
         -6    1    1    2    0  503 -0.14350495105E+03  0.22368408389E+03 -0.61211901539E+03  0.68938155572E+03  0.17300000000E+03 0.  1.
<mgrwt>
<rscale>  2 0.31710762E+03</rscale>
<asrwt>0</asrwt>
<pdfrwt beam="1">  1       21 0.21036794E-01 0.31710762E+03</pdfrwt>
<pdfrwt beam="2">  1       21 0.13953720E+00 0.31710762E+03</pdfrwt>
<totfact> 0.70161594E+03</totfact>
</mgrwt>
</event>
<event>
 4    1  0.3901757E+000  0.1959859E+03  0.7546771E-02  0.1153171E+00
         21   -1    0    0  501  502  0.00000000000E+00  0.00000000000E+00  0.12075838990E+04  0.12075838990E+04  0.00000000000E+00 0.  1.
         21   -1    0    0  502  503 -0.00000000000E+00 -0.00000000000E+00 -0.31944607665E+02  0.31944607665E+02  0.00000000000E+00 0. -1.
          6    1    1    2  501    0 -0.19299316509E+02  0.90049998630E+02  0.62839312945E+03  0.65824645157E+03  0.17300000000E+03 0.  1.
         -6    1    1    2    0  503  0.19299316509E+02 -0.90049998630E+02  0.54724616188E+03  0.58128205509E+03  0.17300000000E+03 0. -1.
<mgrwt>
<rscale>  2 0.19598588E+03</rscale>
<asrwt>0</asrwt>
<pdfrwt beam="1">  1       21 0.18578210E+00 0.19598588E+03</pdfrwt>
<pdfrwt beam="2">  1       21 0.49145559E-02 0.19598588E+03</pdfrwt>
<totfact> 0.45973598E+04</totfact>
</mgrwt>
</event>
<event>
 4    1  0.3901757E+000  0.1930420E+03  0.7546771E-02  0.1155746E+00
         21   -1    0    0  503  502  0.00000000000E+00  0.00000000000E+00  0.95669604482E+02  0.95669604482E+02  0.00000000000E+00 0. -1.
         21   -1    0    0  501  503 -0.00000000000E+00 -0.00000000000E+00 -0.47155365810E+03  0.47155365810E+03  0.00000000000E+00 0. -1.
          6    1    1    2  501    0 -0.47660500567E+02 -0.71166735045E+02 -0.30623376970E+03  0.36200048231E+03  0.17300000000E+03 0. -1.
         -6    1    1    2    0  502  0.47660500567E+02  0.71166735045E+02 -0.69650283918E+02  0.20522278027E+03  0.17300000000E+03 0. -1.
<mgrwt>
<rscale>  2 0.19304204E+03</rscale>
<asrwt>0</asrwt>
<pdfrwt beam="1">  1       21 0.14718401E-01 0.19304204E+03</pdfrwt>
<pdfrwt beam="2">  1       21 0.72546714E-01 0.19304204E+03</pdfrwt>
<totfact> 0.69511490E+04</totfact>
</mgrwt>
</event>
<event>
 4    1  0.3901757E+000  0.1929197E+03  0.7546771E-02  0.1155854E+00
         21   -1    0    0  501  502  0.00000000000E+00  0.00000000000E+00  0.61159775994E+02  0.61159775994E+02  0.00000000000E+00 0. -1.
         21   -1    0    0  502  503 -0.00000000000E+00 -0.00000000000E+00 -0.79805550665E+03  0.79805550665E+03  0.00000000000E+00 0. -1.
          6    1    1    2  501    0 -0.61745654420E+02 -0.58961755244E+02 -0.15909411758E+03  0.25005789864E+03  0.17300000000E+03 0. -1.
         -6    1    1    2    0  503  0.61745654420E+02  0.58961755244E+02 -0.57780161308E+03  0.60915738401E+03  0.17300000000E+03 0. -1.
<mgrwt>
<rscale>  2 0.19291971E+03</rscale>
<asrwt>0</asrwt>
<pdfrwt beam="1">  1       21 0.94091969E-02 0.19291971E+03</pdfrwt>
<pdfrwt beam="2">  1       21 0.12277776E+00 0.19291971E+03</pdfrwt>
<totfact> 0.45066373E+04</totfact>
</mgrwt>
</event>
<event>
 4    1  0.3901757E+000  0.1920769E+03  0.7546771E-02  0.1156601E+00
         21   -1    0    0  501  502  0.00000000000E+00  0.00000000000E+00  0.37566308969E+03  0.37566308969E+03  0.00000000000E+00 0.  1.
         21   -1    0    0  502  503 -0.00000000000E+00 -0.00000000000E+00 -0.11834144507E+03  0.11834144507E+03  0.00000000000E+00 0.  1.
          6    1    1    2  501    0  0.80822363298E+02  0.20791760390E+02  0.26783111333E+02  0.19393526436E+03  0.17300000000E+03 0.  1.
         -6    1    1    2    0  503 -0.80822363298E+02 -0.20791760390E+02  0.23053853329E+03  0.30006927040E+03  0.17300000000E+03 0.  1.
<mgrwt>
<rscale>  2 0.19207694E+03</rscale>
<asrwt>0</asrwt>
<pdfrwt beam="1">  1       21 0.57794321E-01 0.19207694E+03</pdfrwt>
<pdfrwt beam="2">  1       21 0.18206376E-01 0.19207694E+03</pdfrwt>
<totfact> 0.77200484E+04</totfact>
</mgrwt>
</event>
<event>
 4    1  0.3901757E+000  0.1737407E+03  0.7546771E-02  0.1174002E+00
         21   -1    0    0  503  502  0.00000000000E+00  0.00000000000E+00  0.21342893793E+03  0.21342893793E+03  0.00000000000E+00 0. -1.
         21   -1    0    0  501  503 -0.00000000000E+00 -0.00000000000E+00 -0.22459843425E+03  0.22459843425E+03  0.00000000000E+00 0. -1.
          6    1    1    2  501    0  0.15196018410E+02 -0.50914768860E+01 -0.13885707154E+03  0.22241206898E+03  0.17300000000E+03 0. -1.
         -6    1    1    2    0  502 -0.15196018410E+02  0.50914768860E+01  0.12768757522E+03  0.21561530321E+03  0.17300000000E+03 0. -1.
<mgrwt>
<rscale>  2 0.17374073E+03</rscale>
<asrwt>0</asrwt>
<pdfrwt beam="1">  1       21 0.32835221E-01 0.17374073E+03</pdfrwt>
<pdfrwt beam="2">  1       21 0.34553605E-01 0.17374073E+03</pdfrwt>
<totfact> 0.72651944E+04</totfact>
</mgrwt>
</event>
<event>
 4    1  0.3901757E+000  0.1840628E+03  0.7546771E-02  0.1163928E+00
         21   -1    0    0  501  502  0.00000000000E+00  0.00000000000E+00  0.76959698175E+02  0.76959698175E+02  0.00000000000E+00 0.  1.
         21   -1    0    0  502  503 -0.00000000000E+00 -0.00000000000E+00 -0.73790973742E+03  0.73790973742E+03  0.00000000000E+00 0.  1.
          6    1    1    2  501    0 -0.36898238810E+02  0.50878506648E+02 -0.71689928686E+02  0.19753113259E+03  0.17300000000E+03 0.  1.
         -6    1    1    2    0  503  0.36898238810E+02 -0.50878506648E+02 -0.58926011056E+03  0.61733830301E+03  0.17300000000E+03 0.  1.
<mgrwt>
<rscale>  2 0.18406277E+03</rscale>
<asrwt>0</asrwt>
<pdfrwt beam="1">  1       21 0.11839953E-01 0.18406277E+03</pdfrwt>
<pdfrwt beam="2">  1       21 0.11352458E+00 0.18406277E+03</pdfrwt>
<totfact> 0.36536810E+04</totfact>
</mgrwt>
</event>
<event>
 4    1  0.3901757E+000  0.1857982E+03  0.7546771E-02  0.1162307E+00
         21   -1    0    0  501  502  0.00000000000E+00  0.00000000000E+00  0.67329836652E+03  0.67329836652E+03  0.00000000000E+00 0.  1.
         21   -1    0    0  502  503 -0.00000000000E+00 -0.00000000000E+00 -0.60128908259E+02  0.60128908259E+02  0.00000000000E+00 0.  1.
          6    1    1    2  501    0  0.46466974359E+02  0.49323197196E+02  0.44733229966E+03  0.48438326128E+03  0.17300000000E+03 0.  1.
         -6    1    1    2    0  503 -0.46466974359E+02 -0.49323197196E+02  0.16583715860E+03  0.24904401350E+03  0.17300000000E+03 0.  1.
<mgrwt>
<rscale>  2 0.18579816E+03</rscale>
<asrwt>0</asrwt>
<pdfrwt beam="1">  1       21 0.10358436E+00 0.18579816E+03</pdfrwt>
<pdfrwt beam="2">  1       21 0.92506017E-02 0.18579816E+03</pdfrwt>
<totfact> 0.70478135E+04</totfact>
</mgrwt>
</event>
<event>
 4    1  0.3901757E+000  0.1811002E+03  0.7546771E-02  0.1166742E+00
         21   -1    0    0  501  502  0.00000000000E+00  0.00000000000E+00  0.74152148727E+02  0.74152148727E+02  0.00000000000E+00 0.  1.
         21   -1    0    0  502  503 -0.00000000000E+00 -0.00000000000E+00 -0.91486541324E+03  0.91486541324E+03  0.00000000000E+00 0.  1.
          6    1    1    2  501    0 -0.27301236807E+02  0.46075208613E+02 -0.64948231135E+02  0.19239426994E+03  0.17300000000E+03 0.  1.
         -6    1    1    2    0  503  0.27301236807E+02 -0.46075208613E+02 -0.77576503337E+03  0.79662329202E+03  0.17300000000E+03 0.  1.
<mgrwt>
<rscale>  2 0.18110020E+03</rscale>
<asrwt>0</asrwt>
<pdfrwt beam="1">  1       21 0.11408022E-01 0.18110020E+03</pdfrwt>
<pdfrwt beam="2">  1       21 0.14074853E+00 0.18110020E+03</pdfrwt>
<totfact> 0.22838472E+04</totfact>
</mgrwt>
</event>
<event>
 4    1  0.3901757E+000  0.2750837E+03  0.7546771E-02  0.1098405E+00
         21   -1    0    0  501  502  0.00000000000E+00  0.00000000000E+00  0.22438397611E+03  0.22438397611E+03  0.00000000000E+00 0. -1.
         21   -1    0    0  502  503 -0.00000000000E+00 -0.00000000000E+00 -0.39843788390E+03  0.39843788390E+03  0.00000000000E+00 0.  1.
          6    1    1    2  501    0 -0.21343212627E+03  0.13739076026E+02 -0.20907341164E+03  0.34551805480E+03  0.17300000000E+03 0.  1.
         -6    1    1    2    0  503  0.21343212627E+03 -0.13739076026E+02  0.35019503856E+02  0.27730380521E+03  0.17300000000E+03 0. -1.
<mgrwt>
<rscale>  2 0.27508369E+03</rscale>
<asrwt>0</asrwt>
<pdfrwt beam="1">  1       21 0.34520612E-01 0.27508369E+03</pdfrwt>
<pdfrwt beam="2">  1       21 0.61298136E-01 0.27508369E+03</pdfrwt>
<totfact> 0.19168536E+04</totfact>
</mgrwt>
</event>
<event>
 4    1  0.3901757E+000  0.2174519E+03  0.7546771E-02  0.1135797E+00
         21   -1    0    0  501  502  0.00000000000E+00  0.00000000000E+00  0.65341008802E+03  0.65341008802E+03  0.00000000000E+00 0. -1.
         21   -1    0    0  502  503 -0.00000000000E+00 -0.00000000000E+00 -0.76441512729E+02  0.76441512729E+02  0.00000000000E+00 0. -1.
          6    1    1    2  501    0 -0.11011110534E+03  0.72331807253E+02  0.37273552783E+03  0.43152881661E+03  0.17300000000E+03 0. -1.
         -6    1    1    2    0  503  0.11011110534E+03 -0.72331807253E+02  0.20423304747E+03  0.29832278414E+03  0.17300000000E+03 0. -1.
<mgrwt>
<rscale>  2 0.21745194E+03</rscale>
<asrwt>0</asrwt>
<pdfrwt beam="1">  1       21 0.10052463E+00 0.21745194E+03</pdfrwt>
<pdfrwt beam="2">  1       21 0.11760233E-01 0.21745194E+03</pdfrwt>
<totfact> 0.48715051E+04</totfact>
</mgrwt>
</event>
<event>
 4    1  0.3901757E+000  0.2186773E+03  0.7546771E-02  0.1134873E+00
         21   -1    0    0  503  502  0.00000000000E+00  0.00000000000E+00  0.48174895179E+03  0.48174895179E+03  0.00000000000E+00 0.  1.
         21   -1    0    0  501  503 -0.00000000000E+00 -0.00000000000E+00 -0.16526802003E+03  0.16526802003E+03  0.00000000000E+00 0.  1.
          6    1    1    2  501    0  0.13365698258E+03 -0.51537351570E+01 -0.46206375703E+02  0.22350565795E+03  0.17300000000E+03 0.  1.
         -6    1    1    2    0  502 -0.13365698258E+03  0.51537351570E+01  0.36268730746E+03  0.42351131387E+03  0.17300000000E+03 0.  1.
<mgrwt>
<rscale>  2 0.21867727E+03</rscale>
<asrwt>0</asrwt>
<pdfrwt beam="1">  1       21 0.74115223E-01 0.21867727E+03</pdfrwt>
<pdfrwt beam="2">  1       21 0.25425850E-01 0.21867727E+03</pdfrwt>
<totfact> 0.23589952E+04</totfact>
</mgrwt>
</event>
<event>
 4    1  0.3901757E+000  0.1751124E+03  0.7546771E-02  0.1172619E+00
         21   -1    0    0  501  502  0.00000000000E+00  0.00000000000E+00  0.54618622157E+03  0.54618622157E+03  0.00000000000E+00 0.  1.
         21   -1    0    0  502  503 -0.00000000000E+00 -0.00000000000E+00 -0.63859918276E+02  0.63859918276E+02  0.00000000000E+00 0.  1.
          6    1    1    2  501    0 -0.48880204307E+01  0.26673004972E+02  0.34719841129E+03  0.38885868736E+03  0.17300000000E+03 0.  1.
         -6    1    1    2    0  503  0.48880204307E+01 -0.26673004972E+02  0.13512789201E+03  0.22118745249E+03  0.17300000000E+03 0.  1.
<mgrwt>
<rscale>  2 0.17511237E+03</rscale>
<asrwt>0</asrwt>
<pdfrwt beam="1">  1       21 0.84028646E-01 0.17511237E+03</pdfrwt>
<pdfrwt beam="2">  1       21 0.98246032E-02 0.17511237E+03</pdfrwt>
<totfact> 0.10370584E+05</totfact>
</mgrwt>
</event>
<event>
 4    1  0.3901757E+000  0.1934927E+03  0.7546771E-02  0.1155348E+00
         21   -1    0    0  503  502  0.00000000000E+00  0.00000000000E+00  0.18483446945E+03  0.18483446945E+03  0.00000000000E+00 0.  1.
         21   -1    0    0  501  503 -0.00000000000E+00 -0.00000000000E+00 -0.20722343626E+03  0.20722343626E+03  0.00000000000E+00 0.  1.
          6    1    1    2  501    0  0.70811942615E+02  0.49960816914E+02 -0.40612875110E+02  0.19770892764E+03  0.17300000000E+03 0.  1.
         -6    1    1    2    0  502 -0.70811942615E+02 -0.49960816914E+02  0.18223908296E+02  0.19434897807E+03  0.17300000000E+03 0.  1.
<mgrwt>
<rscale>  2 0.19349267E+03</rscale>
<asrwt>0</asrwt>
<pdfrwt beam="1">  1       21 0.28436072E-01 0.19349267E+03</pdfrwt>
<pdfrwt beam="2">  1       21 0.31880529E-01 0.19349267E+03</pdfrwt>
<totfact> 0.11184939E+05</totfact>
</mgrwt>
</event>
<event>
 4    1  0.3901757E+000  0.2039869E+03  0.7546771E-02  0.1146418E+00
         21   -1    0    0  503  502  0.00000000000E+00  0.00000000000E+00  0.57057386647E+02  0.57057386647E+02  0.00000000000E+00 0. -1.
         21   -1    0    0  501  503 -0.00000000000E+00 -0.00000000000E+00 -0.11933251404E+04  0.11933251404E+04  0.00000000000E+00 0. -1.
          6    1    1    2  501    0  0.84559634762E+02  0.67315015902E+02 -0.95799954769E+03  0.97947627668E+03  0.17300000000E+03 0. -1.
         -6    1    1    2    0  502 -0.84559634762E+02 -0.67315015902E+02 -0.17826820606E+03  0.27090625037E+03  0.17300000000E+03 0. -1.
<mgrwt>
<rscale>  2 0.20398687E+03</rscale>
<asrwt>0</asrwt>
<pdfrwt beam="1">  1       21 0.87780597E-02 0.20398687E+03</pdfrwt>
<pdfrwt beam="2">  1       21 0.18358848E+00 0.20398687E+03</pdfrwt>
<totfact> 0.17413129E+04</totfact>
</mgrwt>
</event>
<event>
 4    1  0.3901757E+000  0.2106065E+03  0.7546771E-02  0.1141087E+00
         21   -1    0    0  503  502  0.00000000000E+00  0.00000000000E+00  0.11783813178E+03  0.11783813178E+03  0.00000000000E+00 0. -1.
         21   -1    0    0  501  503 -0.00000000000E+00 -0.00000000000E+00 -0.41674059877E+03  0.41674059877E+03  0.00000000000E+00 0. -1.
          6    1    1    2  501    0  0.42027237168E+02 -0.11251583449E+03 -0.23260502913E+03  0.31378368545E+03  0.17300000000E+03 0. -1.
         -6    1    1    2    0  502 -0.42027237168E+02  0.11251583449E+03 -0.66297437859E+02  0.22079504510E+03  0.17300000000E+03 0. -1.
<mgrwt>
<rscale>  2 0.21060651E+03</rscale>
<asrwt>0</asrwt>
<pdfrwt beam="1">  1       21 0.18128943E-01 0.21060651E+03</pdfrwt>
<pdfrwt beam="2">  1       21 0.64113940E-01 0.21060651E+03</pdfrwt>
<totfact> 0.61702625E+04</totfact>
</mgrwt>
</event>
<event>
 4    1  0.3901757E+000  0.1994420E+03  0.7546771E-02  0.1150211E+00
         21   -1    0    0  501  502  0.00000000000E+00  0.00000000000E+00  0.86092990938E+03  0.86092990938E+03  0.00000000000E+00 0.  1.
         21   -1    0    0  502  503 -0.00000000000E+00 -0.00000000000E+00 -0.78256936923E+02  0.78256936923E+02  0.00000000000E+00 0.  1.
          6    1    1    2  501    0 -0.92001512510E+02  0.37199865943E+02  0.69187816305E+03  0.72005034605E+03  0.17300000000E+03 0.  1.
         -6    1    1    2    0  503  0.92001512510E+02 -0.37199865943E+02  0.90794809402E+02  0.21913650026E+03  0.17300000000E+03 0.  1.
<mgrwt>
<rscale>  2 0.19944199E+03</rscale>
<asrwt>0</asrwt>
<pdfrwt beam="1">  1       21 0.13245075E+00 0.19944199E+03</pdfrwt>
<pdfrwt beam="2">  1       21 0.12039529E-01 0.19944199E+03</pdfrwt>
<totfact> 0.23950590E+04</totfact>
</mgrwt>
</event>
<event>
 4    1  0.3901757E+000  0.2137576E+03  0.7546771E-02  0.1138624E+00
         21   -1    0    0  501  502  0.00000000000E+00  0.00000000000E+00  0.83491753070E+03  0.83491753070E+03  0.00000000000E+00 0. -1.
         21   -1    0    0  502  503 -0.00000000000E+00 -0.00000000000E+00 -0.55033634245E+02  0.55033634245E+02  0.00000000000E+00 0. -1.
          6    1    1    2  501    0  0.10019832786E+03 -0.75654565644E+02  0.42317065338E+03  0.47409463200E+03  0.17300000000E+03 0. -1.
         -6    1    1    2    0  503 -0.10019832786E+03  0.75654565644E+02  0.35671324307E+03  0.41585653294E+03  0.17300000000E+03 0. -1.
<mgrwt>
<rscale>  2 0.21375762E+03</rscale>
<asrwt>0</asrwt>
<pdfrwt beam="1">  1       21 0.12844884E+00 0.21375762E+03</pdfrwt>
<pdfrwt beam="2">  1       21 0.84667135E-02 0.21375762E+03</pdfrwt>
<totfact> 0.47886008E+04</totfact>
</mgrwt>
</event>
<event>
 4    1  0.3901757E+000  0.2516497E+03  0.7546771E-02  0.1112267E+00
         21   -1    0    0  501  502  0.00000000000E+00  0.00000000000E+00  0.79376623542E+02  0.79376623542E+02  0.00000000000E+00 0.  1.
         21   -1    0    0  502  503 -0.00000000000E+00 -0.00000000000E+00 -0.93832826897E+03  0.93832826897E+03  0.00000000000E+00 0.  1.
          6    1    1    2  501    0 -0.64928312232E+02 -0.17082995737E+03 -0.23256073541E+03  0.34265442609E+03  0.17300000000E+03 0.  1.
         -6    1    1    2    0  503  0.64928312232E+02  0.17082995737E+03 -0.62639091001E+03  0.67505046642E+03  0.17300000000E+03 0.  1.
<mgrwt>
<rscale>  2 0.25164968E+03</rscale>
<asrwt>0</asrwt>
<pdfrwt beam="1">  1       21 0.12211789E-01 0.25164968E+03</pdfrwt>
<pdfrwt beam="2">  1       21 0.14435819E+00 0.25164968E+03</pdfrwt>
<totfact> 0.18127689E+04</totfact>
</mgrwt>
</event>
<event>
 4    1  0.3901757E+000  0.1997449E+03  0.7546771E-02  0.1149954E+00
         21   -1    0    0  501  502  0.00000000000E+00  0.00000000000E+00  0.50294557445E+03  0.50294557445E+03  0.00000000000E+00 0.  1.
         21   -1    0    0  502  503 -0.00000000000E+00 -0.00000000000E+00 -0.96832983584E+02  0.96832983584E+02  0.00000000000E+00 0.  1.
          6    1    1    2  501    0 -0.85068925382E+02 -0.52271490852E+02  0.33055951524E+03  0.38622224682E+03  0.17300000000E+03 0.  1.
         -6    1    1    2    0  503  0.85068925382E+02  0.52271490852E+02  0.75553075620E+02  0.21355631121E+03  0.17300000000E+03 0.  1.
<mgrwt>
<rscale>  2 0.19974491E+03</rscale>
<asrwt>0</asrwt>
<pdfrwt beam="1">  1       21 0.77376241E-01 0.19974491E+03</pdfrwt>
<pdfrwt beam="2">  1       21 0.14897382E-01 0.19974491E+03</pdfrwt>
<totfact> 0.58693761E+04</totfact>
</mgrwt>
</event>
<event>
 4    1  0.3901757E+000  0.2164012E+03  0.7546771E-02  0.1136595E+00
         21   -1    0    0  501  502  0.00000000000E+00  0.00000000000E+00  0.13438751004E+03  0.13438751004E+03  0.00000000000E+00 0.  1.
         21   -1    0    0  502  503 -0.00000000000E+00 -0.00000000000E+00 -0.38647027710E+03  0.38647027710E+03  0.00000000000E+00 0.  1.
          6    1    1    2  501    0 -0.98389862660E+02 -0.84969989881E+02 -0.44374131592E+02  0.22090388817E+03  0.17300000000E+03 0.  1.
         -6    1    1    2    0  503  0.98389862660E+02  0.84969989881E+02 -0.20770863547E+03  0.29995389896E+03  0.17300000000E+03 0.  1.
<mgrwt>
<rscale>  2 0.21640117E+03</rscale>
<asrwt>0</asrwt>
<pdfrwt beam="1">  1       21 0.20675002E-01 0.21640117E+03</pdfrwt>
<pdfrwt beam="2">  1       21 0.59456964E-01 0.21640117E+03</pdfrwt>
<totfact> 0.56688473E+04</totfact>
</mgrwt>
</event>
<event>
 4    1  0.3901757E+000  0.1831619E+03  0.7546771E-02  0.1164778E+00
         21   -1    0    0  501  502  0.00000000000E+00  0.00000000000E+00  0.68593898463E+02  0.68593898463E+02  0.00000000000E+00 0. -1.
         21   -1    0    0  502  503 -0.00000000000E+00 -0.00000000000E+00 -0.50598937445E+03  0.50598937445E+03  0.00000000000E+00 0. -1.
          6    1    1    2  501    0  0.53772499566E+02 -0.26977539841E+02 -0.16618706111E+03  0.24731843572E+03  0.17300000000E+03 0. -1.
         -6    1    1    2    0  503 -0.53772499566E+02  0.26977539841E+02 -0.27120841487E+03  0.32726483720E+03  0.17300000000E+03 0. -1.
<mgrwt>
<rscale>  2 0.18316187E+03</rscale>
<asrwt>0</asrwt>
<pdfrwt beam="1">  1       21 0.10552908E-01 0.18316187E+03</pdfrwt>
<pdfrwt beam="2">  1       21 0.77844517E-01 0.18316187E+03</pdfrwt>
<totfact> 0.10829859E+05</totfact>
</mgrwt>
</event>
<event>
 4    1  0.3901757E+000  0.2665635E+03  0.7546771E-02  0.1103263E+00
         21   -1    0    0  503  502  0.00000000000E+00  0.00000000000E+00  0.34085663831E+03  0.34085663831E+03  0.00000000000E+00 0. -1.
         21   -1    0    0  501  503 -0.00000000000E+00 -0.00000000000E+00 -0.36858795920E+03  0.36858795920E+03  0.00000000000E+00 0. -1.
          6    1    1    2  501    0  0.35581756735E+02 -0.19965222668E+03 -0.24766707443E+03  0.36386130983E+03  0.17300000000E+03 0. -1.
         -6    1    1    2    0  502 -0.35581756735E+02  0.19965222668E+03  0.21993575354E+03  0.34558328767E+03  0.17300000000E+03 0. -1.
<mgrwt>
<rscale>  2 0.26656345E+03</rscale>
<asrwt>0</asrwt>
<pdfrwt beam="1">  1       21 0.52439483E-01 0.26656345E+03</pdfrwt>
<pdfrwt beam="2">  1       21 0.56705840E-01 0.26656345E+03</pdfrwt>
<totfact> 0.96421877E+03</totfact>
</mgrwt>
</event>
<event>
 4    1  0.3901757E+000  0.1905695E+03  0.7546771E-02  0.1157949E+00
         21   -1    0    0  503  502  0.00000000000E+00  0.00000000000E+00  0.11021188321E+03  0.11021188321E+03  0.00000000000E+00 0.  1.
         21   -1    0    0  501  503 -0.00000000000E+00 -0.00000000000E+00 -0.47036242020E+03  0.47036242020E+03  0.00000000000E+00 0.  1.
          6    1    1    2  501    0  0.43492265861E+02 -0.67053261534E+02 -0.33892353501E+03  0.38882628468E+03  0.17300000000E+03 0.  1.
         -6    1    1    2    0  502 -0.43492265861E+02  0.67053261534E+02 -0.21227001979E+02  0.19174801873E+03  0.17300000000E+03 0.  1.
<mgrwt>
<rscale>  2 0.19056945E+03</rscale>
<asrwt>0</asrwt>
<pdfrwt beam="1">  1       21 0.16955674E-01 0.19056945E+03</pdfrwt>
<pdfrwt beam="2">  1       21 0.72363449E-01 0.19056945E+03</pdfrwt>
<totfact> 0.54025297E+04</totfact>
</mgrwt>
</event>
<event>
 4    1  0.3901757E+000  0.2120282E+03  0.7546771E-02  0.1139970E+00
         21   -1    0    0  503  502  0.00000000000E+00  0.00000000000E+00  0.34834721583E+03  0.34834721583E+03  0.00000000000E+00 0. -1.
         21   -1    0    0  501  503 -0.00000000000E+00 -0.00000000000E+00 -0.44093975061E+03  0.44093975061E+03  0.00000000000E+00 0.  1.
          6    1    1    2  501    0 -0.96784021859E+02 -0.75231598829E+02 -0.37820020068E+03  0.43357967220E+03  0.17300000000E+03 0.  1.
         -6    1    1    2    0  502  0.96784021859E+02  0.75231598829E+02  0.28560766590E+03  0.35570729423E+03  0.17300000000E+03 0. -1.
<mgrwt>
<rscale>  2 0.21202816E+03</rscale>
<asrwt>0</asrwt>
<pdfrwt beam="1">  1       21 0.53591879E-01 0.21202816E+03</pdfrwt>
<pdfrwt beam="2">  1       21 0.67836885E-01 0.21202816E+03</pdfrwt>
<totfact> 0.64488565E+03</totfact>
</mgrwt>
</event>
<event>
 4    1  0.3901757E+000  0.2407097E+03  0.7546771E-02  0.1119321E+00
         21   -1    0    0  503  502  0.00000000000E+00  0.00000000000E+00  0.10322811701E+04  0.10322811701E+04  0.00000000000E+00 0. -1.
         21   -1    0    0  501  503 -0.00000000000E+00 -0.00000000000E+00 -0.14312595187E+03  0.14312595187E+03  0.00000000000E+00 0.  1.
          6    1    1    2  501    0  0.96858437841E+02 -0.13649401485E+03 -0.13617564023E+02  0.24109461031E+03  0.17300000000E+03 0.  1.
         -6    1    1    2    0  502 -0.96858437841E+02  0.13649401485E+03  0.90277278226E+03  0.93431251167E+03  0.17300000000E+03 0. -1.
<mgrwt>
<rscale>  2 0.24070973E+03</rscale>
<asrwt>0</asrwt>
<pdfrwt beam="1">  1       21 0.15881248E+00 0.24070973E+03</pdfrwt>
<pdfrwt beam="2">  1       21 0.22019378E-01 0.24070973E+03</pdfrwt>
<totfact> 0.47643776E+03</totfact>
</mgrwt>
</event>
<event>
 4    1  0.3901757E+000  0.3062993E+03  0.7546771E-02  0.1082133E+00
         21   -1    0    0  503  502  0.00000000000E+00  0.00000000000E+00  0.10163948346E+04  0.10163948346E+04  0.00000000000E+00 0. -1.
         21   -1    0    0  501  503 -0.00000000000E+00 -0.00000000000E+00 -0.61312011640E+03  0.61312011640E+03  0.00000000000E+00 0.  1.
          6    1    1    2  501    0 -0.25120925903E+03 -0.28002526375E+02 -0.54928837720E+03  0.62891728759E+03  0.17300000000E+03 0.  1.
         -6    1    1    2    0  502  0.25120925903E+03  0.28002526375E+02  0.95256309536E+03  0.10005976634E+04  0.17300000000E+03 0. -1.
<mgrwt>
<rscale>  2 0.30629925E+03</rscale>
<asrwt>0</asrwt>
<pdfrwt beam="1">  1       21 0.15636844E+00 0.30629925E+03</pdfrwt>
<pdfrwt beam="2">  1       21 0.94326172E-01 0.30629925E+03</pdfrwt>
<totfact> 0.22528251E+02</totfact>
</mgrwt>
</event>
<event>
 4    1  0.3901757E+000  0.2078868E+03  0.7546771E-02  0.1143250E+00
         21   -1    0    0  501  502  0.00000000000E+00  0.00000000000E+00  0.35763504077E+03  0.35763504077E+03  0.00000000000E+00 0. -1.
         21   -1    0    0  502  503 -0.00000000000E+00 -0.00000000000E+00 -0.12404000413E+03  0.12404000413E+03  0.00000000000E+00 0. -1.
          6    1    1    2  501    0  0.83078704060E+02  0.79911430862E+02  0.78119555423E+02  0.22208010445E+03  0.17300000000E+03 0. -1.
         -6    1    1    2    0  503 -0.83078704060E+02 -0.79911430862E+02  0.15547548122E+03  0.25959494046E+03  0.17300000000E+03 0. -1.
<mgrwt>
<rscale>  2 0.20788677E+03</rscale>
<asrwt>0</asrwt>
<pdfrwt beam="1">  1       21 0.55020775E-01 0.20788677E+03</pdfrwt>
<pdfrwt beam="2">  1       21 0.19083078E-01 0.20788677E+03</pdfrwt>
<totfact> 0.78001543E+04</totfact>
</mgrwt>
</event>
<event>
 4    1  0.3901757E+000  0.2075792E+03  0.7546771E-02  0.1143498E+00
         21   -1    0    0  501  502  0.00000000000E+00  0.00000000000E+00  0.68403594887E+02  0.68403594887E+02  0.00000000000E+00 0. -1.
         21   -1    0    0  502  503 -0.00000000000E+00 -0.00000000000E+00 -0.85111587365E+03  0.85111587365E+03  0.00000000000E+00 0.  1.
          6    1    1    2  501    0 -0.11099433257E+03  0.28988996663E+02 -0.15697609574E+03  0.26025102963E+03  0.17300000000E+03 0. -1.
         -6    1    1    2    0  503  0.11099433257E+03 -0.28988996663E+02 -0.62573618302E+03  0.65926843890E+03  0.17300000000E+03 0.  1.
<mgrwt>
<rscale>  2 0.20757915E+03</rscale>
<asrwt>0</asrwt>
<pdfrwt beam="1">  1       21 0.10523629E-01 0.20757915E+03</pdfrwt>
<pdfrwt beam="2">  1       21 0.13094091E+00 0.20757915E+03</pdfrwt>
<totfact> 0.31190020E+04</totfact>
</mgrwt>
</event>
<event>
 4    1  0.3901757E+000  0.2045740E+03  0.7546771E-02  0.1145936E+00
         21   -1    0    0  501  502  0.00000000000E+00  0.00000000000E+00  0.16896881751E+03  0.16896881751E+03  0.00000000000E+00 0.  1.
         21   -1    0    0  502  503 -0.00000000000E+00 -0.00000000000E+00 -0.24775465816E+03  0.24775465816E+03  0.00000000000E+00 0.  1.
          6    1    1    2  501    0  0.77677181158E+02  0.76731838349E+02 -0.42963324565E+02  0.20903675932E+03  0.17300000000E+03 0.  1.
         -6    1    1    2    0  503 -0.77677181158E+02 -0.76731838349E+02 -0.35822516079E+02  0.20768671635E+03  0.17300000000E+03 0.  1.
<mgrwt>
<rscale>  2 0.20457400E+03</rscale>
<asrwt>0</asrwt>
<pdfrwt beam="1">  1       21 0.25995203E-01 0.20457400E+03</pdfrwt>
<pdfrwt beam="2">  1       21 0.38116101E-01 0.20457400E+03</pdfrwt>
<totfact> 0.92850835E+04</totfact>
</mgrwt>
</event>
<event>
 4    1  0.3901757E+000  0.3176154E+03  0.7546771E-02  0.1076752E+00
         21   -1    0    0  501  502  0.00000000000E+00  0.00000000000E+00  0.75845695886E+02  0.75845695886E+02  0.00000000000E+00 0.  1.
         21   -1    0    0  502  503 -0.00000000000E+00 -0.00000000000E+00 -0.19604890342E+04  0.19604890342E+04  0.00000000000E+00 0.  1.
          6    1    1    2  501    0  0.24243186865E+03  0.11035093177E+03 -0.36495182036E+03  0.48380716227E+03  0.17300000000E+03 0.  1.
         -6    1    1    2    0  503 -0.24243186865E+03 -0.11035093177E+03 -0.15196915180E+04  0.15525275678E+04  0.17300000000E+03 0.  1.
<mgrwt>
<rscale>  2 0.31761539E+03</rscale>
<asrwt>0</asrwt>
<pdfrwt beam="1">  1       21 0.11668569E-01 0.31761539E+03</pdfrwt>
<pdfrwt beam="2">  1       21 0.30161368E+00 0.31761539E+03</pdfrwt>
<totfact> 0.18238162E+03</totfact>
</mgrwt>
</event>
<event>
 4    1  0.3901757E+000  0.1912069E+03  0.7546771E-02  0.1157377E+00
         21   -1    0    0  501  502  0.00000000000E+00  0.00000000000E+00  0.33884514286E+03  0.33884514286E+03  0.00000000000E+00 0. -1.
         21   -1    0    0  502  503 -0.00000000000E+00 -0.00000000000E+00 -0.44717389588E+03  0.44717389588E+03  0.00000000000E+00 0. -1.
          6    1    1    2  501    0  0.43123598187E+02  0.69075465556E+02  0.28816374441E+03  0.34583002799E+03  0.17300000000E+03 0. -1.
         -6    1    1    2    0  503 -0.43123598187E+02 -0.69075465556E+02 -0.39649249744E+03  0.44018901075E+03  0.17300000000E+03 0. -1.
<mgrwt>
<rscale>  2 0.19120686E+03</rscale>
<asrwt>0</asrwt>
<pdfrwt beam="1">  1       21 0.52130022E-01 0.19120686E+03</pdfrwt>
<pdfrwt beam="2">  1       21 0.68795984E-01 0.19120686E+03</pdfrwt>
<totfact> 0.67297958E+03</totfact>
</mgrwt>
</event>
<event>
 4    1  0.3901757E+000  0.2087414E+03  0.7546771E-02  0.1142567E+00
         21   -1    0    0  503  502  0.00000000000E+00  0.00000000000E+00  0.77064181858E+02  0.77064181858E+02  0.00000000000E+00 0. -1.
         21   -1    0    0  501  503 -0.00000000000E+00 -0.00000000000E+00 -0.57098001685E+03  0.57098001685E+03  0.00000000000E+00 0.  1.
          6    1    1    2  501    0 -0.99370411809E+02 -0.61396232253E+02 -0.21495915163E+03  0.29963379808E+03  0.17300000000E+03 0.  1.
         -6    1    1    2    0  502  0.99370411809E+02  0.61396232253E+02 -0.27895668336E+03  0.34841040063E+03  0.17300000000E+03 0. -1.
<mgrwt>
<rscale>  2 0.20874141E+03</rscale>
<asrwt>0</asrwt>
<pdfrwt beam="1">  1       21 0.11856028E-01 0.20874141E+03</pdfrwt>
<pdfrwt beam="2">  1       21 0.87843080E-01 0.20874141E+03</pdfrwt>
<totfact> 0.66124104E+04</totfact>
</mgrwt>
</event>
<event>
 4    1  0.3901757E+000  0.2131683E+03  0.7546771E-02  0.1139081E+00
         21   -1    0    0  503  502  0.00000000000E+00  0.00000000000E+00  0.11136647824E+03  0.11136647824E+03  0.00000000000E+00 0.  1.
         21   -1    0    0  501  503 -0.00000000000E+00 -0.00000000000E+00 -0.41441506005E+03  0.41441506005E+03  0.00000000000E+00 0. -1.
          6    1    1    2  501    0 -0.25347064449E+02  0.12193945840E+03 -0.11888891709E+03  0.24408047812E+03  0.17300000000E+03 0.  1.
         -6    1    1    2    0  502  0.25347064449E+02 -0.12193945840E+03 -0.18415966472E+03  0.28170106017E+03  0.17300000000E+03 0.  1.
<mgrwt>
<rscale>  2 0.21316826E+03</rscale>
<asrwt>0</asrwt>
<pdfrwt beam="1">  1       21 0.17133304E-01 0.21316826E+03</pdfrwt>
<pdfrwt beam="2">  1       21 0.63756163E-01 0.21316826E+03</pdfrwt>
<totfact> 0.69258934E+04</totfact>
</mgrwt>
</event>
<event>
 4    1  0.3901757E+000  0.1735980E+03  0.7546771E-02  0.1174147E+00
         21   -1    0    0  503  502  0.00000000000E+00  0.00000000000E+00  0.18293560227E+03  0.18293560227E+03  0.00000000000E+00 0. -1.
         21   -1    0    0  501  503 -0.00000000000E+00 -0.00000000000E+00 -0.24571505925E+03  0.24571505925E+03  0.00000000000E+00 0. -1.
          6    1    1    2  501    0  0.12186350936E+02  0.76647285521E+01 -0.15442833439E+03  0.23234535863E+03  0.17300000000E+03 0. -1.
         -6    1    1    2    0  502 -0.12186350936E+02 -0.76647285521E+01  0.91648877416E+02  0.19630530289E+03  0.17300000000E+03 0. -1.
<mgrwt>
<rscale>  2 0.17359797E+03</rscale>
<asrwt>0</asrwt>
<pdfrwt beam="1">  1       21 0.28143939E-01 0.17359797E+03</pdfrwt>
<pdfrwt beam="2">  1       21 0.37802317E-01 0.17359797E+03</pdfrwt>
<totfact> 0.82047750E+04</totfact>
</mgrwt>
</event>
<event>
 4    1  0.3901757E+000  0.1900343E+03  0.7546771E-02  0.1158430E+00
         21   -1    0    0  501  502  0.00000000000E+00  0.00000000000E+00  0.19221246843E+04  0.19221246843E+04  0.00000000000E+00 0. -1.
         21   -1    0    0  502  503 -0.00000000000E+00 -0.00000000000E+00 -0.22847434050E+02  0.22847434050E+02  0.00000000000E+00 0. -1.
          6    1    1    2  501    0  0.68790135803E+02  0.38104249997E+02  0.53972385198E+03  0.57220175904E+03  0.17300000000E+03 0. -1.
         -6    1    1    2    0  503 -0.68790135803E+02 -0.38104249997E+02  0.13595533983E+04  0.13727703593E+04  0.17300000000E+03 0. -1.
<mgrwt>
<rscale>  2 0.19003425E+03</rscale>
<asrwt>0</asrwt>
<pdfrwt beam="1">  1       21 0.29571136E+00 0.19003425E+03</pdfrwt>
<pdfrwt beam="2">  1       21 0.35149914E-02 0.19003425E+03</pdfrwt>
<totfact> 0.17619149E+04</totfact>
</mgrwt>
</event>
<event>
 4    1  0.3901757E+000  0.2324881E+03  0.7546771E-02  0.1124901E+00
         21   -1    0    0  501  502  0.00000000000E+00  0.00000000000E+00  0.18843823000E+04  0.18843823000E+04  0.00000000000E+00 0. -1.
         21   -1    0    0  502  503 -0.00000000000E+00 -0.00000000000E+00 -0.76465534635E+02  0.76465534635E+02  0.00000000000E+00 0.  1.
          6    1    1    2  501    0  0.29045804494E+02  0.15257155394E+03  0.16789789213E+04  0.16949988071E+04  0.17300000000E+03 0. -1.
         -6    1    1    2    0  503 -0.29045804494E+02 -0.15257155394E+03  0.12893784411E+03  0.26584902760E+03  0.17300000000E+03 0.  1.
<mgrwt>
<rscale>  2 0.23248815E+03</rscale>
<asrwt>0</asrwt>
<pdfrwt beam="1">  1       21 0.28990493E+00 0.23248815E+03</pdfrwt>
<pdfrwt beam="2">  1       21 0.11763930E-01 0.23248815E+03</pdfrwt>
<totfact> 0.22677896E+03</totfact>
</mgrwt>
</event>
<event>
 4    1  0.3901757E+000  0.2173560E+03  0.7546771E-02  0.1135870E+00
         21   -1    0    0  503  502  0.00000000000E+00  0.00000000000E+00  0.27841136603E+03  0.27841136603E+03  0.00000000000E+00 0.  1.
         21   -1    0    0  501  503 -0.00000000000E+00 -0.00000000000E+00 -0.19293799039E+03  0.19293799039E+03  0.00000000000E+00 0.  1.
          6    1    1    2  501    0 -0.12530475395E+03  0.40166294447E+02 -0.39071573579E+02  0.22083976189E+03  0.17300000000E+03 0.  1.
         -6    1    1    2    0  502  0.12530475395E+03 -0.40166294447E+02  0.12454494922E+03  0.25050959452E+03  0.17300000000E+03 0.  1.
<mgrwt>
<rscale>  2 0.21735596E+03</rscale>
<asrwt>0</asrwt>
<pdfrwt beam="1">  1       21 0.42832518E-01 0.21735596E+03</pdfrwt>
<pdfrwt beam="2">  1       21 0.29682768E-01 0.21735596E+03</pdfrwt>
<totfact> 0.56386073E+04</totfact>
</mgrwt>
</event>
<event>
 4    1  0.3901757E+000  0.2859851E+03  0.7546771E-02  0.1092464E+00
         21   -1    0    0  501  502  0.00000000000E+00  0.00000000000E+00  0.60962578739E+03  0.60962578739E+03  0.00000000000E+00 0. -1.
         21   -1    0    0  502  503 -0.00000000000E+00 -0.00000000000E+00 -0.25215122286E+03  0.25215122286E+03  0.00000000000E+00 0.  1.
          6    1    1    2  501    0  0.15539447313E+03  0.16646640415E+03  0.47349072549E+03  0.55315546921E+03  0.17300000000E+03 0. -1.
         -6    1    1    2    0  503 -0.15539447313E+03 -0.16646640415E+03 -0.11601616096E+03  0.30862154104E+03  0.17300000000E+03 0.  1.
<mgrwt>
<rscale>  2 0.28598515E+03</rscale>
<asrwt>0</asrwt>
<pdfrwt beam="1">  1       21 0.93788583E-01 0.28598515E+03</pdfrwt>
<pdfrwt beam="2">  1       21 0.38792496E-01 0.28598515E+03</pdfrwt>
<totfact> 0.57593584E+03</totfact>
</mgrwt>
</event>
<event>
 4    1  0.3901757E+000  0.1734525E+03  0.7546771E-02  0.1174295E+00
         21   -1    0    0  501  502  0.00000000000E+00  0.00000000000E+00  0.21921721979E+03  0.21921721979E+03  0.00000000000E+00 0.  1.
         21   -1    0    0  502  503 -0.00000000000E+00 -0.00000000000E+00 -0.13732462091E+03  0.13732462091E+03  0.00000000000E+00 0.  1.
          6    1    1    2  501    0  0.11318325684E+02  0.53545684075E+01  0.36569507616E+02  0.17726563340E+03  0.17300000000E+03 0.  1.
         -6    1    1    2    0  503 -0.11318325684E+02 -0.53545684075E+01  0.45323091267E+02  0.17927620729E+03  0.17300000000E+03 0.  1.
<mgrwt>
<rscale>  2 0.17345252E+03</rscale>
<asrwt>0</asrwt>
<pdfrwt beam="1">  1       21 0.33725726E-01 0.17345252E+03</pdfrwt>
<pdfrwt beam="2">  1       21 0.21126865E-01 0.17345252E+03</pdfrwt>
<totfact> 0.17744893E+05</totfact>
</mgrwt>
</event>
<event>
 4    1  0.3901757E+000  0.1752060E+03  0.7546771E-02  0.1172525E+00
         21   -1    0    0  503  502  0.00000000000E+00  0.00000000000E+00  0.31121746763E+03  0.31121746763E+03  0.00000000000E+00 0.  1.
         21   -1    0    0  501  503 -0.00000000000E+00 -0.00000000000E+00 -0.11685512317E+03  0.11685512317E+03  0.00000000000E+00 0.  1.
          6    1    1    2  501    0  0.18592641266E+02  0.20553862271E+02  0.12666705070E+02  0.17566329435E+03  0.17300000000E+03 0.  1.
         -6    1    1    2    0  502 -0.18592641266E+02 -0.20553862271E+02  0.18169563939E+03  0.25240929645E+03  0.17300000000E+03 0.  1.
<mgrwt>
<rscale>  2 0.17520601E+03</rscale>
<asrwt>0</asrwt>
<pdfrwt beam="1">  1       21 0.47879610E-01 0.17520601E+03</pdfrwt>
<pdfrwt beam="2">  1       21 0.17977711E-01 0.17520601E+03</pdfrwt>
<totfact> 0.11806989E+05</totfact>
</mgrwt>
</event>
<event>
 4    1  0.3901757E+000  0.2002674E+03  0.7546771E-02  0.1149514E+00
         21   -1    0    0  501  502  0.00000000000E+00  0.00000000000E+00  0.92274536975E+03  0.92274536975E+03  0.00000000000E+00 0.  1.
         21   -1    0    0  502  503 -0.00000000000E+00 -0.00000000000E+00 -0.58718657773E+02  0.58718657773E+02  0.00000000000E+00 0.  1.
          6    1    1    2  501    0 -0.97149292347E+02  0.27203683952E+02  0.68213133161E+03  0.71092206253E+03  0.17300000000E+03 0.  1.
         -6    1    1    2    0  503  0.97149292347E+02 -0.27203683952E+02  0.18189538036E+03  0.27054196499E+03  0.17300000000E+03 0.  1.
<mgrwt>
<rscale>  2 0.20026738E+03</rscale>
<asrwt>0</asrwt>
<pdfrwt beam="1">  1       21 0.14196082E+00 0.20026738E+03</pdfrwt>
<pdfrwt beam="2">  1       21 0.90336404E-02 0.20026738E+03</pdfrwt>
<totfact> 0.33343282E+04</totfact>
</mgrwt>
</event>
<event>
 4    1  0.3901757E+000  0.1734000E+03  0.7546771E-02  0.1174348E+00
         21   -1    0    0  503  502  0.00000000000E+00  0.00000000000E+00  0.78128713620E+03  0.78128713620E+03  0.00000000000E+00 0.  1.
         21   -1    0    0  501  503 -0.00000000000E+00 -0.00000000000E+00 -0.47700647460E+02  0.47700647460E+02  0.00000000000E+00 0.  1.
          6    1    1    2  501    0 -0.72391689674E+01 -0.92813252922E+01  0.18460196904E+03  0.25326949192E+03  0.17300000000E+03 0. -1.
         -6    1    1    2    0  502  0.72391689674E+01  0.92813252922E+01  0.54898451971E+03  0.57571829174E+03  0.17300000000E+03 0. -1.
<mgrwt>
<rscale>  2 0.17339997E+03</rscale>
<asrwt>0</asrwt>
<pdfrwt beam="1">  1       21 0.12019801E+00 0.17339997E+03</pdfrwt>
<pdfrwt beam="2">  1       21 0.73385617E-02 0.17339997E+03</pdfrwt>
<totfact> 0.73993254E+04</totfact>
</mgrwt>
</event>
<event>
 4    1  0.3901757E+000  0.2405382E+03  0.7546771E-02  0.1119435E+00
         21   -1    0    0  501  502  0.00000000000E+00  0.00000000000E+00  0.11014472887E+03  0.11014472887E+03  0.00000000000E+00 0.  1.
         21   -1    0    0  502  503 -0.00000000000E+00 -0.00000000000E+00 -0.77745290924E+03  0.77745290924E+03  0.00000000000E+00 0.  1.
          6    1    1    2  501    0  0.66169742549E+02  0.15346402792E+03 -0.80908210230E+02  0.25378097087E+03  0.17300000000E+03 0.  1.
         -6    1    1    2    0  503 -0.66169742549E+02 -0.15346402792E+03 -0.58639997014E+03  0.63381666724E+03  0.17300000000E+03 0.  1.
<mgrwt>
<rscale>  2 0.24053824E+03</rscale>
<asrwt>0</asrwt>
<pdfrwt beam="1">  1       21 0.16945343E-01 0.24053824E+03</pdfrwt>
<pdfrwt beam="2">  1       21 0.11960814E+00 0.24053824E+03</pdfrwt>
<totfact> 0.16224012E+04</totfact>
</mgrwt>
</event>
<event>
 4    1  0.3901757E+000  0.1733566E+03  0.7546771E-02  0.1174392E+00
         21   -1    0    0  503  502  0.00000000000E+00  0.00000000000E+00  0.67349511590E+03  0.67349511590E+03  0.00000000000E+00 0.  1.
         21   -1    0    0  501  503 -0.00000000000E+00 -0.00000000000E+00 -0.65150899158E+02  0.65150899158E+02  0.00000000000E+00 0.  1.
          6    1    1    2  501    0  0.38226270171E+01  0.10435418091E+02  0.96856524161E+02  0.19857919503E+03  0.17300000000E+03 0.  1.
         -6    1    1    2    0  502 -0.38226270171E+01 -0.10435418091E+02  0.51148769258E+03  0.54006682002E+03  0.17300000000E+03 0.  1.
<mgrwt>
<rscale>  2 0.17335660E+03</rscale>
<asrwt>0</asrwt>
<pdfrwt beam="1">  1       21 0.10361463E+00 0.17335660E+03</pdfrwt>
<pdfrwt beam="2">  1       21 0.10023216E-01 0.17335660E+03</pdfrwt>
<totfact> 0.61524835E+04</totfact>
</mgrwt>
</event>
<event>
 4    1  0.3901757E+000  0.1781490E+03  0.7546771E-02  0.1169607E+00
         21   -1    0    0  503  502  0.00000000000E+00  0.00000000000E+00  0.38081935304E+02  0.38081935304E+02  0.00000000000E+00 0.  1.
         21   -1    0    0  501  503 -0.00000000000E+00 -0.00000000000E+00 -0.94917999266E+03  0.94917999266E+03  0.00000000000E+00 0.  1.
          6    1    1    2  501    0  0.28891945909E+02 -0.31198331644E+02 -0.62795995410E+03  0.65274097802E+03  0.17300000000E+03 0.  1.
         -6    1    1    2    0  502 -0.28891945909E+02  0.31198331644E+02 -0.28313810326E+03  0.33452094995E+03  0.17300000000E+03 0.  1.
<mgrwt>
<rscale>  2 0.17814904E+03</rscale>
<asrwt>0</asrwt>
<pdfrwt beam="1">  1       21 0.58587594E-02 0.17814904E+03</pdfrwt>
<pdfrwt beam="2">  1       21 0.14602769E+00 0.17814904E+03</pdfrwt>
<totfact> 0.66365801E+04</totfact>
</mgrwt>
</event>
<event>
 4    1  0.3901757E+000  0.1797236E+03  0.7546771E-02  0.1168071E+00
         21   -1    0    0  503  502  0.00000000000E+00  0.00000000000E+00  0.60135104189E+03  0.60135104189E+03  0.00000000000E+00 0. -1.
         21   -1    0    0  501  503 -0.00000000000E+00 -0.00000000000E+00 -0.64588915844E+02  0.64588915844E+02  0.00000000000E+00 0. -1.
          6    1    1    2  501    0 -0.48591492104E+02  0.32285505843E+01  0.13174895967E+03  0.22284152445E+03  0.17300000000E+03 0. -1.
         -6    1    1    2    0  502  0.48591492104E+02 -0.32285505843E+01  0.40501316637E+03  0.44309843329E+03  0.17300000000E+03 0. -1.
<mgrwt>
<rscale>  2 0.17972356E+03</rscale>
<asrwt>0</asrwt>
<pdfrwt beam="1">  1       21 0.92515541E-01 0.17972356E+03</pdfrwt>
<pdfrwt beam="2">  1       21 0.99367567E-02 0.17972356E+03</pdfrwt>
<totfact> 0.81318344E+04</totfact>
</mgrwt>
</event>
<event>
 4    1  0.3901757E+000  0.2123924E+03  0.7546771E-02  0.1139685E+00
         21   -1    0    0  501  502  0.00000000000E+00  0.00000000000E+00  0.20934554271E+03  0.20934554271E+03  0.00000000000E+00 0.  1.
         21   -1    0    0  502  503 -0.00000000000E+00 -0.00000000000E+00 -0.49957308487E+03  0.49957308487E+03  0.00000000000E+00 0.  1.
          6    1    1    2  501    0  0.10460062292E+03  0.65117243842E+02  0.12218342479E+03  0.24502925346E+03  0.17300000000E+03 0.  1.
         -6    1    1    2    0  503 -0.10460062292E+03 -0.65117243842E+02 -0.41241096694E+03  0.46388937411E+03  0.17300000000E+03 0.  1.
<mgrwt>
<rscale>  2 0.21239243E+03</rscale>
<asrwt>0</asrwt>
<pdfrwt beam="1">  1       21 0.32207007E-01 0.21239243E+03</pdfrwt>
<pdfrwt beam="2">  1       21 0.76857397E-01 0.21239243E+03</pdfrwt>
<totfact> 0.13783568E+04</totfact>
</mgrwt>
</event>
<event>
 4    1  0.3901757E+000  0.2047451E+03  0.7546771E-02  0.1145796E+00
         21   -1    0    0  501  502  0.00000000000E+00  0.00000000000E+00  0.10098506464E+04  0.10098506464E+04  0.00000000000E+00 0.  1.
         21   -1    0    0  502  503 -0.00000000000E+00 -0.00000000000E+00 -0.82339779366E+02  0.82339779366E+02  0.00000000000E+00 0. -1.
          6    1    1    2  501    0  0.24047207366E+01 -0.10947953000E+03  0.84829704998E+03  0.87265596611E+03  0.17300000000E+03 0.  1.
         -6    1    1    2    0  503 -0.24047207366E+01  0.10947953000E+03  0.79213817065E+02  0.21953445967E+03  0.17300000000E+03 0. -1.
<mgrwt>
<rscale>  2 0.20474509E+03</rscale>
<asrwt>0</asrwt>
<pdfrwt beam="1">  1       21 0.15536163E+00 0.20474509E+03</pdfrwt>
<pdfrwt beam="2">  1       21 0.12667659E-01 0.20474509E+03</pdfrwt>
<totfact> 0.14379866E+04</totfact>
</mgrwt>
</event>
<event>
 4    1  0.3901757E+000  0.2438830E+03  0.7546771E-02  0.1117233E+00
         21   -1    0    0  501  502  0.00000000000E+00  0.00000000000E+00  0.91614109858E+03  0.91614109858E+03  0.00000000000E+00 0.  1.
         21   -1    0    0  502  503 -0.00000000000E+00 -0.00000000000E+00 -0.66230864254E+02  0.66230864254E+02  0.00000000000E+00 0. -1.
          6    1    1    2  501    0 -0.64438306629E+02  0.15936637630E+03  0.35594049226E+03  0.43147719672E+03  0.17300000000E+03 0. -1.
         -6    1    1    2    0  503  0.64438306629E+02 -0.15936637630E+03  0.49396974207E+03  0.55089476612E+03  0.17300000000E+03 0.  1.
<mgrwt>
<rscale>  2 0.24388304E+03</rscale>
<asrwt>0</asrwt>
<pdfrwt beam="1">  1       21 0.14094478E+00 0.24388304E+03</pdfrwt>
<pdfrwt beam="2">  1       21 0.10189364E-01 0.24388304E+03</pdfrwt>
<totfact> 0.26799158E+04</totfact>
</mgrwt>
</event>
<event>
 4    1  0.3901757E+000  0.1945074E+03  0.7546771E-02  0.1154458E+00
         21   -1    0    0  503  502  0.00000000000E+00  0.00000000000E+00  0.25085126564E+03  0.25085126564E+03  0.00000000000E+00 0.  1.
         21   -1    0    0  501  503 -0.00000000000E+00 -0.00000000000E+00 -0.16136741028E+03  0.16136741028E+03  0.00000000000E+00 0.  1.
          6    1    1    2  501    0  0.88756013497E+02 -0.51478983565E+01 -0.79548151883E+01  0.19467000250E+03  0.17300000000E+03 0.  1.
         -6    1    1    2    0  502 -0.88756013497E+02  0.51478983565E+01  0.97438670542E+02  0.21754867342E+03  0.17300000000E+03 0.  1.
<mgrwt>
<rscale>  2 0.19450741E+03</rscale>
<asrwt>0</asrwt>
<pdfrwt beam="1">  1       21 0.38592502E-01 0.19450741E+03</pdfrwt>
<pdfrwt beam="2">  1       21 0.24825756E-01 0.19450741E+03</pdfrwt>
<totfact> 0.99314575E+04</totfact>
</mgrwt>
</event>
<event>
 4    1  0.3901757E+000  0.1974879E+03  0.7546771E-02  0.1151876E+00
         21   -1    0    0  503  502  0.00000000000E+00  0.00000000000E+00  0.82777813101E+02  0.82777813101E+02  0.00000000000E+00 0. -1.
         21   -1    0    0  501  503 -0.00000000000E+00 -0.00000000000E+00 -0.87750424174E+03  0.87750424174E+03  0.00000000000E+00 0.  1.
          6    1    1    2  501    0  0.95203707437E+02  0.29525429043E+01 -0.72409554131E+03  0.75054368052E+03  0.17300000000E+03 0. -1.
         -6    1    1    2    0  502 -0.95203707437E+02 -0.29525429043E+01 -0.70630887330E+02  0.20973837432E+03  0.17300000000E+03 0. -1.
<mgrwt>
<rscale>  2 0.19748788E+03</rscale>
<asrwt>0</asrwt>
<pdfrwt beam="1">  1       21 0.12735048E-01 0.19748788E+03</pdfrwt>
<pdfrwt beam="2">  1       21 0.13500066E+00 0.19748788E+03</pdfrwt>
<totfact> 0.20656231E+04</totfact>
</mgrwt>
</event>
<event>
 4    1  0.3901757E+000  0.1968393E+03  0.7546771E-02  0.1152433E+00
         21   -1    0    0  501  502  0.00000000000E+00  0.00000000000E+00  0.59930744146E+03  0.59930744146E+03  0.00000000000E+00 0. -1.
         21   -1    0    0  502  503 -0.00000000000E+00 -0.00000000000E+00 -0.23252977625E+03  0.23252977625E+03  0.00000000000E+00 0. -1.
          6    1    1    2  501    0  0.29612669461E+02  0.89105549258E+02  0.53678937633E+03  0.57174167562E+03  0.17300000000E+03 0. -1.
         -6    1    1    2    0  503 -0.29612669461E+02 -0.89105549258E+02 -0.17001171111E+03  0.26009554209E+03  0.17300000000E+03 0. -1.
<mgrwt>
<rscale>  2 0.19683930E+03</rscale>
<asrwt>0</asrwt>
<pdfrwt beam="1">  1       21 0.92201144E-01 0.19683930E+03</pdfrwt>
<pdfrwt beam="2">  1       21 0.35773812E-01 0.19683930E+03</pdfrwt>
<totfact> 0.74612082E+03</totfact>
</mgrwt>
</event>
<event>
 4    1  0.3901757E+000  0.1862113E+03  0.7546771E-02  0.1161924E+00
         21   -1    0    0  501  502  0.00000000000E+00  0.00000000000E+00  0.66825099232E+03  0.66825099232E+03  0.00000000000E+00 0. -1.
         21   -1    0    0  502  503 -0.00000000000E+00 -0.00000000000E+00 -0.48822736264E+03  0.48822736264E+03  0.00000000000E+00 0. -1.
          6    1    1    2  501    0  0.67138268343E+02 -0.15430652331E+02  0.63666051605E+03  0.66333344918E+03  0.17300000000E+03 0. -1.
         -6    1    1    2    0  503 -0.67138268343E+02  0.15430652331E+02 -0.45663688636E+03  0.49314490578E+03  0.17300000000E+03 0. -1.
<mgrwt>
<rscale>  2 0.18621131E+03</rscale>
<asrwt>0</asrwt>
<pdfrwt beam="1">  1       21 0.10280784E+00 0.18621131E+03</pdfrwt>
<pdfrwt beam="2">  1       21 0.75111902E-01 0.18621131E+03</pdfrwt>
<totfact> 0.12256428E+03</totfact>
</mgrwt>
</event>
<event>
 4    1  0.3901757E+000  0.1968609E+03  0.7546771E-02  0.1152415E+00
         21   -1    0    0  501  502  0.00000000000E+00  0.00000000000E+00  0.32764020628E+03  0.32764020628E+03  0.00000000000E+00 0.  1.
         21   -1    0    0  502  503 -0.00000000000E+00 -0.00000000000E+00 -0.13468157426E+03  0.13468157426E+03  0.00000000000E+00 0.  1.
          6    1    1    2  501    0  0.89512480418E+02 -0.28508439128E+02  0.17714064695E+03  0.26482640362E+03  0.17300000000E+03 0.  1.
         -6    1    1    2    0  503 -0.89512480418E+02  0.28508439128E+02  0.15817985079E+02  0.19749537692E+03  0.17300000000E+03 0.  1.
<mgrwt>
<rscale>  2 0.19686090E+03</rscale>
<asrwt>0</asrwt>
<pdfrwt beam="1">  1       21 0.50406185E-01 0.19686090E+03</pdfrwt>
<pdfrwt beam="2">  1       21 0.20720242E-01 0.19686090E+03</pdfrwt>
<totfact> 0.80799928E+04</totfact>
</mgrwt>
</event>
<event>
 4    1  0.3901757E+000  0.1997195E+03  0.7546771E-02  0.1149976E+00
         21   -1    0    0  503  502  0.00000000000E+00  0.00000000000E+00  0.92073354464E+03  0.92073354464E+03  0.00000000000E+00 0. -1.
         21   -1    0    0  501  503 -0.00000000000E+00 -0.00000000000E+00 -0.45736518770E+02  0.45736518770E+02  0.00000000000E+00 0. -1.
          6    1    1    2  501    0 -0.58467068209E+02 -0.80873287116E+02  0.32646475403E+03  0.38271023276E+03  0.17300000000E+03 0. -1.
         -6    1    1    2    0  502  0.58467068209E+02  0.80873287116E+02  0.54853227183E+03  0.58375983065E+03  0.17300000000E+03 0. -1.
<mgrwt>
<rscale>  2 0.19971952E+03</rscale>
<asrwt>0</asrwt>
<pdfrwt beam="1">  1       21 0.14165130E+00 0.19971952E+03</pdfrwt>
<pdfrwt beam="2">  1       21 0.70363882E-02 0.19971952E+03</pdfrwt>
<totfact> 0.51837673E+04</totfact>
</mgrwt>
</event>
<event>
 4    1  0.3901757E+000  0.2853864E+03  0.7546771E-02  0.1092783E+00
         21   -1    0    0  503  502  0.00000000000E+00  0.00000000000E+00  0.80679693848E+02  0.80679693848E+02  0.00000000000E+00 0. -1.
         21   -1    0    0  501  503 -0.00000000000E+00 -0.00000000000E+00 -0.21632288859E+04  0.21632288859E+04  0.00000000000E+00 0.  1.
          6    1    1    2  501    0 -0.19849685232E+03 -0.11006983888E+03 -0.18606400174E+04  0.18823991724E+04  0.17300000000E+03 0.  1.
         -6    1    1    2    0  502  0.19849685232E+03  0.11006983888E+03 -0.22190917460E+03  0.36150940732E+03  0.17300000000E+03 0. -1.
<mgrwt>
<rscale>  2 0.28538635E+03</rscale>
<asrwt>0</asrwt>
<pdfrwt beam="1">  1       21 0.12412260E-01 0.28538635E+03</pdfrwt>
<pdfrwt beam="2">  1       21 0.33280445E+00 0.28538635E+03</pdfrwt>
<totfact> 0.10950078E+03</totfact>
</mgrwt>
</event>
<event>
 4    1  0.3901757E+000  0.1988803E+03  0.7546771E-02  0.1150687E+00
         21   -1    0    0  503  502  0.00000000000E+00  0.00000000000E+00  0.23784886832E+03  0.23784886832E+03  0.00000000000E+00 0. -1.
         21   -1    0    0  501  503 -0.00000000000E+00 -0.00000000000E+00 -0.26000762064E+03  0.26000762064E+03  0.00000000000E+00 0. -1.
          6    1    1    2  501    0  0.96800856137E+02 -0.15936736096E+02 -0.16052292808E+03  0.25557972483E+03  0.17300000000E+03 0. -1.
         -6    1    1    2    0  502 -0.96800856137E+02  0.15936736096E+02  0.13836417576E+03  0.24227676413E+03  0.17300000000E+03 0. -1.
<mgrwt>
<rscale>  2 0.19888033E+03</rscale>
<asrwt>0</asrwt>
<pdfrwt beam="1">  1       21 0.36592134E-01 0.19888033E+03</pdfrwt>
<pdfrwt beam="2">  1       21 0.40001172E-01 0.19888033E+03</pdfrwt>
<totfact> 0.43246193E+04</totfact>
</mgrwt>
</event>
<event>
 4    1  0.3901757E+000  0.2831126E+03  0.7546771E-02  0.1094001E+00
         21   -1    0    0  501  502  0.00000000000E+00  0.00000000000E+00  0.46146071223E+03  0.46146071223E+03  0.00000000000E+00 0. -1.
         21   -1    0    0  502  503 -0.00000000000E+00 -0.00000000000E+00 -0.23194158713E+03  0.23194158713E+03  0.00000000000E+00 0.  1.
          6    1    1    2  501    0  0.22317327872E+03  0.20431417743E+02 -0.58983138740E+02  0.28919157287E+03  0.17300000000E+03 0.  1.
         -6    1    1    2    0  503 -0.22317327872E+03 -0.20431417743E+02  0.28850226384E+03  0.40421072649E+03  0.17300000000E+03 0. -1.
<mgrwt>
<rscale>  2 0.28311262E+03</rscale>
<asrwt>0</asrwt>
<pdfrwt beam="1">  1       21 0.70993956E-01 0.28311262E+03</pdfrwt>
<pdfrwt beam="2">  1       21 0.35683321E-01 0.28311262E+03</pdfrwt>
<totfact> 0.12932836E+04</totfact>
</mgrwt>
</event>
<event>
 4    1  0.3901757E+000  0.1776510E+03  0.7546771E-02  0.1170096E+00
         21   -1    0    0  503  502  0.00000000000E+00  0.00000000000E+00  0.27568603866E+03  0.27568603866E+03  0.00000000000E+00 0.  1.
         21   -1    0    0  501  503 -0.00000000000E+00 -0.00000000000E+00 -0.11643146011E+03  0.11643146011E+03  0.00000000000E+00 0.  1.
          6    1    1    2  501    0  0.21798931537E+02 -0.33995614403E+02  0.54229842013E+02  0.18574383161E+03  0.17300000000E+03 0.  1.
         -6    1    1    2    0  502 -0.21798931537E+02  0.33995614403E+02  0.10502473654E+03  0.20637366717E+03  0.17300000000E+03 0.  1.
<mgrwt>
<rscale>  2 0.17765105E+03</rscale>
<asrwt>0</asrwt>
<pdfrwt beam="1">  1       21 0.42413237E-01 0.17765105E+03</pdfrwt>
<pdfrwt beam="2">  1       21 0.17912532E-01 0.17765105E+03</pdfrwt>
<totfact> 0.15225735E+05</totfact>
</mgrwt>
</event>
<event>
 4    1  0.3901757E+000  0.2345798E+03  0.7546771E-02  0.1123457E+00
         21   -1    0    0  503  502  0.00000000000E+00  0.00000000000E+00  0.92894933754E+02  0.92894933754E+02  0.00000000000E+00 0. -1.
         21   -1    0    0  501  503 -0.00000000000E+00 -0.00000000000E+00 -0.15055156590E+04  0.15055156590E+04  0.00000000000E+00 0.  1.
          6    1    1    2  501    0  0.11235278078E+03 -0.11169397683E+03 -0.13287352842E+04  0.13492831976E+04  0.17300000000E+03 0.  1.
         -6    1    1    2    0  502 -0.11235278078E+03  0.11169397683E+03 -0.83885441057E+02  0.24912739518E+03  0.17300000000E+03 0. -1.
<mgrwt>
<rscale>  2 0.23457982E+03</rscale>
<asrwt>0</asrwt>
<pdfrwt beam="1">  1       21 0.14291529E-01 0.23457982E+03</pdfrwt>
<pdfrwt beam="2">  1       21 0.23161778E+00 0.23457982E+03</pdfrwt>
<totfact> 0.35184388E+03</totfact>
</mgrwt>
</event>
<event>
 4    1  0.3901757E+000  0.2246435E+03  0.7546771E-02  0.1130468E+00
         21   -1    0    0  503  502  0.00000000000E+00  0.00000000000E+00  0.11655579739E+03  0.11655579739E+03  0.00000000000E+00 0. -1.
         21   -1    0    0  501  503 -0.00000000000E+00 -0.00000000000E+00 -0.46484353833E+03  0.46484353833E+03  0.00000000000E+00 0.  1.
          6    1    1    2  501    0 -0.47065157707E+02 -0.13535344869E+03 -0.98017655066E+02  0.24509619713E+03  0.17300000000E+03 0.  1.
         -6    1    1    2    0  502  0.47065157707E+02  0.13535344869E+03 -0.25027008587E+03  0.33630313859E+03  0.17300000000E+03 0. -1.
<mgrwt>
<rscale>  2 0.22464346E+03</rscale>
<asrwt>0</asrwt>
<pdfrwt beam="1">  1       21 0.17931661E-01 0.22464346E+03</pdfrwt>
<pdfrwt beam="2">  1       21 0.71514391E-01 0.22464346E+03</pdfrwt>
<totfact> 0.49210363E+04</totfact>
</mgrwt>
</event>
<event>
 4    1  0.3901757E+000  0.1839917E+03  0.7546771E-02  0.1163995E+00
         21   -1    0    0  503  502  0.00000000000E+00  0.00000000000E+00  0.34882577397E+03  0.34882577397E+03  0.00000000000E+00 0. -1.
         21   -1    0    0  501  503 -0.00000000000E+00 -0.00000000000E+00 -0.10260974875E+03  0.10260974875E+03  0.00000000000E+00 0. -1.
          6    1    1    2  501    0 -0.44124842449E+01  0.62485721021E+02  0.70558723136E+02  0.19705701906E+03  0.17300000000E+03 0. -1.
         -6    1    1    2    0  502  0.44124842449E+01 -0.62485721021E+02  0.17565730208E+03  0.25437850366E+03  0.17300000000E+03 0. -1.
<mgrwt>
<rscale>  2 0.18399167E+03</rscale>
<asrwt>0</asrwt>
<pdfrwt beam="1">  1       21 0.53665503E-01 0.18399167E+03</pdfrwt>
<pdfrwt beam="2">  1       21 0.15786115E-01 0.18399167E+03</pdfrwt>
<totfact> 0.11776894E+05</totfact>
</mgrwt>
</event>
<event>
 4    1  0.3901757E+000  0.2152863E+03  0.7546771E-02  0.1137447E+00
         21   -1    0    0  503  502  0.00000000000E+00  0.00000000000E+00  0.13602435703E+04  0.13602435703E+04  0.00000000000E+00 0. -1.
         21   -1    0    0  501  503 -0.00000000000E+00 -0.00000000000E+00 -0.60557765321E+02  0.60557765321E+02  0.00000000000E+00 0. -1.
          6    1    1    2  501    0 -0.12381424983E+03  0.33003147307E+02  0.18004301696E+03  0.28064864893E+03  0.17300000000E+03 0. -1.
         -6    1    1    2    0  502  0.12381424983E+03 -0.33003147307E+02  0.11196427880E+04  0.11401526866E+04  0.17300000000E+03 0. -1.
<mgrwt>
<rscale>  2 0.21528627E+03</rscale>
<asrwt>0</asrwt>
<pdfrwt beam="1">  1       21 0.20926822E+00 0.21528627E+03</pdfrwt>
<pdfrwt beam="2">  1       21 0.93165803E-02 0.21528627E+03</pdfrwt>
<totfact> 0.10580417E+04</totfact>
</mgrwt>
</event>
<event>
 4    1  0.3901757E+000  0.2096726E+03  0.7546771E-02  0.1141826E+00
         21   -1    0    0  503  502  0.00000000000E+00  0.00000000000E+00  0.13855353619E+03  0.13855353619E+03  0.00000000000E+00 0. -1.
         21   -1    0    0  501  503 -0.00000000000E+00 -0.00000000000E+00 -0.38699563224E+03  0.38699563224E+03  0.00000000000E+00 0.  1.
          6    1    1    2  501    0 -0.47162132189E+02  0.10867075788E+03 -0.23573852285E+03  0.31549207832E+03  0.17300000000E+03 0.  1.
         -6    1    1    2    0  502  0.47162132189E+02 -0.10867075788E+03 -0.12703573197E+02  0.21005709010E+03  0.17300000000E+03 0. -1.
<mgrwt>
<rscale>  2 0.20967260E+03</rscale>
<asrwt>0</asrwt>
<pdfrwt beam="1">  1       21 0.21315929E-01 0.20967260E+03</pdfrwt>
<pdfrwt beam="2">  1       21 0.59537789E-01 0.20967260E+03</pdfrwt>
<totfact> 0.53532421E+04</totfact>
</mgrwt>
</event>
<event>
 4    1  0.3901757E+000  0.2270787E+03  0.7546771E-02  0.1128713E+00
         21   -1    0    0  503  502  0.00000000000E+00  0.00000000000E+00  0.59988481008E+03  0.59988481008E+03  0.00000000000E+00 0. -1.
         21   -1    0    0  501  503 -0.00000000000E+00 -0.00000000000E+00 -0.13448788545E+03  0.13448788545E+03  0.00000000000E+00 0.  1.
          6    1    1    2  501    0  0.12674914648E+03 -0.74634945786E+02  0.12126199798E+02  0.22740221192E+03  0.17300000000E+03 0.  1.
         -6    1    1    2    0  502 -0.12674914648E+03  0.74634945786E+02  0.45327072483E+03  0.50697048361E+03  0.17300000000E+03 0. -1.
<mgrwt>
<rscale>  2 0.22707867E+03</rscale>
<asrwt>0</asrwt>
<pdfrwt beam="1">  1       21 0.92289970E-01 0.22707867E+03</pdfrwt>
<pdfrwt beam="2">  1       21 0.20690444E-01 0.22707867E+03</pdfrwt>
<totfact> 0.21043279E+04</totfact>
</mgrwt>
</event>
<event>
 4    1  0.3901757E+000  0.1939350E+03  0.7546771E-02  0.1154959E+00
         21   -1    0    0  501  502  0.00000000000E+00  0.00000000000E+00  0.59833328934E+03  0.59833328934E+03  0.00000000000E+00 0. -1.
         21   -1    0    0  502  503 -0.00000000000E+00 -0.00000000000E+00 -0.10179390852E+03  0.10179390852E+03  0.00000000000E+00 0. -1.
          6    1    1    2  501    0  0.36865582587E+02  0.79515572094E+02  0.46476779487E+03  0.50360689087E+03  0.17300000000E+03 0. -1.
         -6    1    1    2    0  503 -0.36865582587E+02 -0.79515572094E+02  0.31771585961E+02  0.19652030699E+03  0.17300000000E+03 0. -1.
<mgrwt>
<rscale>  2 0.19393503E+03</rscale>
<asrwt>0</asrwt>
<pdfrwt beam="1">  1       21 0.92051273E-01 0.19393503E+03</pdfrwt>
<pdfrwt beam="2">  1       21 0.15660602E-01 0.19393503E+03</pdfrwt>
<totfact> 0.36132968E+04</totfact>
</mgrwt>
</event>
<event>
 4    1  0.3901757E+000  0.2382803E+03  0.7546771E-02  0.1120944E+00
         21   -1    0    0  501  502  0.00000000000E+00  0.00000000000E+00  0.50077914362E+03  0.50077914362E+03  0.00000000000E+00 0. -1.
         21   -1    0    0  502  503 -0.00000000000E+00 -0.00000000000E+00 -0.11359266448E+03  0.11359266448E+03  0.00000000000E+00 0.  1.
          6    1    1    2  501    0 -0.12690299130E+03 -0.10365393580E+03  0.18024995214E+03  0.29877676090E+03  0.17300000000E+03 0.  1.
         -6    1    1    2    0  503  0.12690299130E+03  0.10365393580E+03  0.20693652701E+03  0.31559504720E+03  0.17300000000E+03 0. -1.
<mgrwt>
<rscale>  2 0.23828031E+03</rscale>
<asrwt>0</asrwt>
<pdfrwt beam="1">  1       21 0.77042944E-01 0.23828031E+03</pdfrwt>
<pdfrwt beam="2">  1       21 0.17475795E-01 0.23828031E+03</pdfrwt>
<totfact> 0.43426488E+04</totfact>
</mgrwt>
</event>
<event>
 4    1  0.3901757E+000  0.1792904E+03  0.7546771E-02  0.1168492E+00
         21   -1    0    0  501  502  0.00000000000E+00  0.00000000000E+00  0.84729305438E+03  0.84729305438E+03  0.00000000000E+00 0. -1.
         21   -1    0    0  502  503 -0.00000000000E+00 -0.00000000000E+00 -0.14442719860E+03  0.14442719860E+03  0.00000000000E+00 0. -1.
          6    1    1    2  501    0 -0.44506562445E+02  0.15337135049E+02  0.77721401886E+03  0.79762565964E+03  0.17300000000E+03 0. -1.
         -6    1    1    2    0  503  0.44506562445E+02 -0.15337135049E+02 -0.74348163071E+02  0.19409459334E+03  0.17300000000E+03 0. -1.
<mgrwt>
<rscale>  2 0.17929044E+03</rscale>
<asrwt>0</asrwt>
<pdfrwt beam="1">  1       21 0.13035277E+00 0.17929044E+03</pdfrwt>
<pdfrwt beam="2">  1       21 0.22219570E-01 0.17929044E+03</pdfrwt>
<totfact> 0.82171657E+03</totfact>
</mgrwt>
</event>
<event>
 4    1  0.3901757E+000  0.2169402E+03  0.7546771E-02  0.1136185E+00
         21   -1    0    0  501  502  0.00000000000E+00  0.00000000000E+00  0.11741763535E+03  0.11741763535E+03  0.00000000000E+00 0. -1.
         21   -1    0    0  502  503 -0.00000000000E+00 -0.00000000000E+00 -0.49050724890E+03  0.49050724890E+03  0.00000000000E+00 0.  1.
          6    1    1    2  501    0  0.23391025812E+02 -0.12879023345E+03 -0.56567307870E+02  0.22419394426E+03  0.17300000000E+03 0. -1.
         -6    1    1    2    0  503 -0.23391025812E+02  0.12879023345E+03 -0.31652230567E+03  0.38373094000E+03  0.17300000000E+03 0.  1.
<mgrwt>
<rscale>  2 0.21694023E+03</rscale>
<asrwt>0</asrwt>
<pdfrwt beam="1">  1       21 0.18064252E-01 0.21694023E+03</pdfrwt>
<pdfrwt beam="2">  1       21 0.75462654E-01 0.21694023E+03</pdfrwt>
<totfact> 0.43209107E+04</totfact>
</mgrwt>
</event>
<event>
 4    1  0.3901757E+000  0.2156644E+03  0.7546771E-02  0.1137157E+00
         21   -1    0    0  503  502  0.00000000000E+00  0.00000000000E+00  0.12022452515E+03  0.12022452515E+03  0.00000000000E+00 0.  1.
         21   -1    0    0  501  503 -0.00000000000E+00 -0.00000000000E+00 -0.40801014526E+03  0.40801014526E+03  0.00000000000E+00 0.  1.
          6    1    1    2  501    0 -0.49852355200E+01 -0.12867511760E+03 -0.20401377850E+03  0.29687162256E+03  0.17300000000E+03 0.  1.
         -6    1    1    2    0  502  0.49852355200E+01  0.12867511760E+03 -0.83771841616E+02  0.23136304785E+03  0.17300000000E+03 0.  1.
<mgrwt>
<rscale>  2 0.21566441E+03</rscale>
<asrwt>0</asrwt>
<pdfrwt beam="1">  1       21 0.18496081E-01 0.21566441E+03</pdfrwt>
<pdfrwt beam="2">  1       21 0.62770792E-01 0.21566441E+03</pdfrwt>
<totfact> 0.62108382E+04</totfact>
</mgrwt>
</event>
<event>
 4    1  0.3901757E+000  0.2480324E+03  0.7546771E-02  0.1114555E+00
         21   -1    0    0  501  502  0.00000000000E+00  0.00000000000E+00  0.20804067479E+03  0.20804067479E+03  0.00000000000E+00 0. -1.
         21   -1    0    0  502  503 -0.00000000000E+00 -0.00000000000E+00 -0.35037643228E+03  0.35037643228E+03  0.00000000000E+00 0.  1.
          6    1    1    2  501    0  0.17760174621E+03  0.69777816144E+01  0.39116686158E+02  0.25109795863E+03  0.17300000000E+03 0. -1.
         -6    1    1    2    0  503 -0.17760174621E+03 -0.69777816144E+01 -0.18145244366E+03  0.30731914844E+03  0.17300000000E+03 0.  1.
<mgrwt>
<rscale>  2 0.24803240E+03</rscale>
<asrwt>0</asrwt>
<pdfrwt beam="1">  1       21 0.32006258E-01 0.24803240E+03</pdfrwt>
<pdfrwt beam="2">  1       21 0.53904066E-01 0.24803240E+03</pdfrwt>
<totfact> 0.29715559E+04</totfact>
</mgrwt>
</event>
<event>
 4    1  0.3901757E+000  0.1794023E+03  0.7546771E-02  0.1168383E+00
         21   -1    0    0  501  502  0.00000000000E+00  0.00000000000E+00  0.26520938671E+02  0.26520938671E+02  0.00000000000E+00 0.  1.
         21   -1    0    0  502  503 -0.00000000000E+00 -0.00000000000E+00 -0.12156226586E+04  0.12156226586E+04  0.00000000000E+00 0.  1.
          6    1    1    2  501    0 -0.27707824324E+02  0.38580548009E+02 -0.56906877657E+03  0.59667784832E+03  0.17300000000E+03 0. -1.
         -6    1    1    2    0  503  0.27707824324E+02 -0.38580548009E+02 -0.62003294338E+03  0.64546574897E+03  0.17300000000E+03 0. -1.
<mgrwt>
<rscale>  2 0.17940229E+03</rscale>
<asrwt>0</asrwt>
<pdfrwt beam="1">  1       21 0.40801444E-02 0.17940229E+03</pdfrwt>
<pdfrwt beam="2">  1       21 0.18701887E+00 0.17940229E+03</pdfrwt>
<totfact> 0.62362804E+04</totfact>
</mgrwt>
</event>
<event>
 4    1  0.3901757E+000  0.2194886E+03  0.7546771E-02  0.1134265E+00
         21   -1    0    0  503  502  0.00000000000E+00  0.00000000000E+00  0.26796857916E+03  0.26796857916E+03  0.00000000000E+00 0. -1.
         21   -1    0    0  501  503 -0.00000000000E+00 -0.00000000000E+00 -0.62286830277E+03  0.62286830277E+03  0.00000000000E+00 0.  1.
          6    1    1    2  501    0  0.62329581509E+02  0.11983846667E+03 -0.55312763992E+03  0.59508438130E+03  0.17300000000E+03 0.  1.
         -6    1    1    2    0  502 -0.62329581509E+02 -0.11983846667E+03  0.19822791631E+03  0.29575250063E+03  0.17300000000E+03 0. -1.
<mgrwt>
<rscale>  2 0.21948858E+03</rscale>
<asrwt>0</asrwt>
<pdfrwt beam="1">  1       21 0.41225936E-01 0.21948858E+03</pdfrwt>
<pdfrwt beam="2">  1       21 0.95825892E-01 0.21948858E+03</pdfrwt>
<totfact> 0.50396066E+03</totfact>
</mgrwt>
</event>
<event>
 4    1  0.3901757E+000  0.3539945E+03  0.7546771E-02  0.1060987E+00
         21   -1    0    0  503  502  0.00000000000E+00  0.00000000000E+00  0.41886015441E+03  0.41886015441E+03  0.00000000000E+00 0. -1.
         21   -1    0    0  501  503 -0.00000000000E+00 -0.00000000000E+00 -0.30452987133E+03  0.30452987133E+03  0.00000000000E+00 0.  1.
          6    1    1    2  501    0  0.30744361684E+03  0.29351624748E+02  0.10513185571E+03  0.36927605189E+03  0.17300000000E+03 0. -1.
         -6    1    1    2    0  502 -0.30744361684E+03 -0.29351624748E+02  0.91984273751E+01  0.35411397385E+03  0.17300000000E+03 0.  1.
<mgrwt>
<rscale>  2 0.35399449E+03</rscale>
<asrwt>0</asrwt>
<pdfrwt beam="1">  1       21 0.64440024E-01 0.35399449E+03</pdfrwt>
<pdfrwt beam="2">  1       21 0.46850749E-01 0.35399449E+03</pdfrwt>
<totfact> 0.89040187E+03</totfact>
</mgrwt>
</event>
<event>
 4    1  0.3901757E+000  0.1759377E+03  0.7546771E-02  0.1171793E+00
         21   -1    0    0  503  502  0.00000000000E+00  0.00000000000E+00  0.46520655715E+03  0.46520655715E+03  0.00000000000E+00 0. -1.
         21   -1    0    0  501  503 -0.00000000000E+00 -0.00000000000E+00 -0.11458557296E+03  0.11458557296E+03  0.00000000000E+00 0. -1.
          6    1    1    2  501    0 -0.31105747518E+02  0.75831681145E+01 -0.12409938585E+02  0.17637482401E+03  0.17300000000E+03 0. -1.
         -6    1    1    2    0  502  0.31105747518E+02 -0.75831681145E+01  0.36303092278E+03  0.40341730610E+03  0.17300000000E+03 0. -1.
<mgrwt>
<rscale>  2 0.17593769E+03</rscale>
<asrwt>0</asrwt>
<pdfrwt beam="1">  1       21 0.71570238E-01 0.17593769E+03</pdfrwt>
<pdfrwt beam="2">  1       21 0.17628550E-01 0.17593769E+03</pdfrwt>
<totfact> 0.51892130E+04</totfact>
</mgrwt>
</event>
<event>
 4    1  0.3901757E+000  0.1897300E+03  0.7546771E-02  0.1158705E+00
         21   -1    0    0  501  502  0.00000000000E+00  0.00000000000E+00  0.11139020245E+03  0.11139020245E+03  0.00000000000E+00 0. -1.
         21   -1    0    0  502  503 -0.00000000000E+00 -0.00000000000E+00 -0.38791047869E+03  0.38791047869E+03  0.00000000000E+00 0.  1.
          6    1    1    2  501    0 -0.63563959843E+02 -0.45034250297E+02 -0.36267283366E+02  0.19316515352E+03  0.17300000000E+03 0. -1.
         -6    1    1    2    0  503  0.63563959843E+02  0.45034250297E+02 -0.24025299287E+03  0.30613552762E+03  0.17300000000E+03 0.  1.
<mgrwt>
<rscale>  2 0.18972997E+03</rscale>
<asrwt>0</asrwt>
<pdfrwt beam="1">  1       21 0.17136954E-01 0.18972997E+03</pdfrwt>
<pdfrwt beam="2">  1       21 0.59678535E-01 0.18972997E+03</pdfrwt>
<totfact> 0.80674713E+04</totfact>
</mgrwt>
</event>
<event>
 4    1  0.3901757E+000  0.1744994E+03  0.7546771E-02  0.1173235E+00
         21   -1    0    0  503  502  0.00000000000E+00  0.00000000000E+00  0.38289540039E+03  0.38289540039E+03  0.00000000000E+00 0.  1.
         21   -1    0    0  501  503 -0.00000000000E+00 -0.00000000000E+00 -0.11127130026E+03  0.11127130026E+03  0.00000000000E+00 0.  1.
          6    1    1    2  501    0  0.21134116511E+02  0.86249482482E+01  0.26778757198E+03  0.31962513093E+03  0.17300000000E+03 0.  1.
         -6    1    1    2    0  502 -0.21134116511E+02 -0.86249482482E+01  0.38365281464E+01  0.17454156972E+03  0.17300000000E+03 0.  1.
<mgrwt>
<rscale>  2 0.17449940E+03</rscale>
<asrwt>0</asrwt>
<pdfrwt beam="1">  1       21 0.58906984E-01 0.17449940E+03</pdfrwt>
<pdfrwt beam="2">  1       21 0.17118662E-01 0.17449940E+03</pdfrwt>
<totfact> 0.83638858E+04</totfact>
</mgrwt>
</event>
<event>
 4    1  0.3901757E+000  0.1963758E+03  0.7546771E-02  0.1152833E+00
         21   -1    0    0  501  502  0.00000000000E+00  0.00000000000E+00  0.36407213828E+03  0.36407213828E+03  0.00000000000E+00 0. -1.
         21   -1    0    0  502  503 -0.00000000000E+00 -0.00000000000E+00 -0.24873594853E+03  0.24873594853E+03  0.00000000000E+00 0.  1.
          6    1    1    2  501    0 -0.19870556598E+02  0.90772388795E+02  0.28983997748E+03  0.35010095420E+03  0.17300000000E+03 0. -1.
         -6    1    1    2    0  503  0.19870556598E+02 -0.90772388795E+02 -0.17450378773E+03  0.26270713260E+03  0.17300000000E+03 0.  1.
<mgrwt>
<rscale>  2 0.19637583E+03</rscale>
<asrwt>0</asrwt>
<pdfrwt beam="1">  1       21 0.56011098E-01 0.19637583E+03</pdfrwt>
<pdfrwt beam="2">  1       21 0.38267069E-01 0.19637583E+03</pdfrwt>
<totfact> 0.19719411E+04</totfact>
</mgrwt>
</event>
<event>
 4    1  0.3901757E+000  0.1938007E+03  0.7546771E-02  0.1155077E+00
         21   -1    0    0  503  502  0.00000000000E+00  0.00000000000E+00  0.22619269273E+02  0.22619269273E+02  0.00000000000E+00 0. -1.
         21   -1    0    0  501  503 -0.00000000000E+00 -0.00000000000E+00 -0.16972899596E+04  0.16972899596E+04  0.00000000000E+00 0. -1.
          6    1    1    2  501    0  0.48335620788E+01 -0.87214325731E+02 -0.71068181729E+03  0.73663243708E+03  0.17300000000E+03 0. -1.
         -6    1    1    2    0  502 -0.48335620788E+01  0.87214325731E+02 -0.96398887305E+03  0.98327679180E+03  0.17300000000E+03 0. -1.
<mgrwt>
<rscale>  2 0.19380068E+03</rscale>
<asrwt>0</asrwt>
<pdfrwt beam="1">  1       21 0.34798869E-02 0.19380068E+03</pdfrwt>
<pdfrwt beam="2">  1       21 0.26112158E+00 0.19380068E+03</pdfrwt>
<totfact> 0.28280901E+04</totfact>
</mgrwt>
</event>
<event>
 4    1  0.3901757E+000  0.4443415E+03  0.7546771E-02  0.1029423E+00
         21   -1    0    0  503  502  0.00000000000E+00  0.00000000000E+00  0.14469225143E+04  0.14469225143E+04  0.00000000000E+00 0. -1.
         21   -1    0    0  501  503 -0.00000000000E+00 -0.00000000000E+00 -0.28325528594E+03  0.28325528594E+03  0.00000000000E+00 0. -1.
          6    1    1    2  501    0  0.84581232440E+02  0.40044527164E+03 -0.40947736770E+02  0.44622429070E+03  0.17300000000E+03 0. -1.
         -6    1    1    2    0  502 -0.84581232440E+02 -0.40044527164E+03  0.12046149652E+04  0.12839535096E+04  0.17300000000E+03 0. -1.
<mgrwt>
<rscale>  2 0.44434154E+03</rscale>
<asrwt>0</asrwt>
<pdfrwt beam="1">  1       21 0.22260346E+00 0.44434154E+03</pdfrwt>
<pdfrwt beam="2">  1       21 0.43577737E-01 0.44434154E+03</pdfrwt>
<totfact> 0.40083206E+02</totfact>
</mgrwt>
</event>
<event>
 4    1  0.3901757E+000  0.2180382E+03  0.7546771E-02  0.1135354E+00
         21   -1    0    0  503  502  0.00000000000E+00  0.00000000000E+00  0.18654307433E+02  0.18654307433E+02  0.00000000000E+00 0.  1.
         21   -1    0    0  501  503 -0.00000000000E+00 -0.00000000000E+00 -0.27742215100E+04  0.27742215100E+04  0.00000000000E+00 0.  1.
          6    1    1    2  501    0 -0.12905313844E+02 -0.13208001050E+03 -0.17761003538E+04  0.17894337493E+04  0.17300000000E+03 0.  1.
         -6    1    1    2    0  502  0.12905313844E+02  0.13208001050E+03 -0.97946684870E+03  0.10034420681E+04  0.17300000000E+03 0.  1.
<mgrwt>
<rscale>  2 0.21803825E+03</rscale>
<asrwt>0</asrwt>
<pdfrwt beam="1">  1       21 0.28698926E-02 0.21803825E+03</pdfrwt>
<pdfrwt beam="2">  1       21 0.42680344E+00 0.21803825E+03</pdfrwt>
<totfact> 0.38808027E+03</totfact>
</mgrwt>
</event>
<event>
 4    1  0.3901757E+000  0.2637573E+03  0.7546771E-02  0.1104907E+00
         21   -1    0    0  503  502  0.00000000000E+00  0.00000000000E+00  0.42207078637E+03  0.42207078637E+03  0.00000000000E+00 0. -1.
         21   -1    0    0  501  503 -0.00000000000E+00 -0.00000000000E+00 -0.38333364807E+03  0.38333364807E+03  0.00000000000E+00 0. -1.
          6    1    1    2  501    0 -0.86692043536E+02 -0.17922997917E+03 -0.28467069999E+03  0.38807899103E+03  0.17300000000E+03 0. -1.
         -6    1    1    2    0  502  0.86692043536E+02  0.17922997917E+03  0.32340783829E+03  0.41732544340E+03  0.17300000000E+03 0. -1.
<mgrwt>
<rscale>  2 0.26375727E+03</rscale>
<asrwt>0</asrwt>
<pdfrwt beam="1">  1       21 0.64933967E-01 0.26375727E+03</pdfrwt>
<pdfrwt beam="2">  1       21 0.58974407E-01 0.26375727E+03</pdfrwt>
<totfact> 0.56005176E+03</totfact>
</mgrwt>
</event>
<event>
 4    1  0.3901757E+000  0.1867076E+03  0.7546771E-02  0.1161465E+00
         21   -1    0    0  503  502  0.00000000000E+00  0.00000000000E+00  0.19585731341E+03  0.19585731341E+03  0.00000000000E+00 0. -1.
         21   -1    0    0  501  503 -0.00000000000E+00 -0.00000000000E+00 -0.22374623815E+03  0.22374623815E+03  0.00000000000E+00 0. -1.
          6    1    1    2  501    0 -0.33693016800E+02 -0.61607748224E+02  0.80936367298E+02  0.20349552716E+03  0.17300000000E+03 0. -1.
         -6    1    1    2    0  502  0.33693016800E+02  0.61607748224E+02 -0.10882529204E+03  0.21610802440E+03  0.17300000000E+03 0. -1.
<mgrwt>
<rscale>  2 0.18670762E+03</rscale>
<asrwt>0</asrwt>
<pdfrwt beam="1">  1       21 0.30131894E-01 0.18670762E+03</pdfrwt>
<pdfrwt beam="2">  1       21 0.34422498E-01 0.18670762E+03</pdfrwt>
<totfact> 0.86134007E+04</totfact>
</mgrwt>
</event>
<event>
 4    1  0.3901757E+000  0.1902885E+03  0.7546771E-02  0.1158201E+00
         21   -1    0    0  503  502  0.00000000000E+00  0.00000000000E+00  0.46029467947E+03  0.46029467947E+03  0.00000000000E+00 0. -1.
         21   -1    0    0  501  503 -0.00000000000E+00 -0.00000000000E+00 -0.33737071305E+03  0.33737071305E+03  0.00000000000E+00 0. -1.
          6    1    1    2  501    0 -0.81614960279E+01 -0.78829548501E+02 -0.28779004090E+03  0.34501132644E+03  0.17300000000E+03 0. -1.
         -6    1    1    2    0  502  0.81614960279E+01  0.78829548501E+02  0.41071400731E+03  0.45265406608E+03  0.17300000000E+03 0. -1.
<mgrwt>
<rscale>  2 0.19028849E+03</rscale>
<asrwt>0</asrwt>
<pdfrwt beam="1">  1       21 0.70814566E-01 0.19028849E+03</pdfrwt>
<pdfrwt beam="2">  1       21 0.51903187E-01 0.19028849E+03</pdfrwt>
<totfact> 0.63766869E+03</totfact>
</mgrwt>
</event>
<event>
 4    1  0.3901757E+000  0.1806453E+03  0.7546771E-02  0.1167180E+00
         21   -1    0    0  501  502  0.00000000000E+00  0.00000000000E+00  0.64425825099E+03  0.64425825099E+03  0.00000000000E+00 0.  1.
         21   -1    0    0  502  503 -0.00000000000E+00 -0.00000000000E+00 -0.51890643482E+02  0.51890643482E+02  0.00000000000E+00 0.  1.
          6    1    1    2  501    0  0.28270678919E+02 -0.43640485305E+02  0.34996960200E+03  0.39384190428E+03  0.17300000000E+03 0. -1.
         -6    1    1    2    0  503 -0.28270678919E+02  0.43640485305E+02  0.24239800551E+03  0.30230699019E+03  0.17300000000E+03 0. -1.
<mgrwt>
<rscale>  2 0.18064530E+03</rscale>
<asrwt>0</asrwt>
<pdfrwt beam="1">  1       21 0.99116648E-01 0.18064530E+03</pdfrwt>
<pdfrwt beam="2">  1       21 0.79831764E-02 0.18064530E+03</pdfrwt>
<totfact> 0.10147336E+05</totfact>
</mgrwt>
</event>
<event>
 4    1  0.3901757E+000  0.1814249E+03  0.7546771E-02  0.1166431E+00
         21   -1    0    0  501  502  0.00000000000E+00  0.00000000000E+00  0.41397461876E+02  0.41397461876E+02  0.00000000000E+00 0.  1.
         21   -1    0    0  502  503 -0.00000000000E+00 -0.00000000000E+00 -0.82438346655E+03  0.82438346655E+03  0.00000000000E+00 0.  1.
          6    1    1    2  501    0 -0.54608725849E+02 -0.19716292449E+01 -0.30990121996E+03  0.35910133165E+03  0.17300000000E+03 0.  1.
         -6    1    1    2    0  503  0.54608725849E+02  0.19716292449E+01 -0.47308478471E+03  0.50667959677E+03  0.17300000000E+03 0.  1.
<mgrwt>
<rscale>  2 0.18142492E+03</rscale>
<asrwt>0</asrwt>
<pdfrwt beam="1">  1       21 0.63688406E-02 0.18142492E+03</pdfrwt>
<pdfrwt beam="2">  1       21 0.12682822E+00 0.18142492E+03</pdfrwt>
<totfact> 0.82306259E+04</totfact>
</mgrwt>
</event>
<event>
 4    1  0.3901757E+000  0.1877356E+03  0.7546771E-02  0.1160520E+00
         21   -1    0    0  503  502  0.00000000000E+00  0.00000000000E+00  0.10782486801E+04  0.10782486801E+04  0.00000000000E+00 0.  1.
         21   -1    0    0  501  503 -0.00000000000E+00 -0.00000000000E+00 -0.48927466741E+02  0.48927466741E+02  0.00000000000E+00 0.  1.
          6    1    1    2  501    0  0.68269318161E+02  0.25591852518E+02  0.18995815072E+03  0.26707441237E+03  0.17300000000E+03 0.  1.
         -6    1    1    2    0  502 -0.68269318161E+02 -0.25591852518E+02  0.83936306264E+03  0.86010173448E+03  0.17300000000E+03 0.  1.
<mgrwt>
<rscale>  2 0.18773557E+03</rscale>
<asrwt>0</asrwt>
<pdfrwt beam="1">  1       21 0.16588439E+00 0.18773557E+03</pdfrwt>
<pdfrwt beam="2">  1       21 0.75273034E-02 0.18773557E+03</pdfrwt>
<totfact> 0.30538318E+04</totfact>
</mgrwt>
</event>
<event>
 4    1  0.3901757E+000  0.2344866E+03  0.7546771E-02  0.1123521E+00
         21   -1    0    0  501  502  0.00000000000E+00  0.00000000000E+00  0.11080525015E+03  0.11080525015E+03  0.00000000000E+00 0. -1.
         21   -1    0    0  502  503 -0.00000000000E+00 -0.00000000000E+00 -0.49623924603E+03  0.49623924603E+03  0.00000000000E+00 0.  1.
          6    1    1    2  501    0 -0.12209519085E+03  0.10073589545E+03 -0.19090599596E+03  0.30237237896E+03  0.17300000000E+03 0. -1.
         -6    1    1    2    0  503  0.12209519085E+03 -0.10073589545E+03 -0.19452799991E+03  0.30467211722E+03  0.17300000000E+03 0.  1.
<mgrwt>
<rscale>  2 0.23448658E+03</rscale>
<asrwt>0</asrwt>
<pdfrwt beam="1">  1       21 0.17046961E-01 0.23448658E+03</pdfrwt>
<pdfrwt beam="2">  1       21 0.76344500E-01 0.23448658E+03</pdfrwt>
<totfact> 0.46489807E+04</totfact>
</mgrwt>
</event>
<event>
 4    1  0.3901757E+000  0.2086408E+03  0.7546771E-02  0.1142647E+00
         21   -1    0    0  501  502  0.00000000000E+00  0.00000000000E+00  0.12259985688E+03  0.12259985688E+03  0.00000000000E+00 0. -1.
         21   -1    0    0  502  503 -0.00000000000E+00 -0.00000000000E+00 -0.17510280586E+04  0.17510280586E+04  0.00000000000E+00 0.  1.
          6    1    1    2  501    0 -0.11577483447E+03 -0.14077610012E+02  0.22242995577E+02  0.20982312135E+03  0.17300000000E+03 0. -1.
         -6    1    1    2    0  503  0.11577483447E+03  0.14077610012E+02 -0.16506711973E+04  0.16638047941E+04  0.17300000000E+03 0.  1.
<mgrwt>
<rscale>  2 0.20864082E+03</rscale>
<asrwt>0</asrwt>
<pdfrwt beam="1">  1       21 0.18861516E-01 0.20864082E+03</pdfrwt>
<pdfrwt beam="2">  1       21 0.26938894E+00 0.20864082E+03</pdfrwt>
<totfact> 0.12942445E+03</totfact>
</mgrwt>
</event>
<event>
 4    1  0.3901757E+000  0.5027282E+03  0.7546771E-02  0.1013069E+00
         21   -1    0    0  501  502  0.00000000000E+00  0.00000000000E+00  0.21637900827E+03  0.21637900827E+03  0.00000000000E+00 0.  1.
         21   -1    0    0  502  503 -0.00000000000E+00 -0.00000000000E+00 -0.15039785734E+04  0.15039785734E+04  0.00000000000E+00 0. -1.
          6    1    1    2  501    0 -0.37894714591E+03  0.28143503634E+03 -0.10503450858E+04  0.11644571346E+04  0.17300000000E+03 0. -1.
         -6    1    1    2    0  503  0.37894714591E+03 -0.28143503634E+03 -0.23725447930E+03  0.55590044704E+03  0.17300000000E+03 0.  1.
<mgrwt>
<rscale>  2 0.50272818E+03</rscale>
<asrwt>0</asrwt>
<pdfrwt beam="1">  1       21 0.33289077E-01 0.50272818E+03</pdfrwt>
<pdfrwt beam="2">  1       21 0.23138133E+00 0.50272818E+03</pdfrwt>
<totfact> 0.59515632E+02</totfact>
</mgrwt>
</event>
<event>
 4    1  0.3901757E+000  0.2027555E+03  0.7546771E-02  0.1147435E+00
         21   -1    0    0  501  502  0.00000000000E+00  0.00000000000E+00  0.24889578327E+03  0.24889578327E+03  0.00000000000E+00 0.  1.
         21   -1    0    0  502  503 -0.00000000000E+00 -0.00000000000E+00 -0.22134835562E+03  0.22134835562E+03  0.00000000000E+00 0.  1.
          6    1    1    2  501    0  0.38728153308E+02  0.98391654665E+02  0.13222638687E+03  0.24206115953E+03  0.17300000000E+03 0.  1.
         -6    1    1    2    0  503 -0.38728153308E+02 -0.98391654665E+02 -0.10467895922E+03  0.22818297936E+03  0.17300000000E+03 0.  1.
<mgrwt>
<rscale>  2 0.20275549E+03</rscale>
<asrwt>0</asrwt>
<pdfrwt beam="1">  1       21 0.38291659E-01 0.20275549E+03</pdfrwt>
<pdfrwt beam="2">  1       21 0.34053593E-01 0.20275549E+03</pdfrwt>
<totfact> 0.54382694E+04</totfact>
</mgrwt>
</event>
<event>
 4    1  0.3901757E+000  0.2277892E+03  0.7546771E-02  0.1128206E+00
         21   -1    0    0  501  502  0.00000000000E+00  0.00000000000E+00  0.85677932200E+03  0.85677932200E+03  0.00000000000E+00 0. -1.
         21   -1    0    0  502  503 -0.00000000000E+00 -0.00000000000E+00 -0.61767482832E+02  0.61767482832E+02  0.00000000000E+00 0. -1.
          6    1    1    2  501    0 -0.62694631939E+02  0.13426950481E+03  0.46167797613E+03  0.51481498661E+03  0.17300000000E+03 0. -1.
         -6    1    1    2    0  503  0.62694631939E+02 -0.13426950481E+03  0.33333386304E+03  0.40373181822E+03  0.17300000000E+03 0. -1.
<mgrwt>
<rscale>  2 0.22778919E+03</rscale>
<asrwt>0</asrwt>
<pdfrwt beam="1">  1       21 0.13181220E+00 0.22778919E+03</pdfrwt>
<pdfrwt beam="2">  1       21 0.95026903E-02 0.22778919E+03</pdfrwt>
<totfact> 0.36341236E+04</totfact>
</mgrwt>
</event>
<event>
 4    1  0.3901757E+000  0.1830135E+03  0.7546771E-02  0.1164918E+00
         21   -1    0    0  501  502  0.00000000000E+00  0.00000000000E+00  0.24414744555E+03  0.24414744555E+03  0.00000000000E+00 0.  1.
         21   -1    0    0  502  503 -0.00000000000E+00 -0.00000000000E+00 -0.36634786654E+03  0.36634786654E+03  0.00000000000E+00 0.  1.
          6    1    1    2  501    0  0.14627847510E+01 -0.59689315577E+02  0.18032095927E+03  0.25692333971E+03  0.17300000000E+03 0.  1.
         -6    1    1    2    0  503 -0.14627847510E+01  0.59689315577E+02 -0.30252138027E+03  0.35357197238E+03  0.17300000000E+03 0.  1.
<mgrwt>
<rscale>  2 0.18301354E+03</rscale>
<asrwt>0</asrwt>
<pdfrwt beam="1">  1       21 0.37561146E-01 0.18301354E+03</pdfrwt>
<pdfrwt beam="2">  1       21 0.56361210E-01 0.18301354E+03</pdfrwt>
<totfact> 0.20361278E+04</totfact>
</mgrwt>
</event>
<event>
 4    1  0.3901757E+000  0.2261345E+03  0.7546771E-02  0.1129390E+00
         21   -1    0    0  501  502  0.00000000000E+00  0.00000000000E+00  0.12954450697E+04  0.12954450697E+04  0.00000000000E+00 0. -1.
         21   -1    0    0  502  503 -0.00000000000E+00 -0.00000000000E+00 -0.68338574147E+02  0.68338574147E+02  0.00000000000E+00 0. -1.
          6    1    1    2  501    0 -0.12844562004E+03 -0.68625940215E+02  0.10567155293E+04  0.10806407853E+04  0.17300000000E+03 0. -1.
         -6    1    1    2    0  503  0.12844562004E+03  0.68625940215E+02  0.17039096630E+03  0.28314285860E+03  0.17300000000E+03 0. -1.
<mgrwt>
<rscale>  2 0.22613447E+03</rscale>
<asrwt>0</asrwt>
<pdfrwt beam="1">  1       21 0.19929922E+00 0.22613447E+03</pdfrwt>
<pdfrwt beam="2">  1       21 0.10513628E-01 0.22613447E+03</pdfrwt>
<totfact> 0.98085086E+03</totfact>
</mgrwt>
</event>
<event>
 4    1  0.3901757E+000  0.2090028E+03  0.7546771E-02  0.1142358E+00
         21   -1    0    0  503  502  0.00000000000E+00  0.00000000000E+00  0.22540692836E+03  0.22540692836E+03  0.00000000000E+00 0. -1.
         21   -1    0    0  501  503 -0.00000000000E+00 -0.00000000000E+00 -0.42165507158E+03  0.42165507158E+03  0.00000000000E+00 0. -1.
          6    1    1    2  501    0 -0.61958566507E+02  0.99570601431E+02 -0.33595796643E+03  0.39566390262E+03  0.17300000000E+03 0. -1.
         -6    1    1    2    0  502  0.61958566507E+02 -0.99570601431E+02  0.13970982321E+03  0.25139809732E+03  0.17300000000E+03 0. -1.
<mgrwt>
<rscale>  2 0.20900280E+03</rscale>
<asrwt>0</asrwt>
<pdfrwt beam="1">  1       21 0.34677989E-01 0.20900280E+03</pdfrwt>
<pdfrwt beam="2">  1       21 0.64870011E-01 0.20900280E+03</pdfrwt>
<totfact> 0.17369345E+04</totfact>
</mgrwt>
</event>
<event>
 4    1  0.3901757E+000  0.2122165E+03  0.7546771E-02  0.1139823E+00
         21   -1    0    0  503  502  0.00000000000E+00  0.00000000000E+00  0.63280587449E+03  0.63280587449E+03  0.00000000000E+00 0.  1.
         21   -1    0    0  501  503 -0.00000000000E+00 -0.00000000000E+00 -0.12299399544E+03  0.12299399544E+03  0.00000000000E+00 0.  1.
          6    1    1    2  501    0  0.98834165416E+02 -0.73065929929E+02  0.96007462367E+01  0.21243351124E+03  0.17300000000E+03 0.  1.
         -6    1    1    2    0  502 -0.98834165416E+02  0.73065929929E+02  0.50021113281E+03  0.54336635869E+03  0.17300000000E+03 0.  1.
<mgrwt>
<rscale>  2 0.21221645E+03</rscale>
<asrwt>0</asrwt>
<pdfrwt beam="1">  1       21 0.97354749E-01 0.21221645E+03</pdfrwt>
<pdfrwt beam="2">  1       21 0.18922153E-01 0.21221645E+03</pdfrwt>
<totfact> 0.22123294E+04</totfact>
</mgrwt>
</event>
<event>
 4    1  0.3901757E+000  0.2138195E+03  0.7546771E-02  0.1138577E+00
         21   -1    0    0  503  502  0.00000000000E+00  0.00000000000E+00  0.10637303735E+03  0.10637303735E+03  0.00000000000E+00 0.  1.
         21   -1    0    0  501  503 -0.00000000000E+00 -0.00000000000E+00 -0.11916931739E+04  0.11916931739E+04  0.00000000000E+00 0. -1.
          6    1    1    2  501    0  0.11906338620E+03 -0.40170495604E+02 -0.10616186093E+04  0.10829371313E+04  0.17300000000E+03 0. -1.
         -6    1    1    2    0  502 -0.11906338620E+03  0.40170495604E+02 -0.23701527224E+02  0.21512907996E+03  0.17300000000E+03 0.  1.
<mgrwt>
<rscale>  2 0.21381945E+03</rscale>
<asrwt>0</asrwt>
<pdfrwt beam="1">  1       21 0.16365083E-01 0.21381945E+03</pdfrwt>
<pdfrwt beam="2">  1       21 0.18333741E+00 0.21381945E+03</pdfrwt>
<totfact> 0.56755765E+03</totfact>
</mgrwt>
</event>
<event>
 4    1  0.3901757E+000  0.1965893E+03  0.7546771E-02  0.1152649E+00
         21   -1    0    0  503  502  0.00000000000E+00  0.00000000000E+00  0.24719629210E+02  0.24719629210E+02  0.00000000000E+00 0. -1.
         21   -1    0    0  501  503 -0.00000000000E+00 -0.00000000000E+00 -0.22310901225E+04  0.22310901225E+04  0.00000000000E+00 0. -1.
          6    1    1    2  501    0 -0.82495176517E+02 -0.43736511093E+02 -0.17201958128E+04  0.17313927835E+04  0.17300000000E+03 0. -1.
         -6    1    1    2    0  502  0.82495176517E+02  0.43736511093E+02 -0.48617468056E+03  0.52441696823E+03  0.17300000000E+03 0. -1.
<mgrwt>
<rscale>  2 0.19658926E+03</rscale>
<asrwt>0</asrwt>
<pdfrwt beam="1">  1       21 0.38030187E-02 0.19658926E+03</pdfrwt>
<pdfrwt beam="2">  1       21 0.34324474E+00 0.19658926E+03</pdfrwt>
<totfact> 0.81333847E+03</totfact>
</mgrwt>
</event>
<event>
 4    1  0.3901757E+000  0.1974336E+03  0.7546771E-02  0.1151923E+00
         21   -1    0    0  501  502  0.00000000000E+00  0.00000000000E+00  0.23679564138E+03  0.23679564138E+03  0.00000000000E+00 0. -1.
         21   -1    0    0  502  503 -0.00000000000E+00 -0.00000000000E+00 -0.23244395277E+03  0.23244395277E+03  0.00000000000E+00 0. -1.
          6    1    1    2  501    0 -0.48466396139E+01  0.95013346950E+02  0.12891601307E+03  0.23579517476E+03  0.17300000000E+03 0. -1.
         -6    1    1    2    0  503  0.48466396139E+01 -0.95013346950E+02 -0.12456432446E+03  0.23344441938E+03  0.17300000000E+03 0. -1.
<mgrwt>
<rscale>  2 0.19743360E+03</rscale>
<asrwt>0</asrwt>
<pdfrwt beam="1">  1       21 0.36430099E-01 0.19743360E+03</pdfrwt>
<pdfrwt beam="2">  1       21 0.35760608E-01 0.19743360E+03</pdfrwt>
<totfact> 0.54668320E+04</totfact>
</mgrwt>
</event>
<event>
 4    1  0.3901757E+000  0.1752479E+03  0.7546771E-02  0.1172483E+00
         21   -1    0    0  503  502  0.00000000000E+00  0.00000000000E+00  0.12041231708E+03  0.12041231708E+03  0.00000000000E+00 0.  1.
         21   -1    0    0  501  503 -0.00000000000E+00 -0.00000000000E+00 -0.67377362410E+03  0.67377362410E+03  0.00000000000E+00 0.  1.
          6    1    1    2  501    0 -0.21624437246E+02 -0.17754592836E+02 -0.58971788792E+03  0.61520649313E+03  0.17300000000E+03 0.  1.
         -6    1    1    2    0  502  0.21624437246E+02  0.17754592836E+02  0.36356580901E+02  0.17897944806E+03  0.17300000000E+03 0.  1.
<mgrwt>
<rscale>  2 0.17524794E+03</rscale>
<asrwt>0</asrwt>
<pdfrwt beam="1">  1       21 0.18524971E-01 0.17524794E+03</pdfrwt>
<pdfrwt beam="2">  1       21 0.10365748E+00 0.17524794E+03</pdfrwt>
<totfact> 0.20279066E+04</totfact>
</mgrwt>
</event>
<event>
 4    1  0.3901757E+000  0.2066289E+03  0.7546771E-02  0.1144264E+00
         21   -1    0    0  501  502  0.00000000000E+00  0.00000000000E+00  0.41012223442E+03  0.41012223442E+03  0.00000000000E+00 0. -1.
         21   -1    0    0  502  503 -0.00000000000E+00 -0.00000000000E+00 -0.15882955258E+03  0.15882955258E+03  0.00000000000E+00 0. -1.
          6    1    1    2  501    0 -0.84128444423E+02  0.75424965962E+02  0.29262977437E+03  0.35822856600E+03  0.17300000000E+03 0. -1.
         -6    1    1    2    0  503  0.84128444423E+02 -0.75424965962E+02 -0.41337092533E+02  0.21072322100E+03  0.17300000000E+03 0. -1.
<mgrwt>
<rscale>  2 0.20662894E+03</rscale>
<asrwt>0</asrwt>
<pdfrwt beam="1">  1       21 0.63095728E-01 0.20662894E+03</pdfrwt>
<pdfrwt beam="2">  1       21 0.24435316E-01 0.20662894E+03</pdfrwt>
<totfact> 0.36511182E+04</totfact>
</mgrwt>
</event>
<event>
 4    1  0.3901757E+000  0.2338495E+03  0.7546771E-02  0.1123959E+00
         21   -1    0    0  503  502  0.00000000000E+00  0.00000000000E+00  0.15762147141E+03  0.15762147141E+03  0.00000000000E+00 0. -1.
         21   -1    0    0  501  503 -0.00000000000E+00 -0.00000000000E+00 -0.38999217327E+03  0.38999217327E+03  0.00000000000E+00 0. -1.
          6    1    1    2  501    0  0.96291407294E+02  0.12443700286E+03 -0.20715588717E+03  0.31240864967E+03  0.17300000000E+03 0. -1.
         -6    1    1    2    0  502 -0.96291407294E+02 -0.12443700286E+03 -0.25214814688E+02  0.23520499501E+03  0.17300000000E+03 0. -1.
<mgrwt>
<rscale>  2 0.23384953E+03</rscale>
<asrwt>0</asrwt>
<pdfrwt beam="1">  1       21 0.24249458E-01 0.23384953E+03</pdfrwt>
<pdfrwt beam="2">  1       21 0.59998794E-01 0.23384953E+03</pdfrwt>
<totfact> 0.40773130E+04</totfact>
</mgrwt>
</event>
<event>
 4    1  0.3901757E+000  0.1824575E+03  0.7546771E-02  0.1165446E+00
         21   -1    0    0  501  502  0.00000000000E+00  0.00000000000E+00  0.13357155721E+03  0.13357155721E+03  0.00000000000E+00 0. -1.
         21   -1    0    0  502  503 -0.00000000000E+00 -0.00000000000E+00 -0.34289422780E+03  0.34289422780E+03  0.00000000000E+00 0. -1.
          6    1    1    2  501    0  0.56688272399E+02  0.12172725169E+02  0.19846427591E+02  0.18353369215E+03  0.17300000000E+03 0. -1.
         -6    1    1    2    0  503 -0.56688272399E+02 -0.12172725169E+02 -0.22916909819E+03  0.29293209286E+03  0.17300000000E+03 0. -1.
<mgrwt>
<rscale>  2 0.18245749E+03</rscale>
<asrwt>0</asrwt>
<pdfrwt beam="1">  1       21 0.20549471E-01 0.18245749E+03</pdfrwt>
<pdfrwt beam="2">  1       21 0.52752957E-01 0.18245749E+03</pdfrwt>
<totfact> 0.75052533E+04</totfact>
</mgrwt>
</event>
<event>
 4    1  0.3901757E+000  0.2056338E+03  0.7546771E-02  0.1145071E+00
         21   -1    0    0  503  502  0.00000000000E+00  0.00000000000E+00  0.44286252284E+03  0.44286252284E+03  0.00000000000E+00 0. -1.
         21   -1    0    0  501  503 -0.00000000000E+00 -0.00000000000E+00 -0.10262687741E+03  0.10262687741E+03  0.00000000000E+00 0.  1.
          6    1    1    2  501    0 -0.11020435241E+03  0.14535132766E+02  0.98151041791E+02  0.22785718417E+03  0.17300000000E+03 0.  1.
         -6    1    1    2    0  502  0.11020435241E+03 -0.14535132766E+02  0.24208460363E+03  0.31763221608E+03  0.17300000000E+03 0. -1.
<mgrwt>
<rscale>  2 0.20563382E+03</rscale>
<asrwt>0</asrwt>
<pdfrwt beam="1">  1       21 0.68132695E-01 0.20563382E+03</pdfrwt>
<pdfrwt beam="2">  1       21 0.15788751E-01 0.20563382E+03</pdfrwt>
<totfact> 0.69841819E+04</totfact>
</mgrwt>
</event>
<event>
 4    1  0.3901757E+000  0.1751677E+03  0.7546771E-02  0.1172563E+00
         21   -1    0    0  503  502  0.00000000000E+00  0.00000000000E+00  0.56064479602E+03  0.56064479602E+03  0.00000000000E+00 0.  1.
         21   -1    0    0  501  503 -0.00000000000E+00 -0.00000000000E+00 -0.55394130326E+02  0.55394130326E+02  0.00000000000E+00 0.  1.
          6    1    1    2  501    0 -0.97449748855E+01 -0.25685763206E+02  0.21888209877E+03  0.28034460246E+03  0.17300000000E+03 0.  1.
         -6    1    1    2    0  502  0.97449748855E+01  0.25685763206E+02  0.28636856692E+03  0.33569432388E+03  0.17300000000E+03 0.  1.
<mgrwt>
<rscale>  2 0.17516770E+03</rscale>
<asrwt>0</asrwt>
<pdfrwt beam="1">  1       21 0.86253041E-01 0.17516770E+03</pdfrwt>
<pdfrwt beam="2">  1       21 0.85221743E-02 0.17516770E+03</pdfrwt>
<totfact> 0.12534868E+05</totfact>
</mgrwt>
</event>
<event>
 4    1  0.3901757E+000  0.1883447E+03  0.7546771E-02  0.1159963E+00
         21   -1    0    0  503  502  0.00000000000E+00  0.00000000000E+00  0.10645553333E+03  0.10645553333E+03  0.00000000000E+00 0.  1.
         21   -1    0    0  501  503 -0.00000000000E+00 -0.00000000000E+00 -0.43941480570E+03  0.43941480570E+03  0.00000000000E+00 0.  1.
          6    1    1    2  501    0 -0.55415613144E+02 -0.49737532095E+02 -0.30065175574E+03  0.35477484480E+03  0.17300000000E+03 0.  1.
         -6    1    1    2    0  502  0.55415613144E+02  0.49737532095E+02 -0.32307516635E+02  0.19109549422E+03  0.17300000000E+03 0.  1.
<mgrwt>
<rscale>  2 0.18834466E+03</rscale>
<asrwt>0</asrwt>
<pdfrwt beam="1">  1       21 0.16377774E-01 0.18834466E+03</pdfrwt>
<pdfrwt beam="2">  1       21 0.67602277E-01 0.18834466E+03</pdfrwt>
<totfact> 0.66958619E+04</totfact>
</mgrwt>
</event>
<event>
 4    1  0.3901757E+000  0.1959131E+03  0.7546771E-02  0.1153234E+00
         21   -1    0    0  503  502  0.00000000000E+00  0.00000000000E+00  0.39741289754E+03  0.39741289754E+03  0.00000000000E+00 0. -1.
         21   -1    0    0  501  503 -0.00000000000E+00 -0.00000000000E+00 -0.31250148109E+03  0.31250148109E+03  0.00000000000E+00 0.  1.
          6    1    1    2  501    0 -0.65712468037E+02 -0.64302665832E+02 -0.25259611890E+03  0.31966663975E+03  0.17300000000E+03 0.  1.
         -6    1    1    2    0  502  0.65712468037E+02  0.64302665832E+02  0.33750753534E+03  0.39024773888E+03  0.17300000000E+03 0. -1.
<mgrwt>
<rscale>  2 0.19591315E+03</rscale>
<asrwt>0</asrwt>
<pdfrwt beam="1">  1       21 0.61140446E-01 0.19591315E+03</pdfrwt>
<pdfrwt beam="2">  1       21 0.48077151E-01 0.19591315E+03</pdfrwt>
<totfact> 0.10264446E+04</totfact>
</mgrwt>
</event>
<event>
 4    1  0.3901757E+000  0.1745920E+03  0.7546771E-02  0.1173142E+00
         21   -1    0    0  501  502  0.00000000000E+00  0.00000000000E+00  0.14990456025E+03  0.14990456025E+03  0.00000000000E+00 0. -1.
         21   -1    0    0  502  503 -0.00000000000E+00 -0.00000000000E+00 -0.35861271520E+03  0.35861271520E+03  0.00000000000E+00 0. -1.
          6    1    1    2  501    0 -0.21784438016E+02  0.88767153761E+01  0.62948763121E+02  0.18559338510E+03  0.17300000000E+03 0. -1.
         -6    1    1    2    0  503  0.21784438016E+02 -0.88767153761E+01 -0.27165691807E+03  0.32292389034E+03  0.17300000000E+03 0. -1.
<mgrwt>
<rscale>  2 0.17459198E+03</rscale>
<asrwt>0</asrwt>
<pdfrwt beam="1">  1       21 0.23062240E-01 0.17459198E+03</pdfrwt>
<pdfrwt beam="2">  1       21 0.55171187E-01 0.17459198E+03</pdfrwt>
<totfact> 0.55178407E+04</totfact>
</mgrwt>
</event>
<event>
 4    1  0.3901757E+000  0.2042242E+03  0.7546771E-02  0.1146223E+00
         21   -1    0    0  503  502  0.00000000000E+00  0.00000000000E+00  0.27587113655E+03  0.27587113655E+03  0.00000000000E+00 0.  1.
         21   -1    0    0  501  503 -0.00000000000E+00 -0.00000000000E+00 -0.15229869873E+03  0.15229869873E+03  0.00000000000E+00 0. -1.
          6    1    1    2  501    0  0.10708864522E+03 -0.17622192249E+02  0.43477289217E+02  0.20880084835E+03  0.17300000000E+03 0. -1.
         -6    1    1    2    0  502 -0.10708864522E+03  0.17622192249E+02  0.80095148605E+02  0.21936898693E+03  0.17300000000E+03 0.  1.
<mgrwt>
<rscale>  2 0.20422419E+03</rscale>
<asrwt>0</asrwt>
<pdfrwt beam="1">  1       21 0.42441713E-01 0.20422419E+03</pdfrwt>
<pdfrwt beam="2">  1       21 0.23430569E-01 0.20422419E+03</pdfrwt>
<totfact> 0.91087415E+04</totfact>
</mgrwt>
</event>
<event>
 4    1  0.3901757E+000  0.2094220E+03  0.7546771E-02  0.1142024E+00
         21   -1    0    0  503  502  0.00000000000E+00  0.00000000000E+00  0.17039665697E+03  0.17039665697E+03  0.00000000000E+00 0.  1.
         21   -1    0    0  501  503 -0.00000000000E+00 -0.00000000000E+00 -0.27598239036E+03  0.27598239036E+03  0.00000000000E+00 0. -1.
          6    1    1    2  501    0 -0.11185444390E+03  0.37645426322E+02 -0.11072981489E+03  0.23689382991E+03  0.17300000000E+03 0. -1.
         -6    1    1    2    0  502  0.11185444390E+03 -0.37645426322E+02  0.51440815011E+01  0.20948521742E+03  0.17300000000E+03 0. -1.
<mgrwt>
<rscale>  2 0.20942205E+03</rscale>
<asrwt>0</asrwt>
<pdfrwt beam="1">  1       21 0.26214870E-01 0.20942205E+03</pdfrwt>
<pdfrwt beam="2">  1       21 0.42458829E-01 0.20942205E+03</pdfrwt>
<totfact> 0.73279230E+04</totfact>
</mgrwt>
</event>
<event>
 4    1  0.3901757E+000  0.1878744E+03  0.7546771E-02  0.1160393E+00
         21   -1    0    0  501  502  0.00000000000E+00  0.00000000000E+00  0.11286515993E+04  0.11286515993E+04  0.00000000000E+00 0.  1.
         21   -1    0    0  502  503 -0.00000000000E+00 -0.00000000000E+00 -0.37142912818E+02  0.37142912818E+02  0.00000000000E+00 0.  1.
          6    1    1    2  501    0  0.42846521558E+02 -0.59430389230E+02  0.77746943290E+03  0.79984718207E+03  0.17300000000E+03 0.  1.
         -6    1    1    2    0  503 -0.42846521558E+02  0.59430389230E+02  0.31403925353E+03  0.36594733000E+03  0.17300000000E+03 0.  1.
<mgrwt>
<rscale>  2 0.18787441E+03</rscale>
<asrwt>0</asrwt>
<pdfrwt beam="1">  1       21 0.17363868E+00 0.18787441E+03</pdfrwt>
<pdfrwt beam="2">  1       21 0.57142951E-02 0.18787441E+03</pdfrwt>
<totfact> 0.43261835E+04</totfact>
</mgrwt>
</event>
<event>
 4    1  0.3901757E+000  0.1807587E+03  0.7546771E-02  0.1167071E+00
         21   -1    0    0  501  502  0.00000000000E+00  0.00000000000E+00  0.93872090705E+03  0.93872090705E+03  0.00000000000E+00 0. -1.
         21   -1    0    0  502  503 -0.00000000000E+00 -0.00000000000E+00 -0.67730828446E+02  0.67730828446E+02  0.00000000000E+00 0. -1.
          6    1    1    2  501    0 -0.29633697277E+02 -0.43203775978E+02  0.78634973369E+03  0.80685787221E+03  0.17300000000E+03 0. -1.
         -6    1    1    2    0  503  0.29633697277E+02  0.43203775978E+02  0.84640344908E+02  0.19959386328E+03  0.17300000000E+03 0. -1.
<mgrwt>
<rscale>  2 0.18075874E+03</rscale>
<asrwt>0</asrwt>
<pdfrwt beam="1">  1       21 0.14441859E+00 0.18075874E+03</pdfrwt>
<pdfrwt beam="2">  1       21 0.10420128E-01 0.18075874E+03</pdfrwt>
<totfact> 0.25095825E+04</totfact>
</mgrwt>
</event>
<event>
 4    1  0.3901757E+000  0.1765261E+03  0.7546771E-02  0.1171208E+00
         21   -1    0    0  503  502  0.00000000000E+00  0.00000000000E+00  0.48942786290E+02  0.48942786290E+02  0.00000000000E+00 0. -1.
         21   -1    0    0  501  503 -0.00000000000E+00 -0.00000000000E+00 -0.99849077281E+03  0.99849077281E+03  0.00000000000E+00 0. -1.
          6    1    1    2  501    0 -0.34671380217E+02  0.55084175276E+01 -0.79002640145E+03  0.80950797541E+03  0.17300000000E+03 0. -1.
         -6    1    1    2    0  502  0.34671380217E+02 -0.55084175276E+01 -0.15952158507E+03  0.23792558369E+03  0.17300000000E+03 0. -1.
<mgrwt>
<rscale>  2 0.17652605E+03</rscale>
<asrwt>0</asrwt>
<pdfrwt beam="1">  1       21 0.75296600E-02 0.17652605E+03</pdfrwt>
<pdfrwt beam="2">  1       21 0.15361395E+00 0.17652605E+03</pdfrwt>
<totfact> 0.37791184E+04</totfact>
</mgrwt>
</event>
<event>
 4    1  0.3901757E+000  0.1913331E+03  0.7546771E-02  0.1157264E+00
         21   -1    0    0  503  502  0.00000000000E+00  0.00000000000E+00  0.17702088766E+04  0.17702088766E+04  0.00000000000E+00 0. -1.
         21   -1    0    0  501  503 -0.00000000000E+00 -0.00000000000E+00 -0.27040927588E+02  0.27040927588E+02  0.00000000000E+00 0. -1.
          6    1    1    2  501    0 -0.12528647103E+01  0.81717615869E+02  0.43575128110E+03  0.47590704701E+03  0.17300000000E+03 0. -1.
         -6    1    1    2    0  502  0.12528647103E+01 -0.81717615869E+02  0.13074166680E+04  0.13213427572E+04  0.17300000000E+03 0. -1.
<mgrwt>
<rscale>  2 0.19133306E+03</rscale>
<asrwt>0</asrwt>
<pdfrwt beam="1">  1       21 0.27233974E+00 0.19133306E+03</pdfrwt>
<pdfrwt beam="2">  1       21 0.41601441E-02 0.19133306E+03</pdfrwt>
<totfact> 0.18099377E+04</totfact>
</mgrwt>
</event>
<event>
 4    1  0.3901757E+000  0.2080772E+03  0.7546771E-02  0.1143098E+00
         21   -1    0    0  501  502  0.00000000000E+00  0.00000000000E+00  0.13028400849E+03  0.13028400849E+03  0.00000000000E+00 0.  1.
         21   -1    0    0  502  503 -0.00000000000E+00 -0.00000000000E+00 -0.35173393680E+03  0.35173393680E+03  0.00000000000E+00 0. -1.
          6    1    1    2  501    0  0.92845641742E+02  0.68897155821E+02 -0.54104941410E+02  0.21499645568E+03  0.17300000000E+03 0.  1.
         -6    1    1    2    0  503 -0.92845641742E+02 -0.68897155821E+02 -0.16734498690E+03  0.26702148960E+03  0.17300000000E+03 0. -1.
<mgrwt>
<rscale>  2 0.20807722E+03</rscale>
<asrwt>0</asrwt>
<pdfrwt beam="1">  1       21 0.20043694E-01 0.20807722E+03</pdfrwt>
<pdfrwt beam="2">  1       21 0.54112912E-01 0.20807722E+03</pdfrwt>
<totfact> 0.73711366E+04</totfact>
</mgrwt>
</event>
<event>
 4    1  0.3901757E+000  0.1758040E+03  0.7546771E-02  0.1171927E+00
         21   -1    0    0  501  502  0.00000000000E+00  0.00000000000E+00  0.26797720528E+03  0.26797720528E+03  0.00000000000E+00 0. -1.
         21   -1    0    0  502  503 -0.00000000000E+00 -0.00000000000E+00 -0.75216420220E+03  0.75216420220E+03  0.00000000000E+00 0. -1.
          6    1    1    2  501    0 -0.31249481889E+02 -0.12357757610E+01  0.22724443247E+03  0.28731009266E+03  0.17300000000E+03 0. -1.
         -6    1    1    2    0  503  0.31249481889E+02  0.12357757610E+01 -0.71143142938E+03  0.73283131481E+03  0.17300000000E+03 0. -1.
<mgrwt>
<rscale>  2 0.17580403E+03</rscale>
<asrwt>0</asrwt>
<pdfrwt beam="1">  1       21 0.41227263E-01 0.17580403E+03</pdfrwt>
<pdfrwt beam="2">  1       21 0.11571757E+00 0.17580403E+03</pdfrwt>
<totfact> 0.33207895E+03</totfact>
</mgrwt>
</event>
<event>
 4    1  0.3901757E+000  0.2901686E+03  0.7546771E-02  0.1090261E+00
         21   -1    0    0  501  502  0.00000000000E+00  0.00000000000E+00  0.12400701362E+03  0.12400701362E+03  0.00000000000E+00 0. -1.
         21   -1    0    0  502  503 -0.00000000000E+00 -0.00000000000E+00 -0.68657677576E+03  0.68657677576E+03  0.00000000000E+00 0. -1.
          6    1    1    2  501    0  0.16244192551E+03 -0.16697741853E+03 -0.23864259425E+03  0.37569685286E+03  0.17300000000E+03 0. -1.
         -6    1    1    2    0  503 -0.16244192551E+03  0.16697741853E+03 -0.32392716789E+03  0.43488693652E+03  0.17300000000E+03 0. -1.
<mgrwt>
<rscale>  2 0.29016864E+03</rscale>
<asrwt>0</asrwt>
<pdfrwt beam="1">  1       21 0.19078002E-01 0.29016864E+03</pdfrwt>
<pdfrwt beam="2">  1       21 0.10562720E+00 0.29016864E+03</pdfrwt>
<totfact> 0.17226199E+04</totfact>
</mgrwt>
</event>
<event>
 4    1  0.3901757E+000  0.1881971E+03  0.7546771E-02  0.1160098E+00
         21   -1    0    0  501  502  0.00000000000E+00  0.00000000000E+00  0.56621483169E+03  0.56621483169E+03  0.00000000000E+00 0.  1.
         21   -1    0    0  502  503 -0.00000000000E+00 -0.00000000000E+00 -0.84175292136E+02  0.84175292136E+02  0.00000000000E+00 0.  1.
          6    1    1    2  501    0 -0.27273009593E+02 -0.68886363390E+02  0.40583889471E+03  0.44735149108E+03  0.17300000000E+03 0.  1.
         -6    1    1    2    0  503  0.27273009593E+02  0.68886363390E+02  0.76200644849E+02  0.20303863275E+03  0.17300000000E+03 0.  1.
<mgrwt>
<rscale>  2 0.18819710E+03</rscale>
<asrwt>0</asrwt>
<pdfrwt beam="1">  1       21 0.87109972E-01 0.18819710E+03</pdfrwt>
<pdfrwt beam="2">  1       21 0.12950045E-01 0.18819710E+03</pdfrwt>
<totfact> 0.58099499E+04</totfact>
</mgrwt>
</event>
<event>
 4    1  0.3901757E+000  0.1800775E+03  0.7546771E-02  0.1167728E+00
         21   -1    0    0  503  502  0.00000000000E+00  0.00000000000E+00  0.17205549111E+03  0.17205549111E+03  0.00000000000E+00 0. -1.
         21   -1    0    0  501  503 -0.00000000000E+00 -0.00000000000E+00 -0.27936063852E+03  0.27936063852E+03  0.00000000000E+00 0. -1.
          6    1    1    2  501    0 -0.41678813432E+02 -0.27600186676E+02 -0.18239324805E+03  0.25631073081E+03  0.17300000000E+03 0. -1.
         -6    1    1    2    0  502  0.41678813432E+02  0.27600186676E+02  0.75088100630E+02  0.19510539882E+03  0.17300000000E+03 0. -1.
<mgrwt>
<rscale>  2 0.18007747E+03</rscale>
<asrwt>0</asrwt>
<pdfrwt beam="1">  1       21 0.26470076E-01 0.18007747E+03</pdfrwt>
<pdfrwt beam="2">  1       21 0.42978560E-01 0.18007747E+03</pdfrwt>
<totfact> 0.71059939E+04</totfact>
</mgrwt>
</event>
<event>
 4    1  0.3901757E+000  0.2631866E+03  0.7546771E-02  0.1105244E+00
         21   -1    0    0  503  502  0.00000000000E+00  0.00000000000E+00  0.23442072697E+03  0.23442072697E+03  0.00000000000E+00 0.  1.
         21   -1    0    0  501  503 -0.00000000000E+00 -0.00000000000E+00 -0.63827406707E+03  0.63827406707E+03  0.00000000000E+00 0.  1.
          6    1    1    2  501    0 -0.16981232729E+03 -0.10247901958E+03 -0.52170128170E+03  0.58432816404E+03  0.17300000000E+03 0.  1.
         -6    1    1    2    0  502  0.16981232729E+03  0.10247901958E+03  0.11784794160E+03  0.28836663000E+03  0.17300000000E+03 0.  1.
<mgrwt>
<rscale>  2 0.26318658E+03</rscale>
<asrwt>0</asrwt>
<pdfrwt beam="1">  1       21 0.36064728E-01 0.26318658E+03</pdfrwt>
<pdfrwt beam="2">  1       21 0.98196010E-01 0.26318658E+03</pdfrwt>
<totfact> 0.60602876E+03</totfact>
</mgrwt>
</event>
<event>
 4    1  0.3901757E+000  0.1758264E+03  0.7546771E-02  0.1171904E+00
         21   -1    0    0  501  502  0.00000000000E+00  0.00000000000E+00  0.11578483069E+03  0.11578483069E+03  0.00000000000E+00 0. -1.
         21   -1    0    0  502  503 -0.00000000000E+00 -0.00000000000E+00 -0.27360917715E+03  0.27360917715E+03  0.00000000000E+00 0. -1.
          6    1    1    2  501    0 -0.19996505705E+02  0.24209018018E+02 -0.48659915532E+02  0.18243553429E+03  0.17300000000E+03 0. -1.
         -6    1    1    2    0  503  0.19996505705E+02 -0.24209018018E+02 -0.10916443093E+03  0.20695847355E+03  0.17300000000E+03 0. -1.
<mgrwt>
<rscale>  2 0.17582644E+03</rscale>
<asrwt>0</asrwt>
<pdfrwt beam="1">  1       21 0.17813051E-01 0.17582644E+03</pdfrwt>
<pdfrwt beam="2">  1       21 0.42093719E-01 0.17582644E+03</pdfrwt>
<totfact> 0.15630407E+05</totfact>
</mgrwt>
</event>
<event>
 4    1  0.3901757E+000  0.1755904E+03  0.7546771E-02  0.1172140E+00
         21   -1    0    0  503  502  0.00000000000E+00  0.00000000000E+00  0.81269462776E+02  0.81269462776E+02  0.00000000000E+00 0. -1.
         21   -1    0    0  501  503 -0.00000000000E+00 -0.00000000000E+00 -0.40262606426E+03  0.40262606426E+03  0.00000000000E+00 0. -1.
          6    1    1    2  501    0  0.15611503518E+02  0.25676063481E+02 -0.21881478677E+03  0.28055639395E+03  0.17300000000E+03 0.  1.
         -6    1    1    2    0  502 -0.15611503518E+02 -0.25676063481E+02 -0.10254181471E+03  0.20333913308E+03  0.17300000000E+03 0.  1.
<mgrwt>
<rscale>  2 0.17559037E+03</rscale>
<asrwt>0</asrwt>
<pdfrwt beam="1">  1       21 0.12502994E-01 0.17559037E+03</pdfrwt>
<pdfrwt beam="2">  1       21 0.61942471E-01 0.17559037E+03</pdfrwt>
<totfact> 0.13269530E+05</totfact>
</mgrwt>
</event>
<event>
 4    1  0.3901757E+000  0.1932782E+03  0.7546771E-02  0.1155537E+00
         21   -1    0    0  501  502  0.00000000000E+00  0.00000000000E+00  0.12708516285E+04  0.12708516285E+04  0.00000000000E+00 0. -1.
         21   -1    0    0  502  503 -0.00000000000E+00 -0.00000000000E+00 -0.33691441194E+02  0.33691441194E+02  0.00000000000E+00 0. -1.
          6    1    1    2  501    0 -0.37685628104E+02 -0.77506570099E+02  0.85151327893E+03  0.87317314386E+03  0.17300000000E+03 0. -1.
         -6    1    1    2    0  503  0.37685628104E+02  0.77506570099E+02  0.38564690843E+03  0.43136992588E+03  0.17300000000E+03 0. -1.
<mgrwt>
<rscale>  2 0.19327823E+03</rscale>
<asrwt>0</asrwt>
<pdfrwt beam="1">  1       21 0.19551560E+00 0.19327823E+03</pdfrwt>
<pdfrwt beam="2">  1       21 0.51832996E-02 0.19327823E+03</pdfrwt>
<totfact> 0.36305223E+04</totfact>
</mgrwt>
</event>
<event>
 4    1  0.3901757E+000  0.2562922E+03  0.7546771E-02  0.1109392E+00
         21   -1    0    0  503  502  0.00000000000E+00  0.00000000000E+00  0.20271640146E+03  0.20271640146E+03  0.00000000000E+00 0. -1.
         21   -1    0    0  501  503 -0.00000000000E+00 -0.00000000000E+00 -0.33139772144E+03  0.33139772144E+03  0.00000000000E+00 0. -1.
          6    1    1    2  501    0  0.41735586747E+02  0.18443111187E+03 -0.10416685194E+03  0.27665217742E+03  0.17300000000E+03 0. -1.
         -6    1    1    2    0  502 -0.41735586747E+02 -0.18443111187E+03 -0.24514468045E+02  0.25746194548E+03  0.17300000000E+03 0. -1.
<mgrwt>
<rscale>  2 0.25629220E+03</rscale>
<asrwt>0</asrwt>
<pdfrwt beam="1">  1       21 0.31187139E-01 0.25629220E+03</pdfrwt>
<pdfrwt beam="2">  1       21 0.50984265E-01 0.25629220E+03</pdfrwt>
<totfact> 0.35057921E+04</totfact>
</mgrwt>
</event>
<event>
 4    1  0.3901757E+000  0.2255759E+03  0.7546771E-02  0.1129793E+00
         21   -1    0    0  503  502  0.00000000000E+00  0.00000000000E+00  0.31284044809E+03  0.31284044809E+03  0.00000000000E+00 0.  1.
         21   -1    0    0  501  503 -0.00000000000E+00 -0.00000000000E+00 -0.29855982855E+03  0.29855982855E+03  0.00000000000E+00 0. -1.
          6    1    1    2  501    0 -0.26349005803E+02  0.14234196099E+03 -0.19911267780E+03  0.30088263896E+03  0.17300000000E+03 0. -1.
         -6    1    1    2    0  502  0.26349005803E+02 -0.14234196099E+03  0.21339329734E+03  0.31051763769E+03  0.17300000000E+03 0.  1.
<mgrwt>
<rscale>  2 0.22557594E+03</rscale>
<asrwt>0</asrwt>
<pdfrwt beam="1">  1       21 0.48129300E-01 0.22557594E+03</pdfrwt>
<pdfrwt beam="2">  1       21 0.45932281E-01 0.22557594E+03</pdfrwt>
<totfact> 0.18381280E+04</totfact>
</mgrwt>
</event>
<event>
 4    1  0.3901757E+000  0.1810884E+03  0.7546771E-02  0.1166754E+00
         21   -1    0    0  501  502  0.00000000000E+00  0.00000000000E+00  0.27236299274E+02  0.27236299274E+02  0.00000000000E+00 0. -1.
         21   -1    0    0  502  503 -0.00000000000E+00 -0.00000000000E+00 -0.13257131618E+04  0.13257131618E+04  0.00000000000E+00 0. -1.
          6    1    1    2  501    0 -0.37298301537E+02  0.38377587897E+02 -0.44428134975E+03  0.47976965336E+03  0.17300000000E+03 0. -1.
         -6    1    1    2    0  503  0.37298301537E+02 -0.38377587897E+02 -0.85419551277E+03  0.87317980771E+03  0.17300000000E+03 0. -1.
<mgrwt>
<rscale>  2 0.18108838E+03</rscale>
<asrwt>0</asrwt>
<pdfrwt beam="1">  1       21 0.41902001E-02 0.18108838E+03</pdfrwt>
<pdfrwt beam="2">  1       21 0.20395586E+00 0.18108838E+03</pdfrwt>
<totfact> 0.46278476E+04</totfact>
</mgrwt>
</event>
<event>
 4    1  0.3901757E+000  0.2573683E+03  0.7546771E-02  0.1108735E+00
         21   -1    0    0  503  502  0.00000000000E+00  0.00000000000E+00  0.52328116153E+03  0.52328116153E+03  0.00000000000E+00 0. -1.
         21   -1    0    0  501  503 -0.00000000000E+00 -0.00000000000E+00 -0.12661317429E+03  0.12661317429E+03  0.00000000000E+00 0.  1.
          6    1    1    2  501    0 -0.18782202340E+03  0.32130094883E+02  0.20335734275E+03  0.32801320754E+03  0.17300000000E+03 0. -1.
         -6    1    1    2    0  502  0.18782202340E+03 -0.32130094883E+02  0.19331064449E+03  0.32188112828E+03  0.17300000000E+03 0.  1.
<mgrwt>
<rscale>  2 0.25736833E+03</rscale>
<asrwt>0</asrwt>
<pdfrwt beam="1">  1       21 0.80504793E-01 0.25736833E+03</pdfrwt>
<pdfrwt beam="2">  1       21 0.19478950E-01 0.25736833E+03</pdfrwt>
<totfact> 0.31841702E+04</totfact>
</mgrwt>
</event>
<event>
 4    1  0.3901757E+000  0.1868593E+03  0.7546771E-02  0.1161325E+00
         21   -1    0    0  503  502  0.00000000000E+00  0.00000000000E+00  0.45604212524E+02  0.45604212524E+02  0.00000000000E+00 0. -1.
         21   -1    0    0  501  503 -0.00000000000E+00 -0.00000000000E+00 -0.79851584393E+03  0.79851584393E+03  0.00000000000E+00 0. -1.
          6    1    1    2  501    0 -0.62114991227E+02  0.33602269381E+02 -0.29081624577E+03  0.34567394094E+03  0.17300000000E+03 0. -1.
         -6    1    1    2    0  502  0.62114991227E+02 -0.33602269381E+02 -0.46209538564E+03  0.49844611551E+03  0.17300000000E+03 0. -1.
<mgrwt>
<rscale>  2 0.18685926E+03</rscale>
<asrwt>0</asrwt>
<pdfrwt beam="1">  1       21 0.70160337E-02 0.18685926E+03</pdfrwt>
<pdfrwt beam="2">  1       21 0.12284857E+00 0.18685926E+03</pdfrwt>
<totfact> 0.75262997E+04</totfact>
</mgrwt>
</event>
<event>
 4    1  0.3901757E+000  0.2094307E+03  0.7546771E-02  0.1142018E+00
         21   -1    0    0  501  502  0.00000000000E+00  0.00000000000E+00  0.17341480969E+04  0.17341480969E+04  0.00000000000E+00 0.  1.
         21   -1    0    0  502  503 -0.00000000000E+00 -0.00000000000E+00 -0.34487945012E+02  0.34487945012E+02  0.00000000000E+00 0. -1.
          6    1    1    2  501    0  0.72030750431E+02  0.93508234640E+02  0.13064526773E+04  0.13231325773E+04  0.17300000000E+03 0.  1.
         -6    1    1    2    0  503 -0.72030750431E+02 -0.93508234640E+02  0.39320747457E+03  0.44550346465E+03  0.17300000000E+03 0. -1.
<mgrwt>
<rscale>  2 0.20943070E+03</rscale>
<asrwt>0</asrwt>
<pdfrwt beam="1">  1       21 0.26679195E+00 0.20943070E+03</pdfrwt>
<pdfrwt beam="2">  1       21 0.53058390E-02 0.20943070E+03</pdfrwt>
<totfact> 0.12701678E+04</totfact>
</mgrwt>
</event>
<event>
 4    1  0.3901757E+000  0.2192673E+03  0.7546771E-02  0.1134431E+00
         21   -1    0    0  503  502  0.00000000000E+00  0.00000000000E+00  0.11573037197E+04  0.11573037197E+04  0.00000000000E+00 0.  1.
         21   -1    0    0  501  503 -0.00000000000E+00 -0.00000000000E+00 -0.44765439738E+02  0.44765439738E+02  0.00000000000E+00 0.  1.
          6    1    1    2  501    0 -0.13374607398E+03 -0.16159490213E+02  0.71752092746E+03  0.75027623098E+03  0.17300000000E+03 0.  1.
         -6    1    1    2    0  502  0.13374607398E+03  0.16159490213E+02  0.39501735253E+03  0.45179292849E+03  0.17300000000E+03 0.  1.
<mgrwt>
<rscale>  2 0.21926728E+03</rscale>
<asrwt>0</asrwt>
<pdfrwt beam="1">  1       21 0.17804670E+00 0.21926728E+03</pdfrwt>
<pdfrwt beam="2">  1       21 0.68869916E-02 0.21926728E+03</pdfrwt>
<totfact> 0.28686135E+04</totfact>
</mgrwt>
</event>
<event>
 4    1  0.3901757E+000  0.2007174E+03  0.7546771E-02  0.1149135E+00
         21   -1    0    0  503  502  0.00000000000E+00  0.00000000000E+00  0.18154713020E+03  0.18154713020E+03  0.00000000000E+00 0. -1.
         21   -1    0    0  501  503 -0.00000000000E+00 -0.00000000000E+00 -0.32809937966E+03  0.32809937966E+03  0.00000000000E+00 0. -1.
          6    1    1    2  501    0 -0.97781174224E+02  0.28236912574E+02 -0.21824436529E+03  0.29650983836E+03  0.17300000000E+03 0. -1.
         -6    1    1    2    0  502  0.97781174224E+02 -0.28236912574E+02  0.71692115825E+02  0.21313667149E+03  0.17300000000E+03 0. -1.
<mgrwt>
<rscale>  2 0.20071742E+03</rscale>
<asrwt>0</asrwt>
<pdfrwt beam="1">  1       21 0.27930328E-01 0.20071742E+03</pdfrwt>
<pdfrwt beam="2">  1       21 0.50476827E-01 0.20071742E+03</pdfrwt>
<totfact> 0.45549491E+04</totfact>
</mgrwt>
</event>
<event>
 4    1  0.3901757E+000  0.2934267E+03  0.7546771E-02  0.1088573E+00
         21   -1    0    0  501  502  0.00000000000E+00  0.00000000000E+00  0.15599869965E+03  0.15599869965E+03  0.00000000000E+00 0. -1.
         21   -1    0    0  502  503 -0.00000000000E+00 -0.00000000000E+00 -0.11859238085E+04  0.11859238085E+04  0.00000000000E+00 0. -1.
          6    1    1    2  501    0  0.72726175892E+02 -0.22556851244E+03 -0.24377857209E+02  0.29443765110E+03  0.17300000000E+03 0. -1.
         -6    1    1    2    0  503 -0.72726175892E+02  0.22556851244E+03 -0.10055472516E+04  0.10474848570E+04  0.17300000000E+03 0. -1.
<mgrwt>
<rscale>  2 0.29342674E+03</rscale>
<asrwt>0</asrwt>
<pdfrwt beam="1">  1       21 0.23999800E-01 0.29342674E+03</pdfrwt>
<pdfrwt beam="2">  1       21 0.18244982E+00 0.29342674E+03</pdfrwt>
<totfact> 0.26471421E+03</totfact>
</mgrwt>
</event>
<event>
 4    1  0.3901757E+000  0.1764770E+03  0.7546771E-02  0.1171257E+00
         21   -1    0    0  501  502  0.00000000000E+00  0.00000000000E+00  0.76203824761E+02  0.76203824761E+02  0.00000000000E+00 0. -1.
         21   -1    0    0  502  503 -0.00000000000E+00 -0.00000000000E+00 -0.53130685576E+03  0.53130685576E+03  0.00000000000E+00 0. -1.
          6    1    1    2  501    0 -0.15502592544E+02  0.31222048047E+02 -0.81630825226E+02  0.19444212066E+03  0.17300000000E+03 0. -1.
         -6    1    1    2    0  503  0.15502592544E+02 -0.31222048047E+02 -0.37347220578E+03  0.41306855986E+03  0.17300000000E+03 0. -1.
<mgrwt>
<rscale>  2 0.17647704E+03</rscale>
<asrwt>0</asrwt>
<pdfrwt beam="1">  1       21 0.11723665E-01 0.17647704E+03</pdfrwt>
<pdfrwt beam="2">  1       21 0.81739516E-01 0.17647704E+03</pdfrwt>
<totfact> 0.80693517E+04</totfact>
</mgrwt>
</event>
<event>
 4    1  0.3901757E+000  0.1789482E+03  0.7546771E-02  0.1168825E+00
         21   -1    0    0  503  502  0.00000000000E+00  0.00000000000E+00  0.55536919221E+03  0.55536919221E+03  0.00000000000E+00 0. -1.
         21   -1    0    0  501  503 -0.00000000000E+00 -0.00000000000E+00 -0.42857533036E+03  0.42857533036E+03  0.00000000000E+00 0. -1.
          6    1    1    2  501    0  0.18572324548E+02  0.41815560647E+02 -0.39428582072E+03  0.43299397313E+03  0.17300000000E+03 0. -1.
         -6    1    1    2    0  502 -0.18572324548E+02 -0.41815560647E+02  0.52107968256E+03  0.55095054944E+03  0.17300000000E+03 0. -1.
<mgrwt>
<rscale>  2 0.17894824E+03</rscale>
<asrwt>0</asrwt>
<pdfrwt beam="1">  1       21 0.85441414E-01 0.17894824E+03</pdfrwt>
<pdfrwt beam="2">  1       21 0.65934667E-01 0.17894824E+03</pdfrwt>
<totfact> 0.25326817E+03</totfact>
</mgrwt>
</event>
<event>
 4    1  0.3901757E+000  0.1818916E+03  0.7546771E-02  0.1165985E+00
         21   -1    0    0  503  502  0.00000000000E+00  0.00000000000E+00  0.29571833955E+03  0.29571833955E+03  0.00000000000E+00 0. -1.
         21   -1    0    0  501  503 -0.00000000000E+00 -0.00000000000E+00 -0.11365750096E+03  0.11365750096E+03  0.00000000000E+00 0. -1.
          6    1    1    2  501    0 -0.29621652946E+02 -0.47729701781E+02  0.65423124055E+02  0.19329964283E+03  0.17300000000E+03 0. -1.
         -6    1    1    2    0  502  0.29621652946E+02  0.47729701781E+02  0.11663771453E+03  0.21607619769E+03  0.17300000000E+03 0. -1.
<mgrwt>
<rscale>  2 0.18189163E+03</rscale>
<asrwt>0</asrwt>
<pdfrwt beam="1">  1       21 0.45495129E-01 0.18189163E+03</pdfrwt>
<pdfrwt beam="2">  1       21 0.17485769E-01 0.18189163E+03</pdfrwt>
<totfact> 0.13772875E+05</totfact>
</mgrwt>
</event>
<event>
 4    1  0.3901757E+000  0.2859385E+03  0.7546771E-02  0.1092489E+00
         21   -1    0    0  503  502  0.00000000000E+00  0.00000000000E+00  0.45423615366E+03  0.45423615366E+03  0.00000000000E+00 0.  1.
         21   -1    0    0  501  503 -0.00000000000E+00 -0.00000000000E+00 -0.77857353262E+03  0.77857353262E+03  0.00000000000E+00 0.  1.
          6    1    1    2  501    0  0.20949675455E+03  0.89123169507E+02 -0.70264457208E+03  0.75859753769E+03  0.17300000000E+03 0.  1.
         -6    1    1    2    0  502 -0.20949675455E+03 -0.89123169507E+02  0.37830719312E+03  0.47421214860E+03  0.17300000000E+03 0.  1.
<mgrwt>
<rscale>  2 0.28593851E+03</rscale>
<asrwt>0</asrwt>
<pdfrwt beam="1">  1       21 0.69882486E-01 0.28593851E+03</pdfrwt>
<pdfrwt beam="2">  1       21 0.11978054E+00 0.28593851E+03</pdfrwt>
<totfact> 0.91137538E+02</totfact>
</mgrwt>
</event>
<event>
 4    1  0.3901757E+000  0.2328253E+03  0.7546771E-02  0.1124667E+00
         21   -1    0    0  501  502  0.00000000000E+00  0.00000000000E+00  0.90972441472E+03  0.90972441472E+03  0.00000000000E+00 0.  1.
         21   -1    0    0  502  503 -0.00000000000E+00 -0.00000000000E+00 -0.24655851795E+03  0.24655851795E+03  0.00000000000E+00 0. -1.
          6    1    1    2  501    0 -0.10603528182E+03  0.11417144940E+03  0.83503953835E+03  0.86689020727E+03  0.17300000000E+03 0.  1.
         -6    1    1    2    0  503  0.10603528182E+03 -0.11417144940E+03 -0.17187364158E+03  0.28939272541E+03  0.17300000000E+03 0. -1.
<mgrwt>
<rscale>  2 0.23282526E+03</rscale>
<asrwt>0</asrwt>
<pdfrwt beam="1">  1       21 0.13995760E+00 0.23282526E+03</pdfrwt>
<pdfrwt beam="2">  1       21 0.37932080E-01 0.23282526E+03</pdfrwt>
<totfact> 0.23182740E+03</totfact>
</mgrwt>
</event>
<event>
 4    1  0.3901757E+000  0.2479798E+03  0.7546771E-02  0.1114588E+00
         21   -1    0    0  501  502  0.00000000000E+00  0.00000000000E+00  0.70179884305E+03  0.70179884305E+03  0.00000000000E+00 0. -1.
         21   -1    0    0  502  503 -0.00000000000E+00 -0.00000000000E+00 -0.10153318657E+03  0.10153318657E+03  0.00000000000E+00 0. -1.
          6    1    1    2  501    0  0.14665738433E+03  0.10028255249E+03  0.44880230139E+03  0.51275479954E+03  0.17300000000E+03 0. -1.
         -6    1    1    2    0  503 -0.14665738433E+03 -0.10028255249E+03  0.15146335509E+03  0.29057723009E+03  0.17300000000E+03 0. -1.
<mgrwt>
<rscale>  2 0.24797979E+03</rscale>
<asrwt>0</asrwt>
<pdfrwt beam="1">  1       21 0.10796905E+00 0.24797979E+03</pdfrwt>
<pdfrwt beam="2">  1       21 0.15620491E-01 0.24797979E+03</pdfrwt>
<totfact> 0.24141483E+04</totfact>
</mgrwt>
</event>
<event>
 4    1  0.3901757E+000  0.4076175E+03  0.7546771E-02  0.1041173E+00
         21   -1    0    0  501  502  0.00000000000E+00  0.00000000000E+00  0.22693059914E+03  0.22693059914E+03  0.00000000000E+00 0.  1.
         21   -1    0    0  502  503 -0.00000000000E+00 -0.00000000000E+00 -0.12616232169E+04  0.12616232169E+04  0.00000000000E+00 0. -1.
          6    1    1    2  501    0 -0.25626783586E+03  0.26561220832E+03 -0.35195374903E+02  0.40913416299E+03  0.17300000000E+03 0.  1.
         -6    1    1    2    0  503  0.25626783586E+03 -0.26561220832E+03 -0.99949724291E+03  0.10794196531E+04  0.17300000000E+03 0. -1.
<mgrwt>
<rscale>  2 0.40761753E+03</rscale>
<asrwt>0</asrwt>
<pdfrwt beam="1">  1       21 0.34912400E-01 0.40761753E+03</pdfrwt>
<pdfrwt beam="2">  1       21 0.19409588E+00 0.40761753E+03</pdfrwt>
<totfact> 0.98846040E+02</totfact>
</mgrwt>
</event>
<event>
 4    1  0.3901757E+000  0.1960317E+03  0.7546771E-02  0.1153131E+00
         21   -1    0    0  501  502  0.00000000000E+00  0.00000000000E+00  0.19586392439E+03  0.19586392439E+03  0.00000000000E+00 0. -1.
         21   -1    0    0  502  503 -0.00000000000E+00 -0.00000000000E+00 -0.76452242885E+03  0.76452242885E+03  0.00000000000E+00 0. -1.
          6    1    1    2  501    0 -0.91184730492E+02  0.13593065770E+02  0.12968797671E+03  0.23504765010E+03  0.17300000000E+03 0. -1.
         -6    1    1    2    0  503  0.91184730492E+02 -0.13593065770E+02 -0.69834648117E+03  0.72533870314E+03  0.17300000000E+03 0. -1.
<mgrwt>
<rscale>  2 0.19603170E+03</rscale>
<asrwt>0</asrwt>
<pdfrwt beam="1">  1       21 0.30132912E-01 0.19603170E+03</pdfrwt>
<pdfrwt beam="2">  1       21 0.11761883E+00 0.19603170E+03</pdfrwt>
<totfact> 0.58467069E+03</totfact>
</mgrwt>
</event>
<event>
 4    1  0.3901757E+000  0.2133770E+03  0.7546771E-02  0.1138919E+00
         21   -1    0    0  501  502  0.00000000000E+00  0.00000000000E+00  0.11007869813E+04  0.11007869813E+04  0.00000000000E+00 0. -1.
         21   -1    0    0  502  503 -0.00000000000E+00 -0.00000000000E+00 -0.43690449869E+02  0.43690449869E+02  0.00000000000E+00 0. -1.
          6    1    1    2  501    0 -0.11837128353E+03  0.39862149612E+02  0.66067846082E+03  0.69428076477E+03  0.17300000000E+03 0. -1.
         -6    1    1    2    0  503  0.11837128353E+03 -0.39862149612E+02  0.39641807065E+03  0.45019666644E+03  0.17300000000E+03 0. -1.
<mgrwt>
<rscale>  2 0.21337702E+03</rscale>
<asrwt>0</asrwt>
<pdfrwt beam="1">  1       21 0.16935182E+00 0.21337702E+03</pdfrwt>
<pdfrwt beam="2">  1       21 0.67216085E-02 0.21337702E+03</pdfrwt>
<totfact> 0.34530480E+04</totfact>
</mgrwt>
</event>
<event>
 4    1  0.3901757E+000  0.2105390E+03  0.7546771E-02  0.1141140E+00
         21   -1    0    0  503  502  0.00000000000E+00  0.00000000000E+00  0.53731086270E+03  0.53731086270E+03  0.00000000000E+00 0. -1.
         21   -1    0    0  501  503 -0.00000000000E+00 -0.00000000000E+00 -0.15632967145E+03  0.15632967145E+03  0.00000000000E+00 0.  1.
          6    1    1    2  501    0 -0.59113587620E+02  0.10441857856E+03 -0.47855140314E+02  0.21590917128E+03  0.17300000000E+03 0.  1.
         -6    1    1    2    0  502  0.59113587620E+02 -0.10441857856E+03  0.42883633156E+03  0.47773136286E+03  0.17300000000E+03 0. -1.
<mgrwt>
<rscale>  2 0.21053897E+03</rscale>
<asrwt>0</asrwt>
<pdfrwt beam="1">  1       21 0.82663209E-01 0.21053897E+03</pdfrwt>
<pdfrwt beam="2">  1       21 0.24050719E-01 0.21053897E+03</pdfrwt>
<totfact> 0.20599747E+04</totfact>
</mgrwt>
</event>
<event>
 4    1  0.3901757E+000  0.2625131E+03  0.7546771E-02  0.1105643E+00
         21   -1    0    0  501  502  0.00000000000E+00  0.00000000000E+00  0.23105204336E+04  0.23105204336E+04  0.00000000000E+00 0.  1.
         21   -1    0    0  502  503 -0.00000000000E+00 -0.00000000000E+00 -0.60842241614E+02  0.60842241614E+02  0.00000000000E+00 0.  1.
          6    1    1    2  501    0  0.18334920475E+03  0.73261200100E+02  0.19714060749E+04  0.19888074433E+04  0.17300000000E+03 0.  1.
         -6    1    1    2    0  503 -0.18334920475E+03 -0.73261200100E+02  0.27827211707E+03  0.38255523191E+03  0.17300000000E+03 0.  1.
<mgrwt>
<rscale>  2 0.26251311E+03</rscale>
<asrwt>0</asrwt>
<pdfrwt beam="1">  1       21 0.35546461E+00 0.26251311E+03</pdfrwt>
<pdfrwt beam="2">  1       21 0.93603467E-02 0.26251311E+03</pdfrwt>
<totfact> 0.13589204E+03</totfact>
</mgrwt>
</event>
<event>
 4    1  0.3901757E+000  0.2056019E+03  0.7546771E-02  0.1145097E+00
         21   -1    0    0  501  502  0.00000000000E+00  0.00000000000E+00  0.68869442794E+02  0.68869442794E+02  0.00000000000E+00 0.  1.
         21   -1    0    0  502  503 -0.00000000000E+00 -0.00000000000E+00 -0.61385183243E+03  0.61385183243E+03  0.00000000000E+00 0. -1.
          6    1    1    2  501    0  0.10316530772E+02  0.11061967300E+03 -0.26938927461E+03  0.33888452921E+03  0.17300000000E+03 0.  1.
         -6    1    1    2    0  503 -0.10316530772E+02 -0.11061967300E+03 -0.27559311503E+03  0.34383674602E+03  0.17300000000E+03 0. -1.
<mgrwt>
<rscale>  2 0.20560190E+03</rscale>
<asrwt>0</asrwt>
<pdfrwt beam="1">  1       21 0.10595299E-01 0.20560190E+03</pdfrwt>
<pdfrwt beam="2">  1       21 0.94438747E-01 0.20560190E+03</pdfrwt>
<totfact> 0.68383968E+04</totfact>
</mgrwt>
</event>
<event>
 4    1  0.3901757E+000  0.1743473E+03  0.7546771E-02  0.1173389E+00
         21   -1    0    0  503  502  0.00000000000E+00  0.00000000000E+00  0.77085424698E+02  0.77085424698E+02  0.00000000000E+00 0. -1.
         21   -1    0    0  501  503 -0.00000000000E+00 -0.00000000000E+00 -0.71705034128E+03  0.71705034128E+03  0.00000000000E+00 0. -1.
          6    1    1    2  501    0  0.93731958316E+00  0.21612653217E+02 -0.58636396357E+03  0.61173497785E+03  0.17300000000E+03 0. -1.
         -6    1    1    2    0  502 -0.93731958316E+00 -0.21612653217E+02 -0.53600953011E+02  0.18240078813E+03  0.17300000000E+03 0. -1.
<mgrwt>
<rscale>  2 0.17434731E+03</rscale>
<asrwt>0</asrwt>
<pdfrwt beam="1">  1       21 0.11859296E-01 0.17434731E+03</pdfrwt>
<pdfrwt beam="2">  1       21 0.11031544E+00 0.17434731E+03</pdfrwt>
<totfact> 0.39263381E+04</totfact>
</mgrwt>
</event>
<event>
 4    1  0.3901757E+000  0.1898711E+03  0.7546771E-02  0.1158578E+00
         21   -1    0    0  501  502  0.00000000000E+00  0.00000000000E+00  0.19487660158E+04  0.19487660158E+04  0.00000000000E+00 0.  1.
         21   -1    0    0  502  503 -0.00000000000E+00 -0.00000000000E+00 -0.30735851074E+02  0.30735851074E+02  0.00000000000E+00 0.  1.
          6    1    1    2  501    0  0.84625148909E+01  0.77784387562E+02  0.33451740524E+03  0.38464648642E+03  0.17300000000E+03 0.  1.
         -6    1    1    2    0  503 -0.84625148909E+01 -0.77784387562E+02  0.15835127594E+04  0.15948553804E+04  0.17300000000E+03 0.  1.
<mgrwt>
<rscale>  2 0.18987107E+03</rscale>
<asrwt>0</asrwt>
<pdfrwt beam="1">  1       21 0.29981006E+00 0.18987107E+03</pdfrwt>
<pdfrwt beam="2">  1       21 0.47285940E-02 0.18987107E+03</pdfrwt>
<totfact> 0.10148032E+04</totfact>
</mgrwt>
</event>
<event>
 4    1  0.3901757E+000  0.2106558E+03  0.7546771E-02  0.1141048E+00
         21   -1    0    0  501  502  0.00000000000E+00  0.00000000000E+00  0.42306622066E+03  0.42306622066E+03  0.00000000000E+00 0.  1.
         21   -1    0    0  502  503 -0.00000000000E+00 -0.00000000000E+00 -0.10553158921E+03  0.10553158921E+03  0.00000000000E+00 0. -1.
          6    1    1    2  501    0 -0.71503282766E+02 -0.96613336953E+02  0.17935843787E+03  0.27666822289E+03  0.17300000000E+03 0. -1.
         -6    1    1    2    0  503  0.71503282766E+02  0.96613336953E+02  0.13817619358E+03  0.25192958698E+03  0.17300000000E+03 0.  1.
<mgrwt>
<rscale>  2 0.21065578E+03</rscale>
<asrwt>0</asrwt>
<pdfrwt beam="1">  1       21 0.65087110E-01 0.21065578E+03</pdfrwt>
<pdfrwt beam="2">  1       21 0.16235629E-01 0.21065578E+03</pdfrwt>
<totfact> 0.73185459E+04</totfact>
</mgrwt>
</event>
<event>
 4    1  0.3901757E+000  0.1735214E+03  0.7546771E-02  0.1174225E+00
         21   -1    0    0  501  502  0.00000000000E+00  0.00000000000E+00  0.87491996568E+03  0.87491996568E+03  0.00000000000E+00 0.  1.
         21   -1    0    0  502  503 -0.00000000000E+00 -0.00000000000E+00 -0.54853140141E+02  0.54853140141E+02  0.00000000000E+00 0.  1.
          6    1    1    2  501    0 -0.84432399733E+01 -0.10459412886E+02  0.69380912163E+03  0.71517884817E+03  0.17300000000E+03 0.  1.
         -6    1    1    2    0  503  0.84432399733E+01  0.10459412886E+02  0.12625770391E+03  0.21459425765E+03  0.17300000000E+03 0.  1.
<mgrwt>
<rscale>  2 0.17352143E+03</rscale>
<asrwt>0</asrwt>
<pdfrwt beam="1">  1       21 0.13460306E+00 0.17352143E+03</pdfrwt>
<pdfrwt beam="2">  1       21 0.84389453E-02 0.17352143E+03</pdfrwt>
<totfact> 0.43740547E+04</totfact>
</mgrwt>
</event>
<event>
 4    1  0.3901757E+000  0.2122163E+03  0.7546771E-02  0.1139823E+00
         21   -1    0    0  503  502  0.00000000000E+00  0.00000000000E+00  0.23914409179E+03  0.23914409179E+03  0.00000000000E+00 0. -1.
         21   -1    0    0  501  503 -0.00000000000E+00 -0.00000000000E+00 -0.20251441437E+03  0.20251441437E+03  0.00000000000E+00 0. -1.
          6    1    1    2  501    0  0.27428558643E+02 -0.11981005843E+03 -0.40147623387E+02  0.21598057226E+03  0.17300000000E+03 0. -1.
         -6    1    1    2    0  502 -0.27428558643E+02  0.11981005843E+03  0.76777300805E+02  0.22567793390E+03  0.17300000000E+03 0. -1.
<mgrwt>
<rscale>  2 0.21221634E+03</rscale>
<asrwt>0</asrwt>
<pdfrwt beam="1">  1       21 0.36791399E-01 0.21221634E+03</pdfrwt>
<pdfrwt beam="2">  1       21 0.31156064E-01 0.21221634E+03</pdfrwt>
<totfact> 0.69914256E+04</totfact>
</mgrwt>
</event>
<event>
 4    1  0.3901757E+000  0.1916538E+03  0.7546771E-02  0.1156978E+00
         21   -1    0    0  501  502  0.00000000000E+00  0.00000000000E+00  0.34457599036E+03  0.34457599036E+03  0.00000000000E+00 0. -1.
         21   -1    0    0  502  503 -0.00000000000E+00 -0.00000000000E+00 -0.38411979879E+03  0.38411979879E+03  0.00000000000E+00 0. -1.
          6    1    1    2  501    0  0.18719148681E+02  0.80322888587E+02  0.28992105296E+03  0.34754192540E+03  0.17300000000E+03 0. -1.
         -6    1    1    2    0  503 -0.18719148681E+02 -0.80322888587E+02 -0.32946486139E+03  0.38115386375E+03  0.17300000000E+03 0. -1.
<mgrwt>
<rscale>  2 0.19165378E+03</rscale>
<asrwt>0</asrwt>
<pdfrwt beam="1">  1       21 0.53011691E-01 0.19165378E+03</pdfrwt>
<pdfrwt beam="2">  1       21 0.59095354E-01 0.19165378E+03</pdfrwt>
<totfact> 0.90312783E+03</totfact>
</mgrwt>
</event>
<event>
 4    1  0.3901757E+000  0.2171835E+03  0.7546771E-02  0.1136000E+00
         21   -1    0    0  503  502  0.00000000000E+00  0.00000000000E+00  0.33124481080E+02  0.33124481080E+02  0.00000000000E+00 0.  1.
         21   -1    0    0  501  503 -0.00000000000E+00 -0.00000000000E+00 -0.14260538921E+04  0.14260538921E+04  0.00000000000E+00 0. -1.
          6    1    1    2  501    0 -0.13122259607E+03  0.45066313261E+01 -0.72427129331E+03  0.75613331216E+03  0.17300000000E+03 0.  1.
         -6    1    1    2    0  502  0.13122259607E+03 -0.45066313261E+01 -0.66865811773E+03  0.70304506104E+03  0.17300000000E+03 0. -1.
<mgrwt>
<rscale>  2 0.21718352E+03</rscale>
<asrwt>0</asrwt>
<pdfrwt beam="1">  1       21 0.50960742E-02 0.21718352E+03</pdfrwt>
<pdfrwt beam="2">  1       21 0.21939290E+00 0.21718352E+03</pdfrwt>
<totfact> 0.25946079E+04</totfact>
</mgrwt>
</event>
<event>
 4    1  0.3901757E+000  0.2531309E+03  0.7546771E-02  0.1111342E+00
         21   -1    0    0  501  502  0.00000000000E+00  0.00000000000E+00  0.16423898145E+03  0.16423898145E+03  0.00000000000E+00 0.  1.
         21   -1    0    0  502  503 -0.00000000000E+00 -0.00000000000E+00 -0.39443752997E+03  0.39443752997E+03  0.00000000000E+00 0. -1.
          6    1    1    2  501    0  0.16942942461E+03  0.73755769393E+02 -0.14427647911E+03  0.29136050842E+03  0.17300000000E+03 0.  1.
         -6    1    1    2    0  503 -0.16942942461E+03 -0.73755769393E+02 -0.85922069406E+02  0.26731600299E+03  0.17300000000E+03 0. -1.
<mgrwt>
<rscale>  2 0.25313088E+03</rscale>
<asrwt>0</asrwt>
<pdfrwt beam="1">  1       21 0.25267536E-01 0.25313088E+03</pdfrwt>
<pdfrwt beam="2">  1       21 0.60682696E-01 0.25313088E+03</pdfrwt>
<totfact> 0.36464478E+04</totfact>
</mgrwt>
</event>
<event>
 4    1  0.3901757E+000  0.2068591E+03  0.7546771E-02  0.1144078E+00
         21   -1    0    0  503  502  0.00000000000E+00  0.00000000000E+00  0.30431524304E+03  0.30431524304E+03  0.00000000000E+00 0.  1.
         21   -1    0    0  501  503 -0.00000000000E+00 -0.00000000000E+00 -0.14666030605E+03  0.14666030605E+03  0.00000000000E+00 0. -1.
          6    1    1    2  501    0 -0.11183809730E+03  0.18812677452E+02  0.12461507774E+03  0.24149450189E+03  0.17300000000E+03 0.  1.
         -6    1    1    2    0  502  0.11183809730E+03 -0.18812677452E+02  0.33039859245E+02  0.20948104721E+03  0.17300000000E+03 0. -1.
<mgrwt>
<rscale>  2 0.20685907E+03</rscale>
<asrwt>0</asrwt>
<pdfrwt beam="1">  1       21 0.46817730E-01 0.20685907E+03</pdfrwt>
<pdfrwt beam="2">  1       21 0.22563124E-01 0.20685907E+03</pdfrwt>
<totfact> 0.79890999E+04</totfact>
</mgrwt>
</event>
<event>
 4    1  0.3901757E+000  0.1790857E+03  0.7546771E-02  0.1168691E+00
         21   -1    0    0  503  502  0.00000000000E+00  0.00000000000E+00  0.34425065547E+03  0.34425065547E+03  0.00000000000E+00 0. -1.
         21   -1    0    0  501  503 -0.00000000000E+00 -0.00000000000E+00 -0.10217186437E+03  0.10217186437E+03  0.00000000000E+00 0.  1.
          6    1    1    2  501    0  0.46191390000E+02 -0.30091270805E+01  0.54761887613E+02  0.18727136378E+03  0.17300000000E+03 0.  1.
         -6    1    1    2    0  502 -0.46191390000E+02  0.30091270805E+01  0.18731690349E+03  0.25915115606E+03  0.17300000000E+03 0. -1.
<mgrwt>
<rscale>  2 0.17908573E+03</rscale>
<asrwt>0</asrwt>
<pdfrwt beam="1">  1       21 0.52961639E-01 0.17908573E+03</pdfrwt>
<pdfrwt beam="2">  1       21 0.15718749E-01 0.17908573E+03</pdfrwt>
<totfact> 0.12224776E+05</totfact>
</mgrwt>
</event>
<event>
 4    1  0.3901757E+000  0.2018779E+03  0.7546771E-02  0.1148164E+00
         21   -1    0    0  501  502  0.00000000000E+00  0.00000000000E+00  0.13629607377E+03  0.13629607377E+03  0.00000000000E+00 0. -1.
         21   -1    0    0  502  503 -0.00000000000E+00 -0.00000000000E+00 -0.39108278684E+03  0.39108278684E+03  0.00000000000E+00 0. -1.
          6    1    1    2  501    0 -0.10280141198E+03 -0.16048769317E+02 -0.25533446174E+03  0.32550020070E+03  0.17300000000E+03 0. -1.
         -6    1    1    2    0  503  0.10280141198E+03  0.16048769317E+02  0.54774866779E+00  0.20187865992E+03  0.17300000000E+03 0. -1.
<mgrwt>
<rscale>  2 0.20187792E+03</rscale>
<asrwt>0</asrwt>
<pdfrwt beam="1">  1       21 0.20968626E-01 0.20187792E+03</pdfrwt>
<pdfrwt beam="2">  1       21 0.60166583E-01 0.20187792E+03</pdfrwt>
<totfact> 0.54178293E+04</totfact>
</mgrwt>
</event>
<event>
 4    1  0.3901757E+000  0.2172661E+03  0.7546771E-02  0.1135938E+00
         21   -1    0    0  503  502  0.00000000000E+00  0.00000000000E+00  0.21674430620E+03  0.21674430620E+03  0.00000000000E+00 0. -1.
         21   -1    0    0  501  503 -0.00000000000E+00 -0.00000000000E+00 -0.23588706561E+03  0.23588706561E+03  0.00000000000E+00 0. -1.
          6    1    1    2  501    0 -0.39533816561E+02 -0.12534997104E+03 -0.72258453313E+02  0.22896685779E+03  0.17300000000E+03 0. -1.
         -6    1    1    2    0  502  0.39533816561E+02  0.12534997104E+03  0.53115693908E+02  0.22366451402E+03  0.17300000000E+03 0. -1.
<mgrwt>
<rscale>  2 0.21726605E+03</rscale>
<asrwt>0</asrwt>
<pdfrwt beam="1">  1       21 0.33345278E-01 0.21726605E+03</pdfrwt>
<pdfrwt beam="2">  1       21 0.36290318E-01 0.21726605E+03</pdfrwt>
<totfact> 0.62723963E+04</totfact>
</mgrwt>
</event>
<event>
 4    1  0.3901757E+000  0.2422089E+03  0.7546771E-02  0.1118330E+00
         21   -1    0    0  501  502  0.00000000000E+00  0.00000000000E+00  0.22273556443E+03  0.22273556443E+03  0.00000000000E+00 0.  1.
         21   -1    0    0  502  503 -0.00000000000E+00 -0.00000000000E+00 -0.28145078696E+03  0.28145078696E+03  0.00000000000E+00 0.  1.
          6    1    1    2  501    0  0.35378669339E+02  0.16578449778E+03  0.34511571187E+02  0.24465526459E+03  0.17300000000E+03 0.  1.
         -6    1    1    2    0  503 -0.35378669339E+02 -0.16578449778E+03 -0.93226793718E+02  0.25953108680E+03  0.17300000000E+03 0.  1.
<mgrwt>
<rscale>  2 0.24220890E+03</rscale>
<asrwt>0</asrwt>
<pdfrwt beam="1">  1       21 0.34267010E-01 0.24220890E+03</pdfrwt>
<pdfrwt beam="2">  1       21 0.43300121E-01 0.24220890E+03</pdfrwt>
<totfact> 0.41104074E+04</totfact>
</mgrwt>
</event>
<event>
 4    1  0.3901757E+000  0.1851745E+03  0.7546771E-02  0.1162887E+00
         21   -1    0    0  503  502  0.00000000000E+00  0.00000000000E+00  0.39801503027E+03  0.39801503027E+03  0.00000000000E+00 0. -1.
         21   -1    0    0  501  503 -0.00000000000E+00 -0.00000000000E+00 -0.12472726981E+03  0.12472726981E+03  0.00000000000E+00 0.  1.
          6    1    1    2  501    0 -0.28094297594E+02 -0.59760367354E+02  0.28200031192E+03  0.33736296030E+03  0.17300000000E+03 0. -1.
         -6    1    1    2    0  502  0.28094297594E+02  0.59760367354E+02 -0.87125514509E+01  0.18537933978E+03  0.17300000000E+03 0.  1.
<mgrwt>
<rscale>  2 0.18517449E+03</rscale>
<asrwt>0</asrwt>
<pdfrwt beam="1">  1       21 0.61233081E-01 0.18517449E+03</pdfrwt>
<pdfrwt beam="2">  1       21 0.19188811E-01 0.18517449E+03</pdfrwt>
<totfact> 0.62052065E+04</totfact>
</mgrwt>
</event>
<event>
 4    1  0.3901757E+000  0.1869536E+03  0.7546771E-02  0.1161238E+00
         21   -1    0    0  503  502  0.00000000000E+00  0.00000000000E+00  0.12832317474E+03  0.12832317474E+03  0.00000000000E+00 0.  1.
         21   -1    0    0  501  503 -0.00000000000E+00 -0.00000000000E+00 -0.34787892594E+03  0.34787892594E+03  0.00000000000E+00 0.  1.
          6    1    1    2  501    0  0.12685821612E+01  0.70859375431E+02 -0.22070562026E+03  0.28924493289E+03  0.17300000000E+03 0.  1.
         -6    1    1    2    0  502 -0.12685821612E+01 -0.70859375431E+02  0.11498690633E+01  0.18695716778E+03  0.17300000000E+03 0.  1.
<mgrwt>
<rscale>  2 0.18695363E+03</rscale>
<asrwt>0</asrwt>
<pdfrwt beam="1">  1       21 0.19742027E-01 0.18695363E+03</pdfrwt>
<pdfrwt beam="2">  1       21 0.53519834E-01 0.18695363E+03</pdfrwt>
<totfact> 0.78322949E+04</totfact>
</mgrwt>
</event>
<event>
 4    1  0.3901757E+000  0.2049904E+03  0.7546771E-02  0.1145596E+00
         21   -1    0    0  501  502  0.00000000000E+00  0.00000000000E+00  0.12065341285E+03  0.12065341285E+03  0.00000000000E+00 0.  1.
         21   -1    0    0  502  503 -0.00000000000E+00 -0.00000000000E+00 -0.36124187030E+03  0.36124187030E+03  0.00000000000E+00 0.  1.
          6    1    1    2  501    0  0.35446219571E+02  0.10409436738E+03 -0.16593691494E+03  0.26373496458E+03  0.17300000000E+03 0.  1.
         -6    1    1    2    0  503 -0.35446219571E+02 -0.10409436738E+03 -0.74651542513E+02  0.21816031858E+03  0.17300000000E+03 0.  1.
<mgrwt>
<rscale>  2 0.20499042E+03</rscale>
<asrwt>0</asrwt>
<pdfrwt beam="1">  1       21 0.18562063E-01 0.20499042E+03</pdfrwt>
<pdfrwt beam="2">  1       21 0.55575673E-01 0.20499042E+03</pdfrwt>
<totfact> 0.80492842E+04</totfact>
</mgrwt>
</event>
<event>
 4    1  0.3901757E+000  0.2381903E+03  0.7546771E-02  0.1121004E+00
         21   -1    0    0  501  502  0.00000000000E+00  0.00000000000E+00  0.11041027577E+04  0.11041027577E+04  0.00000000000E+00 0.  1.
         21   -1    0    0  502  503 -0.00000000000E+00 -0.00000000000E+00 -0.56637907601E+02  0.56637907601E+02  0.00000000000E+00 0.  1.
          6    1    1    2  501    0  0.10726551654E+03  0.12369199179E+03  0.70047493306E+03  0.73986467122E+03  0.17300000000E+03 0.  1.
         -6    1    1    2    0  503 -0.10726551654E+03 -0.12369199179E+03  0.34698991707E+03  0.42087599412E+03  0.17300000000E+03 0.  1.
<mgrwt>
<rscale>  2 0.23819026E+03</rscale>
<asrwt>0</asrwt>
<pdfrwt beam="1">  1       21 0.16986195E+00 0.23819026E+03</pdfrwt>
<pdfrwt beam="2">  1       21 0.87135251E-02 0.23819026E+03</pdfrwt>
<totfact> 0.21464947E+04</totfact>
</mgrwt>
</event>
<event>
 4    1  0.3901757E+000  0.1910795E+03  0.7546771E-02  0.1157491E+00
         21   -1    0    0  503  502  0.00000000000E+00  0.00000000000E+00  0.10050119758E+03  0.10050119758E+03  0.00000000000E+00 0.  1.
         21   -1    0    0  501  503 -0.00000000000E+00 -0.00000000000E+00 -0.37928722040E+03  0.37928722040E+03  0.00000000000E+00 0.  1.
          6    1    1    2  501    0  0.31996549544E+02 -0.74556103360E+02 -0.90130582038E+02  0.21126976487E+03  0.17300000000E+03 0. -1.
         -6    1    1    2    0  502 -0.31996549544E+02  0.74556103360E+02 -0.18865544078E+03  0.26851865310E+03  0.17300000000E+03 0. -1.
<mgrwt>
<rscale>  2 0.19107954E+03</rscale>
<asrwt>0</asrwt>
<pdfrwt beam="1">  1       21 0.15461722E-01 0.19107954E+03</pdfrwt>
<pdfrwt beam="2">  1       21 0.58351881E-01 0.19107954E+03</pdfrwt>
<totfact> 0.10216126E+05</totfact>
</mgrwt>
</event>
<event>
 4    1  0.3901757E+000  0.1766345E+03  0.7546771E-02  0.1171100E+00
         21   -1    0    0  503  502  0.00000000000E+00  0.00000000000E+00  0.56516653660E+02  0.56516653660E+02  0.00000000000E+00 0.  1.
         21   -1    0    0  501  503 -0.00000000000E+00 -0.00000000000E+00 -0.65118487198E+03  0.65118487198E+03  0.00000000000E+00 0.  1.
          6    1    1    2  501    0 -0.22039053035E+02  0.28018579247E+02 -0.43540152915E+03  0.46986620673E+03  0.17300000000E+03 0.  1.
         -6    1    1    2    0  502  0.22039053035E+02 -0.28018579247E+02 -0.15926668917E+03  0.23783531891E+03  0.17300000000E+03 0.  1.
<mgrwt>
<rscale>  2 0.17663454E+03</rscale>
<asrwt>0</asrwt>
<pdfrwt beam="1">  1       21 0.86948697E-02 0.17663454E+03</pdfrwt>
<pdfrwt beam="2">  1       21 0.10018229E+00 0.17663454E+03</pdfrwt>
<totfact> 0.85413344E+04</totfact>
</mgrwt>
</event>
<event>
 4    1  0.3901757E+000  0.2718892E+03  0.7546771E-02  0.1100203E+00
         21   -1    0    0  501  502  0.00000000000E+00  0.00000000000E+00  0.26530028465E+03  0.26530028465E+03  0.00000000000E+00 0. -1.
         21   -1    0    0  502  503 -0.00000000000E+00 -0.00000000000E+00 -0.48476093875E+03  0.48476093875E+03  0.00000000000E+00 0. -1.
          6    1    1    2  501    0 -0.89419525529E+02 -0.18973369386E+03 -0.35427722553E+03  0.44658266722E+03  0.17300000000E+03 0. -1.
         -6    1    1    2    0  503  0.89419525529E+02  0.18973369386E+03  0.13481657143E+03  0.30347855618E+03  0.17300000000E+03 0. -1.
<mgrwt>
<rscale>  2 0.27188918E+03</rscale>
<asrwt>0</asrwt>
<pdfrwt beam="1">  1       21 0.40815429E-01 0.27188918E+03</pdfrwt>
<pdfrwt beam="2">  1       21 0.74578605E-01 0.27188918E+03</pdfrwt>
<totfact> 0.88706776E+03</totfact>
</mgrwt>
</event>
<event>
 4    1  0.3901757E+000  0.1830382E+03  0.7546771E-02  0.1164895E+00
         21   -1    0    0  501  502  0.00000000000E+00  0.00000000000E+00  0.69909370331E+02  0.69909370331E+02  0.00000000000E+00 0.  1.
         21   -1    0    0  502  503 -0.00000000000E+00 -0.00000000000E+00 -0.59656666033E+03  0.59656666033E+03  0.00000000000E+00 0. -1.
          6    1    1    2  501    0  0.12471573907E+02 -0.58467508712E+02 -0.11554261514E+03  0.21645573599E+03  0.17300000000E+03 0.  1.
         -6    1    1    2    0  503 -0.12471573907E+02  0.58467508712E+02 -0.41111467486E+03  0.45002029467E+03  0.17300000000E+03 0. -1.
<mgrwt>
<rscale>  2 0.18303822E+03</rscale>
<asrwt>0</asrwt>
<pdfrwt beam="1">  1       21 0.10755288E-01 0.18303822E+03</pdfrwt>
<pdfrwt beam="2">  1       21 0.91779486E-01 0.18303822E+03</pdfrwt>
<totfact> 0.71915718E+04</totfact>
</mgrwt>
</event>
<event>
 4    1  0.3901757E+000  0.2324125E+03  0.7546771E-02  0.1124953E+00
         21   -1    0    0  501  502  0.00000000000E+00  0.00000000000E+00  0.20927935374E+04  0.20927935374E+04  0.00000000000E+00 0.  1.
         21   -1    0    0  502  503 -0.00000000000E+00 -0.00000000000E+00 -0.26263005374E+02  0.26263005374E+02  0.00000000000E+00 0. -1.
          6    1    1    2  501    0  0.10275886063E+02 -0.15485794641E+03  0.11723757936E+04  0.11951906036E+04  0.17300000000E+03 0.  1.
         -6    1    1    2    0  503 -0.10275886063E+02  0.15485794641E+03  0.89415473841E+03  0.92386593921E+03  0.17300000000E+03 0. -1.
<mgrwt>
<rscale>  2 0.23241252E+03</rscale>
<asrwt>0</asrwt>
<pdfrwt beam="1">  1       21 0.32196811E+00 0.23241252E+03</pdfrwt>
<pdfrwt beam="2">  1       21 0.40404640E-02 0.23241252E+03</pdfrwt>
<totfact> 0.94205366E+03</totfact>
</mgrwt>
</event>
<event>
 4    1  0.3901757E+000  0.2341676E+03  0.7546771E-02  0.1123740E+00
         21   -1    0    0  503  502  0.00000000000E+00  0.00000000000E+00  0.11421903526E+03  0.11421903526E+03  0.00000000000E+00 0.  1.
         21   -1    0    0  501  503 -0.00000000000E+00 -0.00000000000E+00 -0.16601034777E+04  0.16601034777E+04  0.00000000000E+00 0.  1.
          6    1    1    2  501    0  0.12862070024E+03  0.91444905206E+02 -0.15209050586E+04  0.15388263880E+04  0.17300000000E+03 0.  1.
         -6    1    1    2    0  502 -0.12862070024E+03 -0.91444905206E+02 -0.24979383793E+02  0.23549612488E+03  0.17300000000E+03 0.  1.
<mgrwt>
<rscale>  2 0.23416758E+03</rscale>
<asrwt>0</asrwt>
<pdfrwt beam="1">  1       21 0.17572160E-01 0.23416758E+03</pdfrwt>
<pdfrwt beam="2">  1       21 0.25540052E+00 0.23416758E+03</pdfrwt>
<totfact> 0.17343192E+03</totfact>
</mgrwt>
</event>
<event>
 4    1  0.3901757E+000  0.1911439E+03  0.7546771E-02  0.1157434E+00
         21   -1    0    0  501  502  0.00000000000E+00  0.00000000000E+00  0.16427797095E+04  0.16427797095E+04  0.00000000000E+00 0.  1.
         21   -1    0    0  502  503 -0.00000000000E+00 -0.00000000000E+00 -0.28219819435E+02  0.28219819435E+02  0.00000000000E+00 0.  1.
          6    1    1    2  501    0 -0.74124145193E+02  0.33355502531E+02  0.11918725447E+04  0.12071023740E+04  0.17300000000E+03 0.  1.
         -6    1    1    2    0  503  0.74124145193E+02 -0.33355502531E+02  0.42268734539E+03  0.46389715498E+03  0.17300000000E+03 0.  1.
<mgrwt>
<rscale>  2 0.19114387E+03</rscale>
<asrwt>0</asrwt>
<pdfrwt beam="1">  1       21 0.25273527E+00 0.19114387E+03</pdfrwt>
<pdfrwt beam="2">  1       21 0.43415120E-02 0.19114387E+03</pdfrwt>
<totfact> 0.21909484E+04</totfact>
</mgrwt>
</event>
<event>
 4    1  0.3901757E+000  0.2068642E+03  0.7546771E-02  0.1144074E+00
         21   -1    0    0  501  502  0.00000000000E+00  0.00000000000E+00  0.24881953628E+03  0.24881953628E+03  0.00000000000E+00 0.  1.
         21   -1    0    0  502  503 -0.00000000000E+00 -0.00000000000E+00 -0.19406926105E+03  0.19406926105E+03  0.00000000000E+00 0.  1.
          6    1    1    2  501    0 -0.61970208458E+02 -0.94992005473E+02  0.10207936019E+03  0.23067939573E+03  0.17300000000E+03 0.  1.
         -6    1    1    2    0  503  0.61970208458E+02  0.94992005473E+02 -0.47329084957E+02  0.21220940159E+03  0.17300000000E+03 0.  1.
<mgrwt>
<rscale>  2 0.20686418E+03</rscale>
<asrwt>0</asrwt>
<pdfrwt beam="1">  1       21 0.38279929E-01 0.20686418E+03</pdfrwt>
<pdfrwt beam="2">  1       21 0.29856809E-01 0.20686418E+03</pdfrwt>
<totfact> 0.70339985E+04</totfact>
</mgrwt>
</event>
<event>
 4    1  0.3901757E+000  0.1945603E+03  0.7546771E-02  0.1154411E+00
         21   -1    0    0  501  502  0.00000000000E+00  0.00000000000E+00  0.71230596730E+02  0.71230596730E+02  0.00000000000E+00 0. -1.
         21   -1    0    0  502  503 -0.00000000000E+00 -0.00000000000E+00 -0.11174337490E+04  0.11174337490E+04  0.00000000000E+00 0. -1.
          6    1    1    2  501    0  0.88907742114E+02  0.44878326205E+01 -0.92703461605E+02  0.21551718967E+03  0.17300000000E+03 0.  1.
         -6    1    1    2    0  503 -0.88907742114E+02 -0.44878326205E+01 -0.95349969065E+03  0.97314715604E+03  0.17300000000E+03 0.  1.
<mgrwt>
<rscale>  2 0.19456034E+03</rscale>
<asrwt>0</asrwt>
<pdfrwt beam="1">  1       21 0.10958553E-01 0.19456034E+03</pdfrwt>
<pdfrwt beam="2">  1       21 0.17191288E+00 0.19456034E+03</pdfrwt>
<totfact> 0.14254850E+04</totfact>
</mgrwt>
</event>
<event>
 4    1  0.3901757E+000  0.2530377E+03  0.7546771E-02  0.1111400E+00
         21   -1    0    0  503  502  0.00000000000E+00  0.00000000000E+00  0.70699593715E+02  0.70699593715E+02  0.00000000000E+00 0. -1.
         21   -1    0    0  501  503 -0.00000000000E+00 -0.00000000000E+00 -0.12588821265E+04  0.12588821265E+04  0.00000000000E+00 0.  1.
          6    1    1    2  501    0 -0.73618511793E+02  0.16934983672E+03 -0.94624443434E+03  0.97949302294E+03  0.17300000000E+03 0.  1.
         -6    1    1    2    0  502  0.73618511793E+02 -0.16934983672E+03 -0.24193809843E+03  0.35008869726E+03  0.17300000000E+03 0. -1.
<mgrwt>
<rscale>  2 0.25303765E+03</rscale>
<asrwt>0</asrwt>
<pdfrwt beam="1">  1       21 0.10876861E-01 0.25303765E+03</pdfrwt>
<pdfrwt beam="2">  1       21 0.19367416E+00 0.25303765E+03</pdfrwt>
<totfact> 0.98642333E+03</totfact>
</mgrwt>
</event>
<event>
 4    1  0.3901757E+000  0.2284056E+03  0.7546771E-02  0.1127767E+00
         21   -1    0    0  501  502  0.00000000000E+00  0.00000000000E+00  0.20402912633E+03  0.20402912633E+03  0.00000000000E+00 0.  1.
         21   -1    0    0  502  503 -0.00000000000E+00 -0.00000000000E+00 -0.47391386730E+03  0.47391386730E+03  0.00000000000E+00 0.  1.
          6    1    1    2  501    0 -0.12340581041E+03  0.83732333710E+02  0.95074798460E+02  0.24740314277E+03  0.17300000000E+03 0.  1.
         -6    1    1    2    0  503  0.12340581041E+03 -0.83732333710E+02 -0.36495953943E+03  0.43053985085E+03  0.17300000000E+03 0.  1.
<mgrwt>
<rscale>  2 0.22840556E+03</rscale>
<asrwt>0</asrwt>
<pdfrwt beam="1">  1       21 0.31389096E-01 0.22840556E+03</pdfrwt>
<pdfrwt beam="2">  1       21 0.72909826E-01 0.22840556E+03</pdfrwt>
<totfact> 0.16164357E+04</totfact>
</mgrwt>
</event>
<event>
 4    1  0.3901757E+000  0.1763865E+03  0.7546771E-02  0.1171347E+00
         21   -1    0    0  503  502  0.00000000000E+00  0.00000000000E+00  0.62345035017E+02  0.62345035017E+02  0.00000000000E+00 0. -1.
         21   -1    0    0  501  503 -0.00000000000E+00 -0.00000000000E+00 -0.67126240948E+03  0.67126240948E+03  0.00000000000E+00 0. -1.
          6    1    1    2  501    0 -0.21953198054E+02 -0.26480997453E+02 -0.49025714766E+03  0.52102231907E+03  0.17300000000E+03 0. -1.
         -6    1    1    2    0  502  0.21953198054E+02  0.26480997453E+02 -0.11866022680E+03  0.21258512543E+03  0.17300000000E+03 0. -1.
<mgrwt>
<rscale>  2 0.17638647E+03</rscale>
<asrwt>0</asrwt>
<pdfrwt beam="1">  1       21 0.95915433E-02 0.17638647E+03</pdfrwt>
<pdfrwt beam="2">  1       21 0.10327115E+00 0.17638647E+03</pdfrwt>
<totfact> 0.66910934E+04</totfact>
</mgrwt>
</event>
<event>
 4    1  0.3901757E+000  0.2220584E+03  0.7546771E-02  0.1132358E+00
         21   -1    0    0  503  502  0.00000000000E+00  0.00000000000E+00  0.29997778409E+02  0.29997778409E+02  0.00000000000E+00 0. -1.
         21   -1    0    0  501  503 -0.00000000000E+00 -0.00000000000E+00 -0.22381044007E+04  0.22381044007E+04  0.00000000000E+00 0.  1.
          6    1    1    2  501    0  0.12363741767E+03 -0.63989903317E+02 -0.16884424725E+04  0.17029820615E+04  0.17300000000E+03 0.  1.
         -6    1    1    2    0  502 -0.12363741767E+03  0.63989903317E+02 -0.51966414979E+03  0.56512011763E+03  0.17300000000E+03 0. -1.
<mgrwt>
<rscale>  2 0.22205837E+03</rscale>
<asrwt>0</asrwt>
<pdfrwt beam="1">  1       21 0.46150411E-02 0.22205837E+03</pdfrwt>
<pdfrwt beam="2">  1       21 0.34432388E+00 0.22205837E+03</pdfrwt>
<totfact> 0.56207228E+03</totfact>
</mgrwt>
</event>
<event>
 4    1  0.3901757E+000  0.2046141E+03  0.7546771E-02  0.1145903E+00
         21   -1    0    0  503  502  0.00000000000E+00  0.00000000000E+00  0.12682731573E+04  0.12682731573E+04  0.00000000000E+00 0. -1.
         21   -1    0    0  501  503 -0.00000000000E+00 -0.00000000000E+00 -0.33535743319E+02  0.33535743319E+02  0.00000000000E+00 0. -1.
          6    1    1    2  501    0 -0.65976176679E+02  0.87092441128E+02  0.53594667189E+03  0.57367742182E+03  0.17300000000E+03 0. -1.
         -6    1    1    2    0  502  0.65976176679E+02 -0.87092441128E+02  0.69879074206E+03  0.72813147877E+03  0.17300000000E+03 0. -1.
<mgrwt>
<rscale>  2 0.20461415E+03</rscale>
<asrwt>0</asrwt>
<pdfrwt beam="1">  1       21 0.19511891E+00 0.20461415E+03</pdfrwt>
<pdfrwt beam="2">  1       21 0.51593461E-02 0.20461415E+03</pdfrwt>
<totfact> 0.36527254E+04</totfact>
</mgrwt>
</event>
<event>
 4    1  0.3901757E+000  0.1983977E+03  0.7546771E-02  0.1151098E+00
         21   -1    0    0  503  502  0.00000000000E+00  0.00000000000E+00  0.14239138815E+04  0.14239138815E+04  0.00000000000E+00 0.  1.
         21   -1    0    0  501  503 -0.00000000000E+00 -0.00000000000E+00 -0.32635472737E+02  0.32635472737E+02  0.00000000000E+00 0.  1.
          6    1    1    2  501    0  0.85057416482E+02  0.46881540209E+02  0.41080237181E+03  0.45620196361E+03  0.17300000000E+03 0.  1.
         -6    1    1    2    0  502 -0.85057416482E+02 -0.46881540209E+02  0.98047603699E+03  0.10003473907E+04  0.17300000000E+03 0.  1.
<mgrwt>
<rscale>  2 0.19839769E+03</rscale>
<asrwt>0</asrwt>
<pdfrwt beam="1">  1       21 0.21906363E+00 0.19839769E+03</pdfrwt>
<pdfrwt beam="2">  1       21 0.50208431E-02 0.19839769E+03</pdfrwt>
<totfact> 0.27108184E+04</totfact>
</mgrwt>
</event>
<event>
 4    1  0.3901757E+000  0.1849885E+03  0.7546771E-02  0.1163061E+00
         21   -1    0    0  503  502  0.00000000000E+00  0.00000000000E+00  0.20291293164E+03  0.20291293164E+03  0.00000000000E+00 0. -1.
         21   -1    0    0  501  503 -0.00000000000E+00 -0.00000000000E+00 -0.34854635474E+03  0.34854635474E+03  0.00000000000E+00 0. -1.
          6    1    1    2  501    0 -0.27435962754E+02 -0.59489692263E+02 -0.27090892468E+03  0.32804329136E+03  0.17300000000E+03 0. -1.
         -6    1    1    2    0  502  0.27435962754E+02  0.59489692263E+02  0.12527550158E+03  0.22341599503E+03  0.17300000000E+03 0. -1.
<mgrwt>
<rscale>  2 0.18498853E+03</rscale>
<asrwt>0</asrwt>
<pdfrwt beam="1">  1       21 0.31217374E-01 0.18498853E+03</pdfrwt>
<pdfrwt beam="2">  1       21 0.53622516E-01 0.18498853E+03</pdfrwt>
<totfact> 0.32576708E+04</totfact>
</mgrwt>
</event>
<event>
 4    1  0.3901757E+000  0.2145268E+03  0.7546771E-02  0.1138031E+00
         21   -1    0    0  503  502  0.00000000000E+00  0.00000000000E+00  0.23260409816E+03  0.23260409816E+03  0.00000000000E+00 0. -1.
         21   -1    0    0  501  503 -0.00000000000E+00 -0.00000000000E+00 -0.48346776685E+03  0.48346776685E+03  0.00000000000E+00 0.  1.
          6    1    1    2  501    0  0.33270164220E+02  0.12241665929E+03  0.14975783296E+03  0.26162788619E+03  0.17300000000E+03 0. -1.
         -6    1    1    2    0  502 -0.33270164220E+02 -0.12241665929E+03 -0.40062150165E+03  0.45444397882E+03  0.17300000000E+03 0.  1.
<mgrwt>
<rscale>  2 0.21452679E+03</rscale>
<asrwt>0</asrwt>
<pdfrwt beam="1">  1       21 0.35785246E-01 0.21452679E+03</pdfrwt>
<pdfrwt beam="2">  1       21 0.74379656E-01 0.21452679E+03</pdfrwt>
<totfact> 0.12022306E+04</totfact>
</mgrwt>
</event>
<event>
 4    1  0.3901757E+000  0.1878596E+03  0.7546771E-02  0.1160406E+00
         21   -1    0    0  503  502  0.00000000000E+00  0.00000000000E+00  0.10014982069E+04  0.10014982069E+04  0.00000000000E+00 0.  1.
         21   -1    0    0  501  503 -0.00000000000E+00 -0.00000000000E+00 -0.45100811764E+02  0.45100811764E+02  0.00000000000E+00 0.  1.
          6    1    1    2  501    0  0.27966536003E+02 -0.67676479397E+02  0.72290709069E+03  0.74691759570E+03  0.17300000000E+03 0.  1.
         -6    1    1    2    0  502 -0.27966536003E+02  0.67676479397E+02  0.23349030445E+03  0.29968142297E+03  0.17300000000E+03 0.  1.
<mgrwt>
<rscale>  2 0.18785961E+03</rscale>
<asrwt>0</asrwt>
<pdfrwt beam="1">  1       21 0.15407663E+00 0.18785961E+03</pdfrwt>
<pdfrwt beam="2">  1       21 0.69385872E-02 0.18785961E+03</pdfrwt>
<totfact> 0.42886782E+04</totfact>
</mgrwt>
</event>
<event>
 4    1  0.3901757E+000  0.1888157E+03  0.7546771E-02  0.1159534E+00
         21   -1    0    0  503  502  0.00000000000E+00  0.00000000000E+00  0.56562068876E+02  0.56562068876E+02  0.00000000000E+00 0. -1.
         21   -1    0    0  501  503 -0.00000000000E+00 -0.00000000000E+00 -0.65772521847E+03  0.65772521847E+03  0.00000000000E+00 0. -1.
          6    1    1    2  501    0  0.75612243878E+02 -0.22714193214E+01 -0.37350279056E+03  0.41851607535E+03  0.17300000000E+03 0. -1.
         -6    1    1    2    0  502 -0.75612243878E+02  0.22714193214E+01 -0.22766035903E+03  0.29577121199E+03  0.17300000000E+03 0. -1.
<mgrwt>
<rscale>  2 0.18881571E+03</rscale>
<asrwt>0</asrwt>
<pdfrwt beam="1">  1       21 0.87018559E-02 0.18881571E+03</pdfrwt>
<pdfrwt beam="2">  1       21 0.10118851E+00 0.18881571E+03</pdfrwt>
<totfact> 0.82848979E+04</totfact>
</mgrwt>
</event>
<event>
 4    1  0.3901757E+000  0.2124564E+03  0.7546771E-02  0.1139635E+00
         21   -1    0    0  503  502  0.00000000000E+00  0.00000000000E+00  0.88355345010E+02  0.88355345010E+02  0.00000000000E+00 0. -1.
         21   -1    0    0  501  503 -0.00000000000E+00 -0.00000000000E+00 -0.67433087297E+03  0.67433087297E+03  0.00000000000E+00 0. -1.
          6    1    1    2  501    0  0.12248849588E+03 -0.14328295626E+02 -0.48074286817E+03  0.52559626804E+03  0.17300000000E+03 0. -1.
         -6    1    1    2    0  502 -0.12248849588E+03  0.14328295626E+02 -0.10523265979E+03  0.23708994994E+03  0.17300000000E+03 0. -1.
<mgrwt>
<rscale>  2 0.21245642E+03</rscale>
<asrwt>0</asrwt>
<pdfrwt beam="1">  1       21 0.13593130E-01 0.21245642E+03</pdfrwt>
<pdfrwt beam="2">  1       21 0.10374321E+00 0.21245642E+03</pdfrwt>
<totfact> 0.34888118E+04</totfact>
</mgrwt>
</event>
<event>
 4    1  0.3901757E+000  0.1904789E+03  0.7546771E-02  0.1158030E+00
         21   -1    0    0  501  502  0.00000000000E+00  0.00000000000E+00  0.19565780960E+03  0.19565780960E+03  0.00000000000E+00 0. -1.
         21   -1    0    0  502  503 -0.00000000000E+00 -0.00000000000E+00 -0.23217283274E+03  0.23217283274E+03  0.00000000000E+00 0. -1.
          6    1    1    2  501    0  0.50953511019E+02 -0.61293837503E+02  0.77718178067E+02  0.20572386834E+03  0.17300000000E+03 0. -1.
         -6    1    1    2    0  503 -0.50953511019E+02  0.61293837503E+02 -0.11423320121E+03  0.22210677401E+03  0.17300000000E+03 0. -1.
<mgrwt>
<rscale>  2 0.19047886E+03</rscale>
<asrwt>0</asrwt>
<pdfrwt beam="1">  1       21 0.30101202E-01 0.19047886E+03</pdfrwt>
<pdfrwt beam="2">  1       21 0.35718897E-01 0.19047886E+03</pdfrwt>
<totfact> 0.80082861E+04</totfact>
</mgrwt>
</event>
<event>
 4    1  0.3901757E+000  0.2074443E+03  0.7546771E-02  0.1143606E+00
         21   -1    0    0  501  502  0.00000000000E+00  0.00000000000E+00  0.18898599817E+03  0.18898599817E+03  0.00000000000E+00 0. -1.
         21   -1    0    0  502  503 -0.00000000000E+00 -0.00000000000E+00 -0.23515679785E+03  0.23515679785E+03  0.00000000000E+00 0. -1.
          6    1    1    2  501    0 -0.26593243959E+02  0.11134148543E+03  0.14665127670E+02  0.20796199886E+03  0.17300000000E+03 0. -1.
         -6    1    1    2    0  503  0.26593243959E+02 -0.11134148543E+03 -0.60835927357E+02  0.21618079716E+03  0.17300000000E+03 0. -1.
<mgrwt>
<rscale>  2 0.20744427E+03</rscale>
<asrwt>0</asrwt>
<pdfrwt beam="1">  1       21 0.29074769E-01 0.20744427E+03</pdfrwt>
<pdfrwt beam="2">  1       21 0.36177969E-01 0.20744427E+03</pdfrwt>
<totfact> 0.82927611E+04</totfact>
</mgrwt>
</event>
<event>
 4    1  0.3901757E+000  0.2517556E+03  0.7546771E-02  0.1112200E+00
         21   -1    0    0  501  502  0.00000000000E+00  0.00000000000E+00  0.16514292296E+03  0.16514292296E+03  0.00000000000E+00 0. -1.
         21   -1    0    0  502  503 -0.00000000000E+00 -0.00000000000E+00 -0.39068114573E+03  0.39068114573E+03  0.00000000000E+00 0. -1.
          6    1    1    2  501    0 -0.84637494701E+02  0.16213688119E+03 -0.75870187091E+02  0.26293945889E+03  0.17300000000E+03 0. -1.
         -6    1    1    2    0  503  0.84637494701E+02 -0.16213688119E+03 -0.14966803568E+03  0.29288460980E+03  0.17300000000E+03 0. -1.
<mgrwt>
<rscale>  2 0.25175558E+03</rscale>
<asrwt>0</asrwt>
<pdfrwt beam="1">  1       21 0.25406604E-01 0.25175558E+03</pdfrwt>
<pdfrwt beam="2">  1       21 0.60104791E-01 0.25175558E+03</pdfrwt>
<totfact> 0.36857818E+04</totfact>
</mgrwt>
</event>
<event>
 4    1  0.3901757E+000  0.1863009E+03  0.7546771E-02  0.1161841E+00
         21   -1    0    0  501  502  0.00000000000E+00  0.00000000000E+00  0.20825594523E+04  0.20825594523E+04  0.00000000000E+00 0.  1.
         21   -1    0    0  502  503 -0.00000000000E+00 -0.00000000000E+00 -0.21129116128E+02  0.21129116128E+02  0.00000000000E+00 0.  1.
          6    1    1    2  501    0 -0.35984410599E+02 -0.59026701562E+02  0.15141385988E+04  0.15255568576E+04  0.17300000000E+03 0.  1.
         -6    1    1    2    0  503  0.35984410599E+02  0.59026701562E+02  0.54729173735E+03  0.57813171083E+03  0.17300000000E+03 0.  1.
<mgrwt>
<rscale>  2 0.18630091E+03</rscale>
<asrwt>0</asrwt>
<pdfrwt beam="1">  1       21 0.32039360E+00 0.18630091E+03</pdfrwt>
<pdfrwt beam="2">  1       21 0.32506349E-02 0.18630091E+03</pdfrwt>
<totfact> 0.14523580E+04</totfact>
</mgrwt>
</event>
<event>
 4    1  0.3901757E+000  0.1801175E+03  0.7546771E-02  0.1167689E+00
         21   -1    0    0  503  502  0.00000000000E+00  0.00000000000E+00  0.11597459853E+04  0.11597459853E+04  0.00000000000E+00 0. -1.
         21   -1    0    0  501  503 -0.00000000000E+00 -0.00000000000E+00 -0.34659623772E+02  0.34659623772E+02  0.00000000000E+00 0. -1.
          6    1    1    2  501    0  0.22152174083E+02 -0.44973279297E+02  0.30024659832E+03  0.35012902546E+03  0.17300000000E+03 0. -1.
         -6    1    1    2    0  502 -0.22152174083E+02  0.44973279297E+02  0.82483976326E+03  0.84427658366E+03  0.17300000000E+03 0. -1.
<mgrwt>
<rscale>  2 0.18011750E+03</rscale>
<asrwt>0</asrwt>
<pdfrwt beam="1">  1       21 0.17842243E+00 0.18011750E+03</pdfrwt>
<pdfrwt beam="2">  1       21 0.53322507E-02 0.18011750E+03</pdfrwt>
<totfact> 0.45335230E+04</totfact>
</mgrwt>
</event>
<event>
 4    1  0.3901757E+000  0.1745246E+03  0.7546771E-02  0.1173210E+00
         21   -1    0    0  501  502  0.00000000000E+00  0.00000000000E+00  0.15608376323E+04  0.15608376323E+04  0.00000000000E+00 0. -1.
         21   -1    0    0  502  503 -0.00000000000E+00 -0.00000000000E+00 -0.19516420251E+02  0.19516420251E+02  0.00000000000E+00 0. -1.
          6    1    1    2  501    0  0.21502816464E+02  0.82137765754E+01  0.77866512714E+03  0.79798384537E+03  0.17300000000E+03 0. -1.
         -6    1    1    2    0  503 -0.21502816464E+02 -0.82137765754E+01  0.76265608491E+03  0.78237020719E+03  0.17300000000E+03 0. -1.
<mgrwt>
<rscale>  2 0.17452460E+03</rscale>
<asrwt>0</asrwt>
<pdfrwt beam="1">  1       21 0.24012877E+00 0.17452460E+03</pdfrwt>
<pdfrwt beam="2">  1       21 0.30025274E-02 0.17452460E+03</pdfrwt>
<totfact> 0.48731308E+04</totfact>
</mgrwt>
</event>
<event>
 4    1  0.3901757E+000  0.1814707E+03  0.7546771E-02  0.1166387E+00
         21   -1    0    0  503  502  0.00000000000E+00  0.00000000000E+00  0.22708524264E+02  0.22708524264E+02  0.00000000000E+00 0. -1.
         21   -1    0    0  501  503 -0.00000000000E+00 -0.00000000000E+00 -0.15509188685E+04  0.15509188685E+04  0.00000000000E+00 0. -1.
          6    1    1    2  501    0  0.33592047044E+02  0.43291811334E+02 -0.96462661822E+03  0.98154781805E+03  0.17300000000E+03 0. -1.
         -6    1    1    2    0  502 -0.33592047044E+02 -0.43291811334E+02 -0.56358372598E+03  0.59207957467E+03  0.17300000000E+03 0. -1.
<mgrwt>
<rscale>  2 0.18147068E+03</rscale>
<asrwt>0</asrwt>
<pdfrwt beam="1">  1       21 0.34936174E-02 0.18147068E+03</pdfrwt>
<pdfrwt beam="2">  1       21 0.23860302E+00 0.18147068E+03</pdfrwt>
<totfact> 0.38492355E+04</totfact>
</mgrwt>
</event>
<event>
 4    1  0.3901757E+000  0.3190438E+03  0.7546771E-02  0.1076090E+00
         21   -1    0    0  501  502  0.00000000000E+00  0.00000000000E+00  0.76077892013E+03  0.76077892013E+03  0.00000000000E+00 0.  1.
         21   -1    0    0  502  503 -0.00000000000E+00 -0.00000000000E+00 -0.22023431364E+03  0.22023431364E+03  0.00000000000E+00 0. -1.
          6    1    1    2  501    0  0.26729384818E+03  0.20345164709E+02  0.57756790475E+03  0.65982847134E+03  0.17300000000E+03 0.  1.
         -6    1    1    2    0  503 -0.26729384818E+03 -0.20345164709E+02 -0.37023298265E+02  0.32118476243E+03  0.17300000000E+03 0. -1.
<mgrwt>
<rscale>  2 0.31904377E+03</rscale>
<asrwt>0</asrwt>
<pdfrwt beam="1">  1       21 0.11704291E+00 0.31904377E+03</pdfrwt>
<pdfrwt beam="2">  1       21 0.33882202E-01 0.31904377E+03</pdfrwt>
<totfact> 0.43445721E+03</totfact>
</mgrwt>
</event>
<event>
 4    1  0.3901757E+000  0.1736961E+03  0.7546771E-02  0.1174047E+00
         21   -1    0    0  503  502  0.00000000000E+00  0.00000000000E+00  0.45630624775E+03  0.45630624775E+03  0.00000000000E+00 0. -1.
         21   -1    0    0  501  503 -0.00000000000E+00 -0.00000000000E+00 -0.87670895616E+02  0.87670895616E+02  0.00000000000E+00 0. -1.
          6    1    1    2  501    0  0.14840406290E+02 -0.45933013185E+01  0.49461893275E+02  0.18060125958E+03  0.17300000000E+03 0. -1.
         -6    1    1    2    0  502 -0.14840406290E+02  0.45933013185E+01  0.31917345886E+03  0.36337588378E+03  0.17300000000E+03 0. -1.
<mgrwt>
<rscale>  2 0.17369610E+03</rscale>
<asrwt>0</asrwt>
<pdfrwt beam="1">  1       21 0.70200960E-01 0.17369610E+03</pdfrwt>
<pdfrwt beam="2">  1       21 0.13487830E-01 0.17369610E+03</pdfrwt>
<totfact> 0.88259072E+04</totfact>
</mgrwt>
</event>
<event>
 4    1  0.3901757E+000  0.1848416E+03  0.7546771E-02  0.1163198E+00
         21   -1    0    0  501  502  0.00000000000E+00  0.00000000000E+00  0.85221190205E+03  0.85221190205E+03  0.00000000000E+00 0. -1.
         21   -1    0    0  502  503 -0.00000000000E+00 -0.00000000000E+00 -0.40091855625E+02  0.40091855625E+02  0.00000000000E+00 0. -1.
          6    1    1    2  501    0  0.55444812141E+02  0.34107097767E+02  0.40466252766E+03  0.44487996427E+03  0.17300000000E+03 0. -1.
         -6    1    1    2    0  503 -0.55444812141E+02 -0.34107097767E+02  0.40745751876E+03  0.44742379340E+03  0.17300000000E+03 0. -1.
<mgrwt>
<rscale>  2 0.18484161E+03</rscale>
<asrwt>0</asrwt>
<pdfrwt beam="1">  1       21 0.13110951E+00 0.18484161E+03</pdfrwt>
<pdfrwt beam="2">  1       21 0.61679784E-02 0.18484161E+03</pdfrwt>
<totfact> 0.79861596E+04</totfact>
</mgrwt>
</event>
<event>
 4    1  0.3901757E+000  0.2620020E+03  0.7546771E-02  0.1105946E+00
         21   -1    0    0  501  502  0.00000000000E+00  0.00000000000E+00  0.16962060537E+04  0.16962060537E+04  0.00000000000E+00 0. -1.
         21   -1    0    0  502  503 -0.00000000000E+00 -0.00000000000E+00 -0.53997806197E+02  0.53997806197E+02  0.00000000000E+00 0. -1.
          6    1    1    2  501    0 -0.16584578712E+03  0.10588305769E+03  0.12591183022E+04  0.12860886229E+04  0.17300000000E+03 0. -1.
         -6    1    1    2    0  503  0.16584578712E+03 -0.10588305769E+03  0.38308994522E+03  0.46411523692E+03  0.17300000000E+03 0. -1.
<mgrwt>
<rscale>  2 0.26200200E+03</rscale>
<asrwt>0</asrwt>
<pdfrwt beam="1">  1       21 0.26095474E+00 0.26200200E+03</pdfrwt>
<pdfrwt beam="2">  1       21 0.83073561E-02 0.26200200E+03</pdfrwt>
<totfact> 0.60567400E+03</totfact>
</mgrwt>
</event>
<event>
 4    1  0.3901757E+000  0.1756656E+03  0.7546771E-02  0.1172065E+00
         21   -1    0    0  503  502  0.00000000000E+00  0.00000000000E+00  0.73436452354E+03  0.73436452354E+03  0.00000000000E+00 0. -1.
         21   -1    0    0  501  503 -0.00000000000E+00 -0.00000000000E+00 -0.48701510671E+02  0.48701510671E+02  0.00000000000E+00 0. -1.
          6    1    1    2  501    0  0.26469244127E+02  0.15125603327E+02  0.48784769075E+03  0.51851111283E+03  0.17300000000E+03 0. -1.
         -6    1    1    2    0  502 -0.26469244127E+02 -0.15125603327E+02  0.19781532212E+03  0.26455492138E+03  0.17300000000E+03 0. -1.
<mgrwt>
<rscale>  2 0.17566560E+03</rscale>
<asrwt>0</asrwt>
<pdfrwt beam="1">  1       21 0.11297915E+00 0.17566560E+03</pdfrwt>
<pdfrwt beam="2">  1       21 0.74925406E-02 0.17566560E+03</pdfrwt>
<totfact> 0.82947938E+04</totfact>
</mgrwt>
</event>
<event>
 4    1  0.3901757E+000  0.2061694E+03  0.7546771E-02  0.1144636E+00
         21   -1    0    0  501  502  0.00000000000E+00  0.00000000000E+00  0.24773567159E+03  0.24773567159E+03  0.00000000000E+00 0. -1.
         21   -1    0    0  502  503 -0.00000000000E+00 -0.00000000000E+00 -0.17944955571E+03  0.17944955571E+03  0.00000000000E+00 0. -1.
          6    1    1    2  501    0 -0.12823431580E+02 -0.11141085780E+03  0.78879805941E+02  0.22074384118E+03  0.17300000000E+03 0. -1.
         -6    1    1    2    0  503  0.12823431580E+02  0.11141085780E+03 -0.10593690067E+02  0.20644138612E+03  0.17300000000E+03 0. -1.
<mgrwt>
<rscale>  2 0.20616940E+03</rscale>
<asrwt>0</asrwt>
<pdfrwt beam="1">  1       21 0.38113180E-01 0.20616940E+03</pdfrwt>
<pdfrwt beam="2">  1       21 0.27607624E-01 0.20616940E+03</pdfrwt>
<totfact> 0.82645288E+04</totfact>
</mgrwt>
</event>
<event>
 4    1  0.3901757E+000  0.2082456E+03  0.7546771E-02  0.1142963E+00
         21   -1    0    0  501  502  0.00000000000E+00  0.00000000000E+00  0.94093559029E+03  0.94093559029E+03  0.00000000000E+00 0.  1.
         21   -1    0    0  502  503 -0.00000000000E+00 -0.00000000000E+00 -0.46929718792E+02  0.46929718792E+02  0.00000000000E+00 0. -1.
          6    1    1    2  501    0  0.44287457673E+02  0.10712542486E+03  0.38086987026E+03  0.43408304923E+03  0.17300000000E+03 0. -1.
         -6    1    1    2    0  503 -0.44287457673E+02 -0.10712542486E+03  0.51313600124E+03  0.55378225986E+03  0.17300000000E+03 0.  1.
<mgrwt>
<rscale>  2 0.20824561E+03</rscale>
<asrwt>0</asrwt>
<pdfrwt beam="1">  1       21 0.14475931E+00 0.20824561E+03</pdfrwt>
<pdfrwt beam="2">  1       21 0.72199574E-02 0.20824561E+03</pdfrwt>
<totfact> 0.46631179E+04</totfact>
</mgrwt>
</event>
<event>
 4    1  0.3901757E+000  0.1875821E+03  0.7546771E-02  0.1160660E+00
         21   -1    0    0  501  502  0.00000000000E+00  0.00000000000E+00  0.22347977425E+02  0.22347977425E+02  0.00000000000E+00 0.  1.
         21   -1    0    0  502  503 -0.00000000000E+00 -0.00000000000E+00 -0.17830972411E+04  0.17830972411E+04  0.00000000000E+00 0. -1.
          6    1    1    2  501    0 -0.49025569479E+02  0.53427820739E+02 -0.11891297674E+04  0.12038341424E+04  0.17300000000E+03 0. -1.
         -6    1    1    2    0  503  0.49025569479E+02 -0.53427820739E+02 -0.57161949620E+03  0.60161107613E+03  0.17300000000E+03 0.  1.
<mgrwt>
<rscale>  2 0.18758208E+03</rscale>
<asrwt>0</asrwt>
<pdfrwt beam="1">  1       21 0.34381499E-02 0.18758208E+03</pdfrwt>
<pdfrwt beam="2">  1       21 0.27432269E+00 0.18758208E+03</pdfrwt>
<totfact> 0.24328667E+04</totfact>
</mgrwt>
</event>
<event>
 4    1  0.3901757E+000  0.1753551E+03  0.7546771E-02  0.1172376E+00
         21   -1    0    0  503  502  0.00000000000E+00  0.00000000000E+00  0.25610440395E+02  0.25610440395E+02  0.00000000000E+00 0.  1.
         21   -1    0    0  501  503 -0.00000000000E+00 -0.00000000000E+00 -0.12051358002E+04  0.12051358002E+04  0.00000000000E+00 0.  1.
          6    1    1    2  501    0 -0.14833717021E+01 -0.28604568334E+02 -0.62726638226E+03  0.65131600321E+03  0.17300000000E+03 0.  1.
         -6    1    1    2    0  502  0.14833717021E+01  0.28604568334E+02 -0.55225897757E+03  0.57943023741E+03  0.17300000000E+03 0.  1.
<mgrwt>
<rscale>  2 0.17535513E+03</rscale>
<asrwt>0</asrwt>
<pdfrwt beam="1">  1       21 0.39400684E-02 0.17535513E+03</pdfrwt>
<pdfrwt beam="2">  1       21 0.18540548E+00 0.17535513E+03</pdfrwt>
<totfact> 0.67938180E+04</totfact>
</mgrwt>
</event>
<event>
 4    1  0.3901757E+000  0.1888399E+03  0.7546771E-02  0.1159512E+00
         21   -1    0    0  501  502  0.00000000000E+00  0.00000000000E+00  0.75374252910E+03  0.75374252910E+03  0.00000000000E+00 0.  1.
         21   -1    0    0  502  503 -0.00000000000E+00 -0.00000000000E+00 -0.85075036347E+02  0.85075036347E+02  0.00000000000E+00 0.  1.
          6    1    1    2  501    0 -0.65494268840E+02 -0.37973852328E+02  0.61376445195E+03  0.64215832564E+03  0.17300000000E+03 0.  1.
         -6    1    1    2    0  503  0.65494268840E+02  0.37973852328E+02  0.54903040800E+02  0.19665923980E+03  0.17300000000E+03 0.  1.
<mgrwt>
<rscale>  2 0.18883991E+03</rscale>
<asrwt>0</asrwt>
<pdfrwt beam="1">  1       21 0.11596038E+00 0.18883991E+03</pdfrwt>
<pdfrwt beam="2">  1       21 0.13088468E-01 0.18883991E+03</pdfrwt>
<totfact> 0.28911243E+04</totfact>
</mgrwt>
</event>
<event>
 4    1  0.3901757E+000  0.2215008E+03  0.7546771E-02  0.1132769E+00
         21   -1    0    0  503  502  0.00000000000E+00  0.00000000000E+00  0.52694137515E+02  0.52694137515E+02  0.00000000000E+00 0. -1.
         21   -1    0    0  501  503 -0.00000000000E+00 -0.00000000000E+00 -0.12074356165E+04  0.12074356165E+04  0.00000000000E+00 0.  1.
          6    1    1    2  501    0 -0.12823290604E+03 -0.51864379188E+02 -0.87880000964E+03  0.90628475049E+03  0.17300000000E+03 0.  1.
         -6    1    1    2    0  502  0.12823290604E+03  0.51864379188E+02 -0.27594146935E+03  0.35384500354E+03  0.17300000000E+03 0. -1.
<mgrwt>
<rscale>  2 0.22150077E+03</rscale>
<asrwt>0</asrwt>
<pdfrwt beam="1">  1       21 0.81067906E-02 0.22150077E+03</pdfrwt>
<pdfrwt beam="2">  1       21 0.18575932E+00 0.22150077E+03</pdfrwt>
<totfact> 0.19116871E+04</totfact>
</mgrwt>
</event>
<event>
 4    1  0.3901757E+000  0.1919168E+03  0.7546771E-02  0.1156744E+00
         21   -1    0    0  501  502  0.00000000000E+00  0.00000000000E+00  0.16500469704E+03  0.16500469704E+03  0.00000000000E+00 0. -1.
         21   -1    0    0  502  503 -0.00000000000E+00 -0.00000000000E+00 -0.29849078174E+03  0.29849078174E+03  0.00000000000E+00 0. -1.
          6    1    1    2  501    0  0.48964812793E+02 -0.67123189182E+02  0.49634191951E+02  0.19823124988E+03  0.17300000000E+03 0. -1.
         -6    1    1    2    0  503 -0.48964812793E+02  0.67123189182E+02 -0.18312027665E+03  0.26526422890E+03  0.17300000000E+03 0. -1.
<mgrwt>
<rscale>  2 0.19191685E+03</rscale>
<asrwt>0</asrwt>
<pdfrwt beam="1">  1       21 0.25385338E-01 0.19191685E+03</pdfrwt>
<pdfrwt beam="2">  1       21 0.45921658E-01 0.19191685E+03</pdfrwt>
<totfact> 0.66885810E+04</totfact>
</mgrwt>
</event>
<event>
 4    1  0.3901757E+000  0.1972188E+03  0.7546771E-02  0.1152107E+00
         21   -1    0    0  501  502  0.00000000000E+00  0.00000000000E+00  0.11109039625E+03  0.11109039625E+03  0.00000000000E+00 0. -1.
         21   -1    0    0  502  503 -0.00000000000E+00 -0.00000000000E+00 -0.80292233209E+03  0.80292233209E+03  0.00000000000E+00 0. -1.
          6    1    1    2  501    0 -0.89305271954E+02  0.31477659946E+02 -0.27229138254E+01  0.19723764583E+03  0.17300000000E+03 0. -1.
         -6    1    1    2    0  503  0.89305271954E+02 -0.31477659946E+02 -0.68910902201E+03  0.71677508250E+03  0.17300000000E+03 0. -1.
<mgrwt>
<rscale>  2 0.19721885E+03</rscale>
<asrwt>0</asrwt>
<pdfrwt beam="1">  1       21 0.17090831E-01 0.19721885E+03</pdfrwt>
<pdfrwt beam="2">  1       21 0.12352651E+00 0.19721885E+03</pdfrwt>
<totfact> 0.15133110E+04</totfact>
</mgrwt>
</event>
<event>
 4    1  0.3901757E+000  0.2022465E+03  0.7546771E-02  0.1147857E+00
         21   -1    0    0  503  502  0.00000000000E+00  0.00000000000E+00  0.29249601983E+03  0.29249601983E+03  0.00000000000E+00 0. -1.
         21   -1    0    0  501  503 -0.00000000000E+00 -0.00000000000E+00 -0.21105009427E+03  0.21105009427E+03  0.00000000000E+00 0. -1.
          6    1    1    2  501    0  0.24346617993E+02 -0.10189158159E+03 -0.10552059400E+03  0.22811893381E+03  0.17300000000E+03 0. -1.
         -6    1    1    2    0  502 -0.24346617993E+02  0.10189158159E+03  0.18696651956E+03  0.27542718029E+03  0.17300000000E+03 0. -1.
<mgrwt>
<rscale>  2 0.20224651E+03</rscale>
<asrwt>0</asrwt>
<pdfrwt beam="1">  1       21 0.44999388E-01 0.20224651E+03</pdfrwt>
<pdfrwt beam="2">  1       21 0.32469245E-01 0.20224651E+03</pdfrwt>
<totfact> 0.43042962E+04</totfact>
</mgrwt>
</event>
<event>
 4    1  0.3901757E+000  0.1987241E+03  0.7546771E-02  0.1150820E+00
         21   -1    0    0  501  502  0.00000000000E+00  0.00000000000E+00  0.11521662279E+03  0.11521662279E+03  0.00000000000E+00 0. -1.
         21   -1    0    0  502  503 -0.00000000000E+00 -0.00000000000E+00 -0.35266219364E+03  0.35266219364E+03  0.00000000000E+00 0. -1.
          6    1    1    2  501    0 -0.92692417635E+02 -0.31150824456E+02 -0.79515737921E+02  0.21404207700E+03  0.17300000000E+03 0. -1.
         -6    1    1    2    0  503  0.92692417635E+02  0.31150824456E+02 -0.15792983293E+03  0.25383673943E+03  0.17300000000E+03 0. -1.
<mgrwt>
<rscale>  2 0.19872408E+03</rscale>
<asrwt>0</asrwt>
<pdfrwt beam="1">  1       21 0.17725635E-01 0.19872408E+03</pdfrwt>
<pdfrwt beam="2">  1       21 0.54255721E-01 0.19872408E+03</pdfrwt>
<totfact> 0.92492855E+04</totfact>
</mgrwt>
</event>
<event>
 4    1  0.3901757E+000  0.2326162E+03  0.7546771E-02  0.1124812E+00
         21   -1    0    0  503  502  0.00000000000E+00  0.00000000000E+00  0.12771536951E+03  0.12771536951E+03  0.00000000000E+00 0.  1.
         21   -1    0    0  501  503 -0.00000000000E+00 -0.00000000000E+00 -0.16213478774E+04  0.16213478774E+04  0.00000000000E+00 0. -1.
          6    1    1    2  501    0 -0.94450998922E+02  0.12353260610E+03 -0.14984492396E+04  0.15163971839E+04  0.17300000000E+03 0. -1.
         -6    1    1    2    0  502  0.94450998922E+02 -0.12353260610E+03  0.48167316367E+01  0.23266606300E+03  0.17300000000E+03 0.  1.
<mgrwt>
<rscale>  2 0.23261620E+03</rscale>
<asrwt>0</asrwt>
<pdfrwt beam="1">  1       21 0.19648518E-01 0.23261620E+03</pdfrwt>
<pdfrwt beam="2">  1       21 0.24943814E+00 0.23261620E+03</pdfrwt>
<totfact> 0.15303226E+03</totfact>
</mgrwt>
</event>
<event>
 4    1  0.3901757E+000  0.1766414E+03  0.7546771E-02  0.1171094E+00
         21   -1    0    0  501  502  0.00000000000E+00  0.00000000000E+00  0.49847245694E+03  0.49847245694E+03  0.00000000000E+00 0. -1.
         21   -1    0    0  502  503 -0.00000000000E+00 -0.00000000000E+00 -0.21739554733E+03  0.21739554733E+03  0.00000000000E+00 0. -1.
          6    1    1    2  501    0  0.29316842756E+02 -0.20339548865E+02  0.44257748064E+03  0.47652597084E+03  0.17300000000E+03 0. -1.
         -6    1    1    2    0  503 -0.29316842756E+02  0.20339548865E+02 -0.16150057103E+03  0.23934203342E+03  0.17300000000E+03 0. -1.
<mgrwt>
<rscale>  2 0.17664137E+03</rscale>
<asrwt>0</asrwt>
<pdfrwt beam="1">  1       21 0.76688070E-01 0.17664137E+03</pdfrwt>
<pdfrwt beam="2">  1       21 0.33445469E-01 0.17664137E+03</pdfrwt>
<totfact> 0.13163510E+04</totfact>
</mgrwt>
</event>
<event>
 4    1  0.3901757E+000  0.3598901E+03  0.7546771E-02  0.1058627E+00
         21   -1    0    0  501  502  0.00000000000E+00  0.00000000000E+00  0.82192685764E+03  0.82192685764E+03  0.00000000000E+00 0.  1.
         21   -1    0    0  502  503 -0.00000000000E+00 -0.00000000000E+00 -0.16591907264E+03  0.16591907264E+03  0.00000000000E+00 0. -1.
          6    1    1    2  501    0  0.18821815600E+03 -0.25330968449E+03  0.43872185787E+03  0.56744844619E+03  0.17300000000E+03 0. -1.
         -6    1    1    2    0  503 -0.18821815600E+03  0.25330968449E+03  0.21728592713E+03  0.42039748409E+03  0.17300000000E+03 0. -1.
<mgrwt>
<rscale>  2 0.35989008E+03</rscale>
<asrwt>0</asrwt>
<pdfrwt beam="1">  1       21 0.12645028E+00 0.35989008E+03</pdfrwt>
<pdfrwt beam="2">  1       21 0.25526012E-01 0.35989008E+03</pdfrwt>
<totfact> 0.61257831E+03</totfact>
</mgrwt>
</event>
<event>
 4    1  0.3901757E+000  0.1828565E+03  0.7546771E-02  0.1165067E+00
         21   -1    0    0  503  502  0.00000000000E+00  0.00000000000E+00  0.18418499799E+03  0.18418499799E+03  0.00000000000E+00 0.  1.
         21   -1    0    0  501  503 -0.00000000000E+00 -0.00000000000E+00 -0.18199764677E+03  0.18199764677E+03  0.00000000000E+00 0.  1.
          6    1    1    2  501    0 -0.13229803752E+02 -0.57727509108E+02 -0.81120950112E+01  0.18303633273E+03  0.17300000000E+03 0.  1.
         -6    1    1    2    0  502  0.13229803752E+02  0.57727509108E+02  0.10299446228E+02  0.18314631202E+03  0.17300000000E+03 0.  1.
<mgrwt>
<rscale>  2 0.18285648E+03</rscale>
<asrwt>0</asrwt>
<pdfrwt beam="1">  1       21 0.28336153E-01 0.18285648E+03</pdfrwt>
<pdfrwt beam="2">  1       21 0.27999638E-01 0.18285648E+03</pdfrwt>
<totfact> 0.14551326E+05</totfact>
</mgrwt>
</event>
<event>
 4    1  0.3901757E+000  0.1776552E+03  0.7546771E-02  0.1170092E+00
         21   -1    0    0  501  502  0.00000000000E+00  0.00000000000E+00  0.12163765217E+03  0.12163765217E+03  0.00000000000E+00 0. -1.
         21   -1    0    0  502  503 -0.00000000000E+00 -0.00000000000E+00 -0.29359968296E+03  0.29359968296E+03  0.00000000000E+00 0. -1.
          6    1    1    2  501    0 -0.38475109983E+02  0.12330692898E+02 -0.15194313638E+02  0.17830380602E+03  0.17300000000E+03 0. -1.
         -6    1    1    2    0  503  0.38475109983E+02 -0.12330692898E+02 -0.15676771715E+03  0.23693352911E+03  0.17300000000E+03 0. -1.
<mgrwt>
<rscale>  2 0.17765523E+03</rscale>
<asrwt>0</asrwt>
<pdfrwt beam="1">  1       21 0.18713485E-01 0.17765523E+03</pdfrwt>
<pdfrwt beam="2">  1       21 0.45169182E-01 0.17765523E+03</pdfrwt>
<totfact> 0.12349687E+05</totfact>
</mgrwt>
</event>
<event>
 4    1  0.3901757E+000  0.1778611E+03  0.7546771E-02  0.1169889E+00
         21   -1    0    0  501  502  0.00000000000E+00  0.00000000000E+00  0.38022739736E+02  0.38022739736E+02  0.00000000000E+00 0.  1.
         21   -1    0    0  502  503 -0.00000000000E+00 -0.00000000000E+00 -0.88105619221E+03  0.88105619221E+03  0.00000000000E+00 0.  1.
          6    1    1    2  501    0  0.39461155844E+02 -0.12181805642E+02 -0.31307222487E+03  0.36006776750E+03  0.17300000000E+03 0.  1.
         -6    1    1    2    0  503 -0.39461155844E+02  0.12181805642E+02 -0.52996122761E+03  0.55901116445E+03  0.17300000000E+03 0.  1.
<mgrwt>
<rscale>  2 0.17786112E+03</rscale>
<asrwt>0</asrwt>
<pdfrwt beam="1">  1       21 0.58496527E-02 0.17786112E+03</pdfrwt>
<pdfrwt beam="2">  1       21 0.13554710E+00 0.17786112E+03</pdfrwt>
<totfact> 0.80639934E+04</totfact>
</mgrwt>
</event>
<event>
 4    1  0.3901757E+000  0.1792855E+03  0.7546771E-02  0.1168496E+00
         21   -1    0    0  501  502  0.00000000000E+00  0.00000000000E+00  0.20434945829E+03  0.20434945829E+03  0.00000000000E+00 0. -1.
         21   -1    0    0  502  503 -0.00000000000E+00 -0.00000000000E+00 -0.30183325272E+03  0.30183325272E+03  0.00000000000E+00 0. -1.
          6    1    1    2  501    0 -0.38606924392E+02 -0.26903333670E+02  0.12639762906E+03  0.21936190327E+03  0.17300000000E+03 0. -1.
         -6    1    1    2    0  503  0.38606924392E+02  0.26903333670E+02 -0.22388142348E+03  0.28682080774E+03  0.17300000000E+03 0. -1.
<mgrwt>
<rscale>  2 0.17928548E+03</rscale>
<asrwt>0</asrwt>
<pdfrwt beam="1">  1       21 0.31438378E-01 0.17928548E+03</pdfrwt>
<pdfrwt beam="2">  1       21 0.46435885E-01 0.17928548E+03</pdfrwt>
<totfact> 0.43478988E+04</totfact>
</mgrwt>
</event>
<event>
 4    1  0.3901757E+000  0.3878211E+03  0.7546771E-02  0.1048080E+00
         21   -1    0    0  503  502  0.00000000000E+00  0.00000000000E+00  0.16449046522E+03  0.16449046522E+03  0.00000000000E+00 0. -1.
         21   -1    0    0  501  503 -0.00000000000E+00 -0.00000000000E+00 -0.10126334345E+04  0.10126334345E+04  0.00000000000E+00 0. -1.
          6    1    1    2  501    0 -0.16889821941E+03 -0.30323194035E+03 -0.60741310275E+03  0.72066351064E+03  0.17300000000E+03 0. -1.
         -6    1    1    2    0  502  0.16889821941E+03  0.30323194035E+03 -0.24072986654E+03  0.45646038909E+03  0.17300000000E+03 0. -1.
<mgrwt>
<rscale>  2 0.38782112E+03</rscale>
<asrwt>0</asrwt>
<pdfrwt beam="1">  1       21 0.25306225E-01 0.38782112E+03</pdfrwt>
<pdfrwt beam="2">  1       21 0.15578976E+00 0.38782112E+03</pdfrwt>
<totfact> 0.35453619E+03</totfact>
</mgrwt>
</event>
<event>
 4    1  0.3901757E+000  0.3092800E+03  0.7546771E-02  0.1080691E+00
         21   -1    0    0  503  502  0.00000000000E+00  0.00000000000E+00  0.32564376555E+03  0.32564376555E+03  0.00000000000E+00 0.  1.
         21   -1    0    0  501  503 -0.00000000000E+00 -0.00000000000E+00 -0.30215532062E+03  0.30215532062E+03  0.00000000000E+00 0.  1.
          6    1    1    2  501    0 -0.14043715147E+03 -0.21448201727E+03 -0.40645749858E+02  0.31193942718E+03  0.17300000000E+03 0.  1.
         -6    1    1    2    0  502  0.14043715147E+03  0.21448201727E+03  0.64134194786E+02  0.31585965900E+03  0.17300000000E+03 0.  1.
<mgrwt>
<rscale>  2 0.30928002E+03</rscale>
<asrwt>0</asrwt>
<pdfrwt beam="1">  1       21 0.50099041E-01 0.30928002E+03</pdfrwt>
<pdfrwt beam="2">  1       21 0.46485434E-01 0.30928002E+03</pdfrwt>
<totfact> 0.15853944E+04</totfact>
</mgrwt>
</event>
<event>
 4    1  0.3901757E+000  0.2161619E+03  0.7546771E-02  0.1136777E+00
         21   -1    0    0  503  502  0.00000000000E+00  0.00000000000E+00  0.45052417993E+03  0.45052417993E+03  0.00000000000E+00 0.  1.
         21   -1    0    0  501  503 -0.00000000000E+00 -0.00000000000E+00 -0.14818236955E+03  0.14818236955E+03  0.00000000000E+00 0.  1.
          6    1    1    2  501    0  0.12945201762E+03 -0.62553755511E+01 -0.12815636770E+02  0.21654143977E+03  0.17300000000E+03 0.  1.
         -6    1    1    2    0  502 -0.12945201762E+03  0.62553755511E+01  0.31515744715E+03  0.38216510972E+03  0.17300000000E+03 0.  1.
<mgrwt>
<rscale>  2 0.21616187E+03</rscale>
<asrwt>0</asrwt>
<pdfrwt beam="1">  1       21 0.69311412E-01 0.21616187E+03</pdfrwt>
<pdfrwt beam="2">  1       21 0.22797288E-01 0.21616187E+03</pdfrwt>
<totfact> 0.33755142E+04</totfact>
</mgrwt>
</event>
<event>
 4    1  0.3901757E+000  0.3079885E+03  0.7546771E-02  0.1081314E+00
         21   -1    0    0  503  502  0.00000000000E+00  0.00000000000E+00  0.16868538917E+04  0.16868538917E+04  0.00000000000E+00 0.  1.
         21   -1    0    0  501  503 -0.00000000000E+00 -0.00000000000E+00 -0.22367359283E+03  0.22367359283E+03  0.00000000000E+00 0. -1.
          6    1    1    2  501    0  0.10990755238E+03 -0.22988742745E+03 -0.94916362145E+02  0.32228250832E+03  0.17300000000E+03 0. -1.
         -6    1    1    2    0  502 -0.10990755238E+03  0.22988742745E+03  0.15580966610E+04  0.15882449762E+04  0.17300000000E+03 0.  1.
<mgrwt>
<rscale>  2 0.30798847E+03</rscale>
<asrwt>0</asrwt>
<pdfrwt beam="1">  1       21 0.25951598E+00 0.30798847E+03</pdfrwt>
<pdfrwt beam="2">  1       21 0.34411323E-01 0.30798847E+03</pdfrwt>
<totfact> 0.42107224E+02</totfact>
</mgrwt>
</event>
<event>
 4    1  0.3901757E+000  0.2412677E+03  0.7546771E-02  0.1118951E+00
         21   -1    0    0  503  502  0.00000000000E+00  0.00000000000E+00  0.32213601469E+03  0.32213601469E+03  0.00000000000E+00 0.  1.
         21   -1    0    0  501  503 -0.00000000000E+00 -0.00000000000E+00 -0.67560064746E+03  0.67560064746E+03  0.00000000000E+00 0. -1.
          6    1    1    2  501    0 -0.16462487149E+03  0.34347717242E+02 -0.60370464709E+03  0.65013030610E+03  0.17300000000E+03 0. -1.
         -6    1    1    2    0  502  0.16462487149E+03 -0.34347717242E+02  0.25024001432E+03  0.34760635604E+03  0.17300000000E+03 0.  1.
<mgrwt>
<rscale>  2 0.24126772E+03</rscale>
<asrwt>0</asrwt>
<pdfrwt beam="1">  1       21 0.49559387E-01 0.24126772E+03</pdfrwt>
<pdfrwt beam="2">  1       21 0.10393856E+00 0.24126772E+03</pdfrwt>
<totfact> 0.27953589E+03</totfact>
</mgrwt>
</event>
<event>
 4    1  0.3901757E+000  0.2081032E+03  0.7546771E-02  0.1143077E+00
         21   -1    0    0  501  502  0.00000000000E+00  0.00000000000E+00  0.12031389449E+04  0.12031389449E+04  0.00000000000E+00 0. -1.
         21   -1    0    0  502  503 -0.00000000000E+00 -0.00000000000E+00 -0.39861003817E+02  0.39861003817E+02  0.00000000000E+00 0. -1.
          6    1    1    2  501    0  0.11244210030E+03  0.27105998978E+02  0.77519170709E+03  0.80263886266E+03  0.17300000000E+03 0. -1.
         -6    1    1    2    0  503 -0.11244210030E+03 -0.27105998978E+02  0.38808623395E+03  0.44036108602E+03  0.17300000000E+03 0. -1.
<mgrwt>
<rscale>  2 0.20810325E+03</rscale>
<asrwt>0</asrwt>
<pdfrwt beam="1">  1       21 0.18509827E+00 0.20810325E+03</pdfrwt>
<pdfrwt beam="2">  1       21 0.61324630E-02 0.20810325E+03</pdfrwt>
<totfact> 0.31600297E+04</totfact>
</mgrwt>
</event>
<event>
 4    1  0.3901757E+000  0.1979993E+03  0.7546771E-02  0.1151438E+00
         21   -1    0    0  501  502  0.00000000000E+00  0.00000000000E+00  0.18947954241E+03  0.18947954241E+03  0.00000000000E+00 0. -1.
         21   -1    0    0  502  503 -0.00000000000E+00 -0.00000000000E+00 -0.21405045508E+03  0.21405045508E+03  0.00000000000E+00 0.  1.
          6    1    1    2  501    0 -0.95201185105E+02 -0.14542055031E+02  0.24585747582E+02  0.19951991378E+03  0.17300000000E+03 0.  1.
         -6    1    1    2    0  503  0.95201185105E+02  0.14542055031E+02 -0.49156660243E+02  0.20401008371E+03  0.17300000000E+03 0. -1.
<mgrwt>
<rscale>  2 0.19799934E+03</rscale>
<asrwt>0</asrwt>
<pdfrwt beam="1">  1       21 0.29150699E-01 0.19799934E+03</pdfrwt>
<pdfrwt beam="2">  1       21 0.32930839E-01 0.19799934E+03</pdfrwt>
<totfact> 0.99820539E+04</totfact>
</mgrwt>
</event>
<event>
 4    1  0.3901757E+000  0.2667323E+03  0.7546771E-02  0.1103165E+00
         21   -1    0    0  503  502  0.00000000000E+00  0.00000000000E+00  0.18107142916E+03  0.18107142916E+03  0.00000000000E+00 0. -1.
         21   -1    0    0  501  503 -0.00000000000E+00 -0.00000000000E+00 -0.39347446322E+03  0.39347446322E+03  0.00000000000E+00 0.  1.
          6    1    1    2  501    0  0.63129260074E+02  0.19295542330E+03 -0.11701146964E+03  0.29126926183E+03  0.17300000000E+03 0. -1.
         -6    1    1    2    0  502 -0.63129260074E+02 -0.19295542330E+03 -0.95391564424E+02  0.28327663056E+03  0.17300000000E+03 0. -1.
<mgrwt>
<rscale>  2 0.26673226E+03</rscale>
<asrwt>0</asrwt>
<pdfrwt beam="1">  1       21 0.27857143E-01 0.26673226E+03</pdfrwt>
<pdfrwt beam="2">  1       21 0.60534532E-01 0.26673226E+03</pdfrwt>
<totfact> 0.30178816E+04</totfact>
</mgrwt>
</event>
<event>
 4    1  0.3901757E+000  0.2190278E+03  0.7546771E-02  0.1134610E+00
         21   -1    0    0  503  502  0.00000000000E+00  0.00000000000E+00  0.93097188185E+03  0.93097188185E+03  0.00000000000E+00 0.  1.
         21   -1    0    0  501  503 -0.00000000000E+00 -0.00000000000E+00 -0.11336356771E+03  0.11336356771E+03  0.00000000000E+00 0.  1.
          6    1    1    2  501    0 -0.35208695405E+01  0.13428239927E+03  0.23161778918E+02  0.22024901198E+03  0.17300000000E+03 0.  1.
         -6    1    1    2    0  502  0.35208695405E+01 -0.13428239927E+03  0.79444653523E+03  0.82408643758E+03  0.17300000000E+03 0.  1.
<mgrwt>
<rscale>  2 0.21902776E+03</rscale>
<asrwt>0</asrwt>
<pdfrwt beam="1">  1       21 0.14322644E+00 0.21902776E+03</pdfrwt>
<pdfrwt beam="2">  1       21 0.17440549E-01 0.21902776E+03</pdfrwt>
<totfact> 0.98482930E+03</totfact>
</mgrwt>
</event>
<event>
 4    1  0.3901757E+000  0.2048842E+03  0.7546771E-02  0.1145682E+00
         21   -1    0    0  501  502  0.00000000000E+00  0.00000000000E+00  0.16851351072E+04  0.16851351072E+04  0.00000000000E+00 0.  1.
         21   -1    0    0  502  503 -0.00000000000E+00 -0.00000000000E+00 -0.27783824835E+02  0.27783824835E+02  0.00000000000E+00 0.  1.
          6    1    1    2  501    0 -0.91553699383E+02 -0.60551115153E+02  0.11041016729E+04  0.11229505873E+04  0.17300000000E+03 0. -1.
         -6    1    1    2    0  503  0.91553699383E+02  0.60551115153E+02  0.55324960948E+03  0.58996834475E+03  0.17300000000E+03 0. -1.
<mgrwt>
<rscale>  2 0.20488416E+03</rscale>
<asrwt>0</asrwt>
<pdfrwt beam="1">  1       21 0.25925148E+00 0.20488416E+03</pdfrwt>
<pdfrwt beam="2">  1       21 0.42744359E-02 0.20488416E+03</pdfrwt>
<totfact> 0.20354662E+04</totfact>
</mgrwt>
</event>
<event>
 4    1  0.3901757E+000  0.2045575E+03  0.7546771E-02  0.1145950E+00
         21   -1    0    0  503  502  0.00000000000E+00  0.00000000000E+00  0.15050832864E+03  0.15050832864E+03  0.00000000000E+00 0. -1.
         21   -1    0    0  501  503 -0.00000000000E+00 -0.00000000000E+00 -0.30251350707E+03  0.30251350707E+03  0.00000000000E+00 0. -1.
          6    1    1    2  501    0 -0.34747179657E+02  0.10347654288E+03 -0.11544790965E+02  0.20488299983E+03  0.17300000000E+03 0.  1.
         -6    1    1    2    0  502  0.34747179657E+02 -0.10347654288E+03 -0.14046038747E+03  0.24813883588E+03  0.17300000000E+03 0.  1.
<mgrwt>
<rscale>  2 0.20455748E+03</rscale>
<asrwt>0</asrwt>
<pdfrwt beam="1">  1       21 0.23155127E-01 0.20455748E+03</pdfrwt>
<pdfrwt beam="2">  1       21 0.46540540E-01 0.20455748E+03</pdfrwt>
<totfact> 0.77080163E+04</totfact>
</mgrwt>
</event>
<event>
 4    1  0.3901757E+000  0.1942594E+03  0.7546771E-02  0.1154675E+00
         21   -1    0    0  503  502  0.00000000000E+00  0.00000000000E+00  0.49686531548E+03  0.49686531548E+03  0.00000000000E+00 0.  1.
         21   -1    0    0  501  503 -0.00000000000E+00 -0.00000000000E+00 -0.79266415039E+02  0.79266415039E+02  0.00000000000E+00 0.  1.
          6    1    1    2  501    0  0.83352849751E+02 -0.29326227767E+02  0.26772550860E+03  0.33077737702E+03  0.17300000000E+03 0.  1.
         -6    1    1    2    0  502 -0.83352849751E+02  0.29326227767E+02  0.14987339184E+03  0.24535435350E+03  0.17300000000E+03 0.  1.
<mgrwt>
<rscale>  2 0.19425943E+03</rscale>
<asrwt>0</asrwt>
<pdfrwt beam="1">  1       21 0.76440816E-01 0.19425943E+03</pdfrwt>
<pdfrwt beam="2">  1       21 0.12194833E-01 0.19425943E+03</pdfrwt>
<totfact> 0.86815644E+04</totfact>
</mgrwt>
</event>
<event>
 4    1  0.3901757E+000  0.1850660E+03  0.7546771E-02  0.1162988E+00
         21   -1    0    0  501  502  0.00000000000E+00  0.00000000000E+00  0.10111399337E+03  0.10111399337E+03  0.00000000000E+00 0.  1.
         21   -1    0    0  502  503 -0.00000000000E+00 -0.00000000000E+00 -0.41321029561E+03  0.41321029561E+03  0.00000000000E+00 0.  1.
          6    1    1    2  501    0  0.88950377146E+01 -0.65125337022E+02 -0.26523452807E+03  0.32341735590E+03  0.17300000000E+03 0.  1.
         -6    1    1    2    0  503 -0.88950377146E+01  0.65125337022E+02 -0.46861774169E+02  0.19090693308E+03  0.17300000000E+03 0.  1.
<mgrwt>
<rscale>  2 0.18506602E+03</rscale>
<asrwt>0</asrwt>
<pdfrwt beam="1">  1       21 0.15555999E-01 0.18506602E+03</pdfrwt>
<pdfrwt beam="2">  1       21 0.63570814E-01 0.18506602E+03</pdfrwt>
<totfact> 0.84224661E+04</totfact>
</mgrwt>
</event>
<event>
 4    1  0.3901757E+000  0.1764550E+03  0.7546771E-02  0.1171279E+00
         21   -1    0    0  501  502  0.00000000000E+00  0.00000000000E+00  0.37911559786E+03  0.37911559786E+03  0.00000000000E+00 0.  1.
         21   -1    0    0  502  503 -0.00000000000E+00 -0.00000000000E+00 -0.88442460508E+02  0.88442460508E+02  0.00000000000E+00 0.  1.
          6    1    1    2  501    0  0.33244649268E+02 -0.10106974839E+02  0.20779791667E+03  0.27261021958E+03  0.17300000000E+03 0.  1.
         -6    1    1    2    0  503 -0.33244649268E+02  0.10106974839E+02  0.82875220678E+02  0.19494783879E+03  0.17300000000E+03 0.  1.
<mgrwt>
<rscale>  2 0.17645497E+03</rscale>
<asrwt>0</asrwt>
<pdfrwt beam="1">  1       21 0.58325476E-01 0.17645497E+03</pdfrwt>
<pdfrwt beam="2">  1       21 0.13606533E-01 0.17645497E+03</pdfrwt>
<totfact> 0.12963024E+05</totfact>
</mgrwt>
</event>
<event>
 4    1  0.3901757E+000  0.1807111E+03  0.7546771E-02  0.1167117E+00
         21   -1    0    0  501  502  0.00000000000E+00  0.00000000000E+00  0.11880800132E+04  0.11880800132E+04  0.00000000000E+00 0.  1.
         21   -1    0    0  502  503 -0.00000000000E+00 -0.00000000000E+00 -0.28261506701E+02  0.28261506701E+02  0.00000000000E+00 0.  1.
          6    1    1    2  501    0 -0.44794145800E+02  0.26851475681E+02  0.68060164236E+03  0.70418400495E+03  0.17300000000E+03 0.  1.
         -6    1    1    2    0  503  0.44794145800E+02 -0.26851475681E+02  0.47921686411E+03  0.51215751492E+03  0.17300000000E+03 0.  1.
<mgrwt>
<rscale>  2 0.18071114E+03</rscale>
<asrwt>0</asrwt>
<pdfrwt beam="1">  1       21 0.18278150E+00 0.18071114E+03</pdfrwt>
<pdfrwt beam="2">  1       21 0.43479250E-02 0.18071114E+03</pdfrwt>
<totfact> 0.59775160E+04</totfact>
</mgrwt>
</event>
<event>
 4    1  0.3901757E+000  0.1777901E+03  0.7546771E-02  0.1169959E+00
         21   -1    0    0  501  502  0.00000000000E+00  0.00000000000E+00  0.92977913535E+03  0.92977913535E+03  0.00000000000E+00 0.  1.
         21   -1    0    0  502  503 -0.00000000000E+00 -0.00000000000E+00 -0.35351622040E+02  0.35351622040E+02  0.00000000000E+00 0.  1.
          6    1    1    2  501    0 -0.20189977189E+01  0.40941994954E+02  0.54169067311E+03  0.57012113506E+03  0.17300000000E+03 0.  1.
         -6    1    1    2    0  503  0.20189977189E+01 -0.40941994954E+02  0.35273684020E+03  0.39500962233E+03  0.17300000000E+03 0.  1.
<mgrwt>
<rscale>  2 0.17779011E+03</rscale>
<asrwt>0</asrwt>
<pdfrwt beam="1">  1       21 0.14304293E+00 0.17779011E+03</pdfrwt>
<pdfrwt beam="2">  1       21 0.54387118E-02 0.17779011E+03</pdfrwt>
<totfact> 0.79496633E+04</totfact>
</mgrwt>
</event>
<event>
 4    1  0.3901757E+000  0.2100254E+03  0.7546771E-02  0.1141546E+00
         21   -1    0    0  503  502  0.00000000000E+00  0.00000000000E+00  0.22658232278E+02  0.22658232278E+02  0.00000000000E+00 0.  1.
         21   -1    0    0  501  503 -0.00000000000E+00 -0.00000000000E+00 -0.20410622761E+04  0.20410622761E+04  0.00000000000E+00 0.  1.
          6    1    1    2  501    0  0.61790593839E+02  0.10180173536E+03 -0.78743349048E+03  0.81496145476E+03  0.17300000000E+03 0.  1.
         -6    1    1    2    0  502 -0.61790593839E+02 -0.10180173536E+03 -0.12309705534E+04  0.12487590537E+04  0.17300000000E+03 0.  1.
<mgrwt>
<rscale>  2 0.21002541E+03</rscale>
<asrwt>0</asrwt>
<pdfrwt beam="1">  1       21 0.34858813E-02 0.21002541E+03</pdfrwt>
<pdfrwt beam="2">  1       21 0.31400964E+00 0.21002541E+03</pdfrwt>
<totfact> 0.13728284E+04</totfact>
</mgrwt>
</event>
<event>
 4    1  0.3901757E+000  0.1787866E+03  0.7546771E-02  0.1168983E+00
         21   -1    0    0  503  502  0.00000000000E+00  0.00000000000E+00  0.22461053270E+03  0.22461053270E+03  0.00000000000E+00 0.  1.
         21   -1    0    0  501  503 -0.00000000000E+00 -0.00000000000E+00 -0.24496779550E+03  0.24496779550E+03  0.00000000000E+00 0.  1.
          6    1    1    2  501    0  0.41574449940E+02 -0.17527703737E+02 -0.16216911901E+03  0.24137828909E+03  0.17300000000E+03 0.  1.
         -6    1    1    2    0  502 -0.41574449940E+02  0.17527703737E+02  0.14181185620E+03  0.22820003910E+03  0.17300000000E+03 0.  1.
<mgrwt>
<rscale>  2 0.17878662E+03</rscale>
<asrwt>0</asrwt>
<pdfrwt beam="1">  1       21 0.34555467E-01 0.17878662E+03</pdfrwt>
<pdfrwt beam="2">  1       21 0.37687353E-01 0.17878662E+03</pdfrwt>
<totfact> 0.55154616E+04</totfact>
</mgrwt>
</event>
<event>
 4    1  0.3901757E+000  0.1843967E+03  0.7546771E-02  0.1163614E+00
         21   -1    0    0  501  502  0.00000000000E+00  0.00000000000E+00  0.18238832161E+04  0.18238832161E+04  0.00000000000E+00 0.  1.
         21   -1    0    0  502  503 -0.00000000000E+00 -0.00000000000E+00 -0.58421236292E+02  0.58421236292E+02  0.00000000000E+00 0.  1.
          6    1    1    2  501    0 -0.47727134905E+02 -0.42370464350E+02  0.16593335497E+04  0.16695478324E+04  0.17300000000E+03 0.  1.
         -6    1    1    2    0  503  0.47727134905E+02  0.42370464350E+02  0.10612843011E+03  0.21275661995E+03  0.17300000000E+03 0.  1.
<mgrwt>
<rscale>  2 0.18439668E+03</rscale>
<asrwt>0</asrwt>
<pdfrwt beam="1">  1       21 0.28059737E+00 0.18439668E+03</pdfrwt>
<pdfrwt beam="2">  1       21 0.89878839E-02 0.18439668E+03</pdfrwt>
<totfact> 0.43642388E+03</totfact>
</mgrwt>
</event>
<event>
 4    1  0.3901757E+000  0.1740429E+03  0.7546771E-02  0.1173696E+00
         21   -1    0    0  503  502  0.00000000000E+00  0.00000000000E+00  0.75187309118E+03  0.75187309118E+03  0.00000000000E+00 0.  1.
         21   -1    0    0  501  503 -0.00000000000E+00 -0.00000000000E+00 -0.25529112915E+03  0.25529112915E+03  0.00000000000E+00 0.  1.
          6    1    1    2  501    0 -0.13322300145E+02  0.13581495736E+02 -0.21385110813E+03  0.27572311683E+03  0.17300000000E+03 0.  1.
         -6    1    1    2    0  502  0.13322300145E+02 -0.13581495736E+02  0.71043307016E+03  0.73144110350E+03  0.17300000000E+03 0.  1.
<mgrwt>
<rscale>  2 0.17404293E+03</rscale>
<asrwt>0</asrwt>
<pdfrwt beam="1">  1       21 0.11567278E+00 0.17404293E+03</pdfrwt>
<pdfrwt beam="2">  1       21 0.39275559E-01 0.17404293E+03</pdfrwt>
<totfact> 0.36714316E+03</totfact>
</mgrwt>
</event>
<event>
 4    1  0.3901757E+000  0.2233885E+03  0.7546771E-02  0.1131382E+00
         21   -1    0    0  501  502  0.00000000000E+00  0.00000000000E+00  0.90362881797E+02  0.90362881797E+02  0.00000000000E+00 0. -1.
         21   -1    0    0  502  503 -0.00000000000E+00 -0.00000000000E+00 -0.15856276319E+04  0.15856276319E+04  0.00000000000E+00 0. -1.
          6    1    1    2  501    0 -0.63751833093E+02  0.12613132702E+03 -0.71126404331E+02  0.23443842106E+03  0.17300000000E+03 0. -1.
         -6    1    1    2    0  503  0.63751833093E+02 -0.12613132702E+03 -0.14241383458E+04  0.14415520927E+04  0.17300000000E+03 0. -1.
<mgrwt>
<rscale>  2 0.22338847E+03</rscale>
<asrwt>0</asrwt>
<pdfrwt beam="1">  1       21 0.13901982E-01 0.22338847E+03</pdfrwt>
<pdfrwt beam="2">  1       21 0.24394271E+00 0.22338847E+03</pdfrwt>
<totfact> 0.31508848E+03</totfact>
</mgrwt>
</event>
<event>
 4    1  0.3901757E+000  0.1757463E+03  0.7546771E-02  0.1171984E+00
         21   -1    0    0  503  502  0.00000000000E+00  0.00000000000E+00  0.10958933632E+04  0.10958933632E+04  0.00000000000E+00 0.  1.
         21   -1    0    0  501  503 -0.00000000000E+00 -0.00000000000E+00 -0.49540765864E+02  0.49540765864E+02  0.00000000000E+00 0.  1.
          6    1    1    2  501    0 -0.26567852295E+02  0.15871837682E+02  0.14714368651E+03  0.22921175905E+03  0.17300000000E+03 0.  1.
         -6    1    1    2    0  502  0.26567852295E+02 -0.15871837682E+02  0.89920891086E+03  0.91622237005E+03  0.17300000000E+03 0.  1.
<mgrwt>
<rscale>  2 0.17574631E+03</rscale>
<asrwt>0</asrwt>
<pdfrwt beam="1">  1       21 0.16859896E+00 0.17574631E+03</pdfrwt>
<pdfrwt beam="2">  1       21 0.76216571E-02 0.17574631E+03</pdfrwt>
<totfact> 0.28820814E+04</totfact>
</mgrwt>
</event>
<event>
 4    1  0.3901757E+000  0.1922899E+03  0.7546771E-02  0.1156412E+00
         21   -1    0    0  501  502  0.00000000000E+00  0.00000000000E+00  0.21562277670E+03  0.21562277670E+03  0.00000000000E+00 0.  1.
         21   -1    0    0  502  503 -0.00000000000E+00 -0.00000000000E+00 -0.18443183460E+03  0.18443183460E+03  0.00000000000E+00 0. -1.
          6    1    1    2  501    0  0.78371261495E+02  0.30072272730E+02  0.68599110450E+02  0.20415982506E+03  0.17300000000E+03 0.  1.
         -6    1    1    2    0  503 -0.78371261495E+02 -0.30072272730E+02 -0.37408168358E+02  0.19589478624E+03  0.17300000000E+03 0. -1.
<mgrwt>
<rscale>  2 0.19228988E+03</rscale>
<asrwt>0</asrwt>
<pdfrwt beam="1">  1       21 0.33172735E-01 0.19228988E+03</pdfrwt>
<pdfrwt beam="2">  1       21 0.28374128E-01 0.19228988E+03</pdfrwt>
<totfact> 0.10392312E+05</totfact>
</mgrwt>
</event>
<event>
 4    1  0.3901757E+000  0.2087783E+03  0.7546771E-02  0.1142537E+00
         21   -1    0    0  501  502  0.00000000000E+00  0.00000000000E+00  0.98169897813E+02  0.98169897813E+02  0.00000000000E+00 0.  1.
         21   -1    0    0  502  503 -0.00000000000E+00 -0.00000000000E+00 -0.56057065097E+03  0.56057065097E+03  0.00000000000E+00 0.  1.
          6    1    1    2  501    0 -0.35514987684E+02  0.11134656711E+03 -0.81008639591E+02  0.22394368052E+03  0.17300000000E+03 0.  1.
         -6    1    1    2    0  503  0.35514987684E+02 -0.11134656711E+03 -0.38139211357E+03  0.43479686826E+03  0.17300000000E+03 0.  1.
<mgrwt>
<rscale>  2 0.20877829E+03</rscale>
<asrwt>0</asrwt>
<pdfrwt beam="1">  1       21 0.15103061E-01 0.20877829E+03</pdfrwt>
<pdfrwt beam="2">  1       21 0.86241640E-01 0.20877829E+03</pdfrwt>
<totfact> 0.44535980E+04</totfact>
</mgrwt>
</event>
<event>
 4    1  0.3901757E+000  0.1856669E+03  0.7546771E-02  0.1162429E+00
         21   -1    0    0  503  502  0.00000000000E+00  0.00000000000E+00  0.12129726347E+03  0.12129726347E+03  0.00000000000E+00 0.  1.
         21   -1    0    0  501  503 -0.00000000000E+00 -0.00000000000E+00 -0.29468378082E+03  0.29468378082E+03  0.00000000000E+00 0. -1.
          6    1    1    2  501    0  0.63488198488E+02 -0.22636911244E+02 -0.47454978876E+02  0.19163547719E+03  0.17300000000E+03 0.  1.
         -6    1    1    2    0  502 -0.63488198488E+02  0.22636911244E+02 -0.12593153847E+03  0.22434556711E+03  0.17300000000E+03 0. -1.
<mgrwt>
<rscale>  2 0.18566686E+03</rscale>
<asrwt>0</asrwt>
<pdfrwt beam="1">  1       21 0.18661118E-01 0.18566686E+03</pdfrwt>
<pdfrwt beam="2">  1       21 0.45335966E-01 0.18566686E+03</pdfrwt>
<totfact> 0.12285625E+05</totfact>
</mgrwt>
</event>
<event>
 4    1  0.3901757E+000  0.2771395E+03  0.7546771E-02  0.1097262E+00
         21   -1    0    0  503  502  0.00000000000E+00  0.00000000000E+00  0.49119291335E+03  0.49119291335E+03  0.00000000000E+00 0.  1.
         21   -1    0    0  501  503 -0.00000000000E+00 -0.00000000000E+00 -0.16647326938E+03  0.16647326938E+03  0.00000000000E+00 0. -1.
          6    1    1    2  501    0  0.20766986192E+03  0.61241396393E+02  0.24338169660E+03  0.36883726821E+03  0.17300000000E+03 0.  1.
         -6    1    1    2    0  502 -0.20766986192E+03 -0.61241396393E+02  0.81337947371E+02  0.28882891452E+03  0.17300000000E+03 0. -1.
<mgrwt>
<rscale>  2 0.27713946E+03</rscale>
<asrwt>0</asrwt>
<pdfrwt beam="1">  1       21 0.75568140E-01 0.27713946E+03</pdfrwt>
<pdfrwt beam="2">  1       21 0.25611272E-01 0.27713946E+03</pdfrwt>
<totfact> 0.21651924E+04</totfact>
</mgrwt>
</event>
<event>
 4    1  0.3901757E+000  0.2311013E+03  0.7546771E-02  0.1125867E+00
         21   -1    0    0  501  502  0.00000000000E+00  0.00000000000E+00  0.12324229760E+03  0.12324229760E+03  0.00000000000E+00 0. -1.
         21   -1    0    0  502  503 -0.00000000000E+00 -0.00000000000E+00 -0.44533961764E+03  0.44533961764E+03  0.00000000000E+00 0.  1.
          6    1    1    2  501    0  0.16939248298E+02 -0.15228885232E+03 -0.11441441520E+03  0.25787301348E+03  0.17300000000E+03 0. -1.
         -6    1    1    2    0  503 -0.16939248298E+02  0.15228885232E+03 -0.20768290484E+03  0.31070890177E+03  0.17300000000E+03 0.  1.
<mgrwt>
<rscale>  2 0.23110135E+03</rscale>
<asrwt>0</asrwt>
<pdfrwt beam="1">  1       21 0.18960353E-01 0.23110135E+03</pdfrwt>
<pdfrwt beam="2">  1       21 0.68513788E-01 0.23110135E+03</pdfrwt>
<totfact> 0.48637473E+04</totfact>
</mgrwt>
</event>
<event>
 4    1  0.3901757E+000  0.1825759E+03  0.7546771E-02  0.1165333E+00
         21   -1    0    0  503  502  0.00000000000E+00  0.00000000000E+00  0.15733623558E+03  0.15733623558E+03  0.00000000000E+00 0. -1.
         21   -1    0    0  501  503 -0.00000000000E+00 -0.00000000000E+00 -0.23213804100E+03  0.23213804100E+03  0.00000000000E+00 0.  1.
          6    1    1    2  501    0 -0.58333074810E+02 -0.14905548102E+01 -0.94950195262E+02  0.20578996319E+03  0.17300000000E+03 0.  1.
         -6    1    1    2    0  502  0.58333074810E+02  0.14905548102E+01  0.20148389841E+02  0.18368431338E+03  0.17300000000E+03 0. -1.
<mgrwt>
<rscale>  2 0.18257593E+03</rscale>
<asrwt>0</asrwt>
<pdfrwt beam="1">  1       21 0.24205575E-01 0.18257593E+03</pdfrwt>
<pdfrwt beam="2">  1       21 0.35713545E-01 0.18257593E+03</pdfrwt>
<totfact> 0.12220609E+05</totfact>
</mgrwt>
</event>
<event>
 4    1  0.3901757E+000  0.2183435E+03  0.7546771E-02  0.1135124E+00
         21   -1    0    0  501  502  0.00000000000E+00  0.00000000000E+00  0.32270599548E+03  0.32270599548E+03  0.00000000000E+00 0.  1.
         21   -1    0    0  502  503 -0.00000000000E+00 -0.00000000000E+00 -0.16713391884E+03  0.16713391884E+03  0.00000000000E+00 0.  1.
          6    1    1    2  501    0  0.12281155800E+03  0.51596566771E+02  0.16123449294E+03  0.27142300233E+03  0.17300000000E+03 0.  1.
         -6    1    1    2    0  503 -0.12281155800E+03 -0.51596566771E+02 -0.56624162940E+01  0.21841691198E+03  0.17300000000E+03 0.  1.
<mgrwt>
<rscale>  2 0.21834350E+03</rscale>
<asrwt>0</asrwt>
<pdfrwt beam="1">  1       21 0.49647076E-01 0.21834350E+03</pdfrwt>
<pdfrwt beam="2">  1       21 0.25712911E-01 0.21834350E+03</pdfrwt>
<totfact> 0.54848724E+04</totfact>
</mgrwt>
</event>
<event>
 4    1  0.3901757E+000  0.1786722E+03  0.7546771E-02  0.1169094E+00
         21   -1    0    0  503  502  0.00000000000E+00  0.00000000000E+00  0.98653917723E+02  0.98653917723E+02  0.00000000000E+00 0.  1.
         21   -1    0    0  501  503 -0.00000000000E+00 -0.00000000000E+00 -0.47952047320E+03  0.47952047320E+03  0.00000000000E+00 0.  1.
          6    1    1    2  501    0  0.43132178251E+02  0.11591860643E+02 -0.35528217685E+03  0.39767974706E+03  0.17300000000E+03 0.  1.
         -6    1    1    2    0  502 -0.43132178251E+02 -0.11591860643E+02 -0.25584378627E+02  0.18049464386E+03  0.17300000000E+03 0.  1.
<mgrwt>
<rscale>  2 0.17867220E+03</rscale>
<asrwt>0</asrwt>
<pdfrwt beam="1">  1       21 0.15177526E-01 0.17867220E+03</pdfrwt>
<pdfrwt beam="2">  1       21 0.73772381E-01 0.17867220E+03</pdfrwt>
<totfact> 0.63734778E+04</totfact>
</mgrwt>
</event>
<event>
 4    1  0.3901757E+000  0.2111226E+03  0.7546771E-02  0.1140680E+00
         21   -1    0    0  503  502  0.00000000000E+00  0.00000000000E+00  0.24585751617E+03  0.24585751617E+03  0.00000000000E+00 0. -1.
         21   -1    0    0  501  503 -0.00000000000E+00 -0.00000000000E+00 -0.53897738199E+03  0.53897738199E+03  0.00000000000E+00 0. -1.
          6    1    1    2  501    0  0.75575119554E+01 -0.12077513706E+03 -0.46623722415E+03  0.51181041305E+03  0.17300000000E+03 0. -1.
         -6    1    1    2    0  502 -0.75575119554E+01  0.12077513706E+03  0.17311735833E+03  0.27302448512E+03  0.17300000000E+03 0. -1.
<mgrwt>
<rscale>  2 0.21112259E+03</rscale>
<asrwt>0</asrwt>
<pdfrwt beam="1">  1       21 0.37824234E-01 0.21112259E+03</pdfrwt>
<pdfrwt beam="2">  1       21 0.82919596E-01 0.21112259E+03</pdfrwt>
<totfact> 0.84366384E+03</totfact>
</mgrwt>
</event>
<event>
 4    1  0.3901757E+000  0.1750522E+03  0.7546771E-02  0.1172679E+00
         21   -1    0    0  503  502  0.00000000000E+00  0.00000000000E+00  0.11826244259E+03  0.11826244259E+03  0.00000000000E+00 0.  1.
         21   -1    0    0  501  503 -0.00000000000E+00 -0.00000000000E+00 -0.33552344725E+03  0.33552344725E+03  0.00000000000E+00 0.  1.
          6    1    1    2  501    0  0.11833406939E+02  0.23963571644E+02 -0.21690775377E+03  0.27873330611E+03  0.17300000000E+03 0.  1.
         -6    1    1    2    0  502 -0.11833406939E+02 -0.23963571644E+02 -0.35325088496E+00  0.17505258373E+03  0.17300000000E+03 0.  1.
<mgrwt>
<rscale>  2 0.17505223E+03</rscale>
<asrwt>0</asrwt>
<pdfrwt beam="1">  1       21 0.18194222E-01 0.17505223E+03</pdfrwt>
<pdfrwt beam="2">  1       21 0.51618991E-01 0.17505223E+03</pdfrwt>
<totfact> 0.98786511E+04</totfact>
</mgrwt>
</event>
<event>
 4    1  0.3901757E+000  0.1957413E+03  0.7546771E-02  0.1153383E+00
         21   -1    0    0  503  502  0.00000000000E+00  0.00000000000E+00  0.96751070851E+02  0.96751070851E+02  0.00000000000E+00 0. -1.
         21   -1    0    0  501  503 -0.00000000000E+00 -0.00000000000E+00 -0.39640227686E+03  0.39640227686E+03  0.00000000000E+00 0. -1.
          6    1    1    2  501    0 -0.90935451845E+02 -0.10788960145E+02 -0.15755508067E+03  0.25127328053E+03  0.17300000000E+03 0. -1.
         -6    1    1    2    0  502  0.90935451845E+02  0.10788960145E+02 -0.14209612534E+03  0.24188006718E+03  0.17300000000E+03 0. -1.
<mgrwt>
<rscale>  2 0.19574130E+03</rscale>
<asrwt>0</asrwt>
<pdfrwt beam="1">  1       21 0.14884780E-01 0.19574130E+03</pdfrwt>
<pdfrwt beam="2">  1       21 0.60984967E-01 0.19574130E+03</pdfrwt>
<totfact> 0.99416490E+04</totfact>
</mgrwt>
</event>
<event>
 4    1  0.3901757E+000  0.2002282E+03  0.7546771E-02  0.1149547E+00
         21   -1    0    0  501  502  0.00000000000E+00  0.00000000000E+00  0.20253667984E+03  0.20253667984E+03  0.00000000000E+00 0.  1.
         21   -1    0    0  502  503 -0.00000000000E+00 -0.00000000000E+00 -0.51007673908E+03  0.51007673908E+03  0.00000000000E+00 0.  1.
          6    1    1    2  501    0 -0.80786749568E+02  0.60297897389E+02  0.12495404226E+03  0.23601874505E+03  0.17300000000E+03 0.  1.
         -6    1    1    2    0  503  0.80786749568E+02 -0.60297897389E+02 -0.43249410150E+03  0.47659467388E+03  0.17300000000E+03 0.  1.
<mgrwt>
<rscale>  2 0.20022821E+03</rscale>
<asrwt>0</asrwt>
<pdfrwt beam="1">  1       21 0.31159489E-01 0.20022821E+03</pdfrwt>
<pdfrwt beam="2">  1       21 0.78473344E-01 0.20022821E+03</pdfrwt>
<totfact> 0.14144277E+04</totfact>
</mgrwt>
</event>
<event>
 4    1  0.3901757E+000  0.1829518E+03  0.7546771E-02  0.1164977E+00
         21   -1    0    0  503  502  0.00000000000E+00  0.00000000000E+00  0.83958797427E+02  0.83958797427E+02  0.00000000000E+00 0.  1.
         21   -1    0    0  501  503 -0.00000000000E+00 -0.00000000000E+00 -0.53106584276E+03  0.53106584276E+03  0.00000000000E+00 0.  1.
          6    1    1    2  501    0 -0.56092572872E+02  0.19899029630E+02 -0.37709841964E+03  0.41913549862E+03  0.17300000000E+03 0.  1.
         -6    1    1    2    0  502  0.56092572872E+02 -0.19899029630E+02 -0.70008625694E+02  0.19588914157E+03  0.17300000000E+03 0.  1.
<mgrwt>
<rscale>  2 0.18295176E+03</rscale>
<asrwt>0</asrwt>
<pdfrwt beam="1">  1       21 0.12916738E-01 0.18295176E+03</pdfrwt>
<pdfrwt beam="2">  1       21 0.81702438E-01 0.18295176E+03</pdfrwt>
<totfact> 0.67721107E+04</totfact>
</mgrwt>
</event>
<event>
 4    1  0.3901757E+000  0.2082648E+03  0.7546771E-02  0.1142947E+00
         21   -1    0    0  503  502  0.00000000000E+00  0.00000000000E+00  0.32289585992E+03  0.32289585992E+03  0.00000000000E+00 0. -1.
         21   -1    0    0  501  503 -0.00000000000E+00 -0.00000000000E+00 -0.39072019102E+03  0.39072019102E+03  0.00000000000E+00 0. -1.
          6    1    1    2  501    0  0.95806969836E+02  0.65316663548E+02 -0.32294909244E+03  0.38427901103E+03  0.17300000000E+03 0. -1.
         -6    1    1    2    0  502 -0.95806969836E+02 -0.65316663548E+02  0.25512476135E+03  0.32933703991E+03  0.17300000000E+03 0. -1.
<mgrwt>
<rscale>  2 0.20826484E+03</rscale>
<asrwt>0</asrwt>
<pdfrwt beam="1">  1       21 0.49676286E-01 0.20826484E+03</pdfrwt>
<pdfrwt beam="2">  1       21 0.60110798E-01 0.20826484E+03</pdfrwt>
<totfact> 0.98626181E+03</totfact>
</mgrwt>
</event>
<event>
 4    1  0.3901757E+000  0.2027185E+03  0.7546771E-02  0.1147465E+00
         21   -1    0    0  501  502  0.00000000000E+00  0.00000000000E+00  0.18785250595E+03  0.18785250595E+03  0.00000000000E+00 0.  1.
         21   -1    0    0  502  503 -0.00000000000E+00 -0.00000000000E+00 -0.33762897394E+03  0.33762897394E+03  0.00000000000E+00 0. -1.
          6    1    1    2  501    0  0.10113200571E+03 -0.30628600147E+02  0.81009597887E+02  0.21830563134E+03  0.17300000000E+03 0.  1.
         -6    1    1    2    0  503 -0.10113200571E+03  0.30628600147E+02 -0.23078606588E+03  0.30717584854E+03  0.17300000000E+03 0. -1.
<mgrwt>
<rscale>  2 0.20271851E+03</rscale>
<asrwt>0</asrwt>
<pdfrwt beam="1">  1       21 0.28900386E-01 0.20271851E+03</pdfrwt>
<pdfrwt beam="2">  1       21 0.51942919E-01 0.20271851E+03</pdfrwt>
<totfact> 0.40108811E+04</totfact>
</mgrwt>
</event>
<event>
 4    1  0.3901757E+000  0.4811377E+03  0.7546771E-02  0.1018823E+00
         21   -1    0    0  503  502  0.00000000000E+00  0.00000000000E+00  0.84878534715E+03  0.84878534715E+03  0.00000000000E+00 0. -1.
         21   -1    0    0  501  503 -0.00000000000E+00 -0.00000000000E+00 -0.28915620931E+03  0.28915620931E+03  0.00000000000E+00 0.  1.
          6    1    1    2  501    0  0.14318650679E+03 -0.42551390829E+03  0.41540418199E+03  0.63565249649E+03  0.17300000000E+03 0. -1.
         -6    1    1    2    0  502 -0.14318650679E+03  0.42551390829E+03  0.14422495585E+03  0.50228905997E+03  0.17300000000E+03 0.  1.
<mgrwt>
<rscale>  2 0.48113767E+03</rscale>
<asrwt>0</asrwt>
<pdfrwt beam="1">  1       21 0.13058236E+00 0.48113767E+03</pdfrwt>
<pdfrwt beam="2">  1       21 0.44485571E-01 0.48113767E+03</pdfrwt>
<totfact> 0.17566265E+03</totfact>
</mgrwt>
</event>
<event>
 4    1  0.3901757E+000  0.1783014E+03  0.7546771E-02  0.1169457E+00
         21   -1    0    0  503  502  0.00000000000E+00  0.00000000000E+00  0.10203101899E+04  0.10203101899E+04  0.00000000000E+00 0.  1.
         21   -1    0    0  501  503 -0.00000000000E+00 -0.00000000000E+00 -0.45966870892E+02  0.45966870892E+02  0.00000000000E+00 0. -1.
          6    1    1    2  501    0  0.18499495282E+02  0.38989268546E+02  0.18457063861E+03  0.25662758041E+03  0.17300000000E+03 0. -1.
         -6    1    1    2    0  502 -0.18499495282E+02 -0.38989268546E+02  0.78977268035E+03  0.80964948034E+03  0.17300000000E+03 0.  1.
<mgrwt>
<rscale>  2 0.17830141E+03</rscale>
<asrwt>0</asrwt>
<pdfrwt beam="1">  1       21 0.15697078E+00 0.17830141E+03</pdfrwt>
<pdfrwt beam="2">  1       21 0.70718271E-02 0.17830141E+03</pdfrwt>
<totfact> 0.39723317E+04</totfact>
</mgrwt>
</event>
<event>
 4    1  0.3901757E+000  0.2132550E+03  0.7546771E-02  0.1139014E+00
         21   -1    0    0  501  502  0.00000000000E+00  0.00000000000E+00  0.15559828269E+03  0.15559828269E+03  0.00000000000E+00 0. -1.
         21   -1    0    0  502  503 -0.00000000000E+00 -0.00000000000E+00 -0.17214066501E+04  0.17214066501E+04  0.00000000000E+00 0. -1.
          6    1    1    2  501    0 -0.57766535169E+02  0.11050668759E+03  0.72220792334E+02  0.22515226721E+03  0.17300000000E+03 0. -1.
         -6    1    1    2    0  503  0.57766535169E+02 -0.11050668759E+03 -0.16380291597E+04  0.16518526656E+04  0.17300000000E+03 0. -1.
<mgrwt>
<rscale>  2 0.21325501E+03</rscale>
<asrwt>0</asrwt>
<pdfrwt beam="1">  1       21 0.23938198E-01 0.21325501E+03</pdfrwt>
<pdfrwt beam="2">  1       21 0.26483178E+00 0.21325501E+03</pdfrwt>
<totfact> 0.87363460E+02</totfact>
</mgrwt>
</event>
<event>
 4    1  0.3901757E+000  0.2123649E+03  0.7546771E-02  0.1139707E+00
         21   -1    0    0  501  502  0.00000000000E+00  0.00000000000E+00  0.62860477745E+03  0.62860477745E+03  0.00000000000E+00 0.  1.
         21   -1    0    0  502  503 -0.00000000000E+00 -0.00000000000E+00 -0.76677677473E+02  0.76677677473E+02  0.00000000000E+00 0. -1.
          6    1    1    2  501    0  0.56083484530E+02 -0.10965622862E+03  0.36541106167E+03  0.42263943227E+03  0.17300000000E+03 0.  1.
         -6    1    1    2    0  503 -0.56083484530E+02  0.10965622862E+03  0.18651603831E+03  0.28264302266E+03  0.17300000000E+03 0. -1.
<mgrwt>
<rscale>  2 0.21236489E+03</rscale>
<asrwt>0</asrwt>
<pdfrwt beam="1">  1       21 0.96708424E-01 0.21236489E+03</pdfrwt>
<pdfrwt beam="2">  1       21 0.11796566E-01 0.21236489E+03</pdfrwt>
<totfact> 0.53229094E+04</totfact>
</mgrwt>
</event>
<event>
 4    1  0.3901757E+000  0.1752382E+03  0.7546771E-02  0.1172493E+00
         21   -1    0    0  503  502  0.00000000000E+00  0.00000000000E+00  0.10945992119E+04  0.10945992119E+04  0.00000000000E+00 0.  1.
         21   -1    0    0  501  503 -0.00000000000E+00 -0.00000000000E+00 -0.56363645486E+02  0.56363645486E+02  0.00000000000E+00 0.  1.
          6    1    1    2  501    0  0.25266524143E+02 -0.11875757820E+02  0.11127275255E+03  0.20758144504E+03  0.17300000000E+03 0.  1.
         -6    1    1    2    0  502 -0.25266524143E+02  0.11875757820E+02  0.92696281390E+03  0.94338141238E+03  0.17300000000E+03 0.  1.
<mgrwt>
<rscale>  2 0.17523821E+03</rscale>
<asrwt>0</asrwt>
<pdfrwt beam="1">  1       21 0.16839986E+00 0.17523821E+03</pdfrwt>
<pdfrwt beam="2">  1       21 0.86713309E-02 0.17523821E+03</pdfrwt>
<totfact> 0.23111808E+04</totfact>
</mgrwt>
</event>
<event>
 4    1  0.3901757E+000  0.1956366E+03  0.7546771E-02  0.1153474E+00
         21   -1    0    0  503  502  0.00000000000E+00  0.00000000000E+00  0.90591366208E+03  0.90591366208E+03  0.00000000000E+00 0. -1.
         21   -1    0    0  501  503 -0.00000000000E+00 -0.00000000000E+00 -0.60716480001E+02  0.60716480001E+02  0.00000000000E+00 0. -1.
          6    1    1    2  501    0  0.10874704162E+02 -0.90699514622E+02  0.68915219876E+03  0.71638286844E+03  0.17300000000E+03 0. -1.
         -6    1    1    2    0  502 -0.10874704162E+02  0.90699514622E+02  0.15604498332E+03  0.25024727364E+03  0.17300000000E+03 0. -1.
<mgrwt>
<rscale>  2 0.19563655E+03</rscale>
<asrwt>0</asrwt>
<pdfrwt beam="1">  1       21 0.13937132E+00 0.19563655E+03</pdfrwt>
<pdfrwt beam="2">  1       21 0.93409976E-02 0.19563655E+03</pdfrwt>
<totfact> 0.33067445E+04</totfact>
</mgrwt>
</event>
<event>
 4    1  0.3901757E+000  0.2720925E+03  0.7546771E-02  0.1100088E+00
         21   -1    0    0  501  502  0.00000000000E+00  0.00000000000E+00  0.16026216446E+04  0.16026216446E+04  0.00000000000E+00 0.  1.
         21   -1    0    0  502  503 -0.00000000000E+00 -0.00000000000E+00 -0.63907265136E+02  0.63907265136E+02  0.00000000000E+00 0.  1.
          6    1    1    2  501    0  0.65577157542E+02 -0.19951182747E+03  0.12080246429E+04  0.12382882825E+04  0.17300000000E+03 0.  1.
         -6    1    1    2    0  503 -0.65577157542E+02  0.19951182747E+03  0.33068973659E+03  0.42824062719E+03  0.17300000000E+03 0.  1.
<mgrwt>
<rscale>  2 0.27209251E+03</rscale>
<asrwt>0</asrwt>
<pdfrwt beam="1">  1       21 0.24655715E+00 0.27209251E+03</pdfrwt>
<pdfrwt beam="2">  1       21 0.98318882E-02 0.27209251E+03</pdfrwt>
<totfact> 0.54387508E+03</totfact>
</mgrwt>
</event>
<event>
 4    1  0.3901757E+000  0.2282428E+03  0.7546771E-02  0.1127883E+00
         21   -1    0    0  501  502  0.00000000000E+00  0.00000000000E+00  0.39404571624E+03  0.39404571624E+03  0.00000000000E+00 0. -1.
         21   -1    0    0  502  503 -0.00000000000E+00 -0.00000000000E+00 -0.15488724598E+03  0.15488724598E+03  0.00000000000E+00 0.  1.
          6    1    1    2  501    0  0.13680714094E+03 -0.58733241875E+02  0.14546383948E+02  0.22870589148E+03  0.17300000000E+03 0.  1.
         -6    1    1    2    0  503 -0.13680714094E+03  0.58733241875E+02  0.22461208631E+03  0.32022707073E+03  0.17300000000E+03 0.  1.
<mgrwt>
<rscale>  2 0.22824283E+03</rscale>
<asrwt>0</asrwt>
<pdfrwt beam="1">  1       21 0.60622417E-01 0.22824283E+03</pdfrwt>
<pdfrwt beam="2">  1       21 0.23828807E-01 0.22824283E+03</pdfrwt>
<totfact> 0.41332223E+04</totfact>
</mgrwt>
</event>
<event>
 4    1  0.3901757E+000  0.2004212E+03  0.7546771E-02  0.1149384E+00
         21   -1    0    0  503  502  0.00000000000E+00  0.00000000000E+00  0.53179018311E+02  0.53179018311E+02  0.00000000000E+00 0.  1.
         21   -1    0    0  501  503 -0.00000000000E+00 -0.00000000000E+00 -0.75656943955E+03  0.75656943955E+03  0.00000000000E+00 0. -1.
          6    1    1    2  501    0 -0.14401581165E+02  0.10016103823E+03 -0.33542404592E+03  0.39074023302E+03  0.17300000000E+03 0. -1.
         -6    1    1    2    0  502  0.14401581165E+02 -0.10016103823E+03 -0.36796637532E+03  0.41900822484E+03  0.17300000000E+03 0. -1.
<mgrwt>
<rscale>  2 0.20042115E+03</rscale>
<asrwt>0</asrwt>
<pdfrwt beam="1">  1       21 0.81813886E-02 0.20042115E+03</pdfrwt>
<pdfrwt beam="2">  1       21 0.11639528E+00 0.20042115E+03</pdfrwt>
<totfact> 0.65441946E+04</totfact>
</mgrwt>
</event>
<event>
 4    1  0.3901757E+000  0.2619984E+03  0.7546771E-02  0.1105948E+00
         21   -1    0    0  501  502  0.00000000000E+00  0.00000000000E+00  0.25382431005E+03  0.25382431005E+03  0.00000000000E+00 0. -1.
         21   -1    0    0  502  503 -0.00000000000E+00 -0.00000000000E+00 -0.93655188483E+03  0.93655188483E+03  0.00000000000E+00 0.  1.
          6    1    1    2  501    0 -0.21351062815E+02  0.19559726305E+03  0.16058950435E+03  0.30729813879E+03  0.17300000000E+03 0. -1.
         -6    1    1    2    0  503  0.21351062815E+02 -0.19559726305E+03 -0.84331707913E+03  0.88307805609E+03  0.17300000000E+03 0.  1.
<mgrwt>
<rscale>  2 0.26199839E+03</rscale>
<asrwt>0</asrwt>
<pdfrwt beam="1">  1       21 0.39049893E-01 0.26199839E+03</pdfrwt>
<pdfrwt beam="2">  1       21 0.14408491E+00 0.26199839E+03</pdfrwt>
<totfact> 0.19825880E+03</totfact>
</mgrwt>
</event>
<event>
 4    1  0.3901757E+000  0.2780122E+03  0.7546771E-02  0.1096780E+00
         21   -1    0    0  503  502  0.00000000000E+00  0.00000000000E+00  0.36641654206E+03  0.36641654206E+03  0.00000000000E+00 0.  1.
         21   -1    0    0  501  503 -0.00000000000E+00 -0.00000000000E+00 -0.22589222519E+03  0.22589222519E+03  0.00000000000E+00 0. -1.
          6    1    1    2  501    0  0.20827507094E+03 -0.63113136914E+02  0.14646397173E+03  0.31423314313E+03  0.17300000000E+03 0.  1.
         -6    1    1    2    0  502 -0.20827507094E+03  0.63113136914E+02 -0.59396548647E+01  0.27807562411E+03  0.17300000000E+03 0. -1.
<mgrwt>
<rscale>  2 0.27801218E+03</rscale>
<asrwt>0</asrwt>
<pdfrwt beam="1">  1       21 0.56371776E-01 0.27801218E+03</pdfrwt>
<pdfrwt beam="2">  1       21 0.34752650E-01 0.27801218E+03</pdfrwt>
<totfact> 0.22635471E+04</totfact>
</mgrwt>
</event>
<event>
 4    1  0.3901757E+000  0.1940044E+03  0.7546771E-02  0.1154898E+00
         21   -1    0    0  503  502  0.00000000000E+00  0.00000000000E+00  0.90786019018E+03  0.90786019018E+03  0.00000000000E+00 0.  1.
         21   -1    0    0  501  503 -0.00000000000E+00 -0.00000000000E+00 -0.54679454740E+02  0.54679454740E+02  0.00000000000E+00 0.  1.
          6    1    1    2  501    0  0.70684238035E+02 -0.52081159647E+02  0.18993156667E+03  0.27149900316E+03  0.17300000000E+03 0.  1.
         -6    1    1    2    0  502 -0.70684238035E+02  0.52081159647E+02  0.66324916877E+03  0.69104064176E+03  0.17300000000E+03 0.  1.
<mgrwt>
<rscale>  2 0.19400440E+03</rscale>
<asrwt>0</asrwt>
<pdfrwt beam="1">  1       21 0.13967079E+00 0.19400440E+03</pdfrwt>
<pdfrwt beam="2">  1       21 0.84122245E-02 0.19400440E+03</pdfrwt>
<totfact> 0.39549497E+04</totfact>
</mgrwt>
</event>
<event>
 4    1  0.3901757E+000  0.2041690E+03  0.7546771E-02  0.1146268E+00
         21   -1    0    0  501  502  0.00000000000E+00  0.00000000000E+00  0.15227918318E+03  0.15227918318E+03  0.00000000000E+00 0. -1.
         21   -1    0    0  502  503 -0.00000000000E+00 -0.00000000000E+00 -0.31185065911E+03  0.31185065911E+03  0.00000000000E+00 0. -1.
          6    1    1    2  501    0 -0.50671165540E+02  0.95856298039E+02 -0.16091096100E+03  0.25995640839E+03  0.17300000000E+03 0. -1.
         -6    1    1    2    0  503  0.50671165540E+02 -0.95856298039E+02  0.13394850665E+01  0.20417343390E+03  0.17300000000E+03 0. -1.
<mgrwt>
<rscale>  2 0.20416904E+03</rscale>
<asrwt>0</asrwt>
<pdfrwt beam="1">  1       21 0.23427567E-01 0.20416904E+03</pdfrwt>
<pdfrwt beam="2">  1       21 0.47977025E-01 0.20416904E+03</pdfrwt>
<totfact> 0.70799853E+04</totfact>
</mgrwt>
</event>
<event>
 4    1  0.3901757E+000  0.1827993E+03  0.7546771E-02  0.1165121E+00
         21   -1    0    0  503  502  0.00000000000E+00  0.00000000000E+00  0.11247287344E+03  0.11247287344E+03  0.00000000000E+00 0. -1.
         21   -1    0    0  501  503 -0.00000000000E+00 -0.00000000000E+00 -0.37899508468E+03  0.37899508468E+03  0.00000000000E+00 0. -1.
          6    1    1    2  501    0 -0.47148833261E+01 -0.58858757149E+02 -0.24749102533E+03  0.30768066406E+03  0.17300000000E+03 0. -1.
         -6    1    1    2    0  502  0.47148833261E+01  0.58858757149E+02 -0.19031185912E+02  0.18378729405E+03  0.17300000000E+03 0. -1.
<mgrwt>
<rscale>  2 0.18279930E+03</rscale>
<asrwt>0</asrwt>
<pdfrwt beam="1">  1       21 0.17303519E-01 0.18279930E+03</pdfrwt>
<pdfrwt beam="2">  1       21 0.58306937E-01 0.18279930E+03</pdfrwt>
<totfact> 0.83526117E+04</totfact>
</mgrwt>
</event>
<event>
 4    1  0.3901757E+000  0.2270009E+03  0.7546771E-02  0.1128769E+00
         21   -1    0    0  501  502  0.00000000000E+00  0.00000000000E+00  0.97812125755E+02  0.97812125755E+02  0.00000000000E+00 0.  1.
         21   -1    0    0  502  503 -0.00000000000E+00 -0.00000000000E+00 -0.62385031526E+03  0.62385031526E+03  0.00000000000E+00 0. -1.
          6    1    1    2  501    0  0.13020445502E+03 -0.68170509703E+02 -0.12071518190E+03  0.25710226300E+03  0.17300000000E+03 0.  1.
         -6    1    1    2    0  503 -0.13020445502E+03  0.68170509703E+02 -0.40532300760E+03  0.46456017801E+03  0.17300000000E+03 0. -1.
<mgrwt>
<rscale>  2 0.22700092E+03</rscale>
<asrwt>0</asrwt>
<pdfrwt beam="1">  1       21 0.15048020E-01 0.22700092E+03</pdfrwt>
<pdfrwt beam="2">  1       21 0.95976968E-01 0.22700092E+03</pdfrwt>
<totfact> 0.34636571E+04</totfact>
</mgrwt>
</event>
<event>
 4    1  0.3901757E+000  0.1825879E+03  0.7546771E-02  0.1165322E+00
         21   -1    0    0  503  502  0.00000000000E+00  0.00000000000E+00  0.89213773320E+02  0.89213773320E+02  0.00000000000E+00 0. -1.
         21   -1    0    0  501  503 -0.00000000000E+00 -0.00000000000E+00 -0.60477275590E+03  0.60477275590E+03  0.00000000000E+00 0. -1.
          6    1    1    2  501    0  0.45806202470E+02 -0.36209432662E+02 -0.47227012037E+03  0.50633723722E+03  0.17300000000E+03 0. -1.
         -6    1    1    2    0  502 -0.45806202470E+02  0.36209432662E+02 -0.43288862213E+02  0.18764929201E+03  0.17300000000E+03 0. -1.
<mgrwt>
<rscale>  2 0.18258787E+03</rscale>
<asrwt>0</asrwt>
<pdfrwt beam="1">  1       21 0.13725196E-01 0.18258787E+03</pdfrwt>
<pdfrwt beam="2">  1       21 0.93041961E-01 0.18258787E+03</pdfrwt>
<totfact> 0.45050299E+04</totfact>
</mgrwt>
</event>
<event>
 4    1  0.3901757E+000  0.1774259E+03  0.7546771E-02  0.1170318E+00
         21   -1    0    0  501  502  0.00000000000E+00  0.00000000000E+00  0.16893456701E+03  0.16893456701E+03  0.00000000000E+00 0. -1.
         21   -1    0    0  502  503 -0.00000000000E+00 -0.00000000000E+00 -0.22540130334E+03  0.22540130334E+03  0.00000000000E+00 0. -1.
          6    1    1    2  501    0 -0.17149842690E+02 -0.35451925340E+02  0.53841231145E+02  0.18541530219E+03  0.17300000000E+03 0. -1.
         -6    1    1    2    0  503  0.17149842690E+02  0.35451925340E+02 -0.11030796747E+03  0.20892056816E+03  0.17300000000E+03 0. -1.
<mgrwt>
<rscale>  2 0.17742592E+03</rscale>
<asrwt>0</asrwt>
<pdfrwt beam="1">  1       21 0.25989933E-01 0.17742592E+03</pdfrwt>
<pdfrwt beam="2">  1       21 0.34677124E-01 0.17742592E+03</pdfrwt>
<totfact> 0.11333519E+05</totfact>
</mgrwt>
</event>
<event>
 4    1  0.3901757E+000  0.1841601E+03  0.7546771E-02  0.1163837E+00
         21   -1    0    0  503  502  0.00000000000E+00  0.00000000000E+00  0.59970847049E+03  0.59970847049E+03  0.00000000000E+00 0.  1.
         21   -1    0    0  501  503 -0.00000000000E+00 -0.00000000000E+00 -0.90803336906E+02  0.90803336906E+02  0.00000000000E+00 0.  1.
          6    1    1    2  501    0 -0.58902349511E+02 -0.22725647664E+02  0.42408288407E+02  0.18897990572E+03  0.17300000000E+03 0.  1.
         -6    1    1    2    0  502  0.58902349511E+02  0.22725647664E+02  0.46649684518E+03  0.50153190168E+03  0.17300000000E+03 0.  1.
<mgrwt>
<rscale>  2 0.18416010E+03</rscale>
<asrwt>0</asrwt>
<pdfrwt beam="1">  1       21 0.92262839E-01 0.18416010E+03</pdfrwt>
<pdfrwt beam="2">  1       21 0.13969745E-01 0.18416010E+03</pdfrwt>
<totfact> 0.44461046E+04</totfact>
</mgrwt>
</event>
<event>
 4    1  0.3901757E+000  0.1873926E+03  0.7546771E-02  0.1160834E+00
         21   -1    0    0  501  502  0.00000000000E+00  0.00000000000E+00  0.25882898310E+03  0.25882898310E+03  0.00000000000E+00 0. -1.
         21   -1    0    0  502  503 -0.00000000000E+00 -0.00000000000E+00 -0.36655901403E+03  0.36655901403E+03  0.00000000000E+00 0. -1.
          6    1    1    2  501    0  0.60517374950E+02 -0.39046500605E+02  0.19430359746E+03  0.26994419769E+03  0.17300000000E+03 0. -1.
         -6    1    1    2    0  503 -0.60517374950E+02  0.39046500605E+02 -0.30203362840E+03  0.35544379944E+03  0.17300000000E+03 0. -1.
<mgrwt>
<rscale>  2 0.18739259E+03</rscale>
<asrwt>0</asrwt>
<pdfrwt beam="1">  1       21 0.39819844E-01 0.18739259E+03</pdfrwt>
<pdfrwt beam="2">  1       21 0.56393694E-01 0.18739259E+03</pdfrwt>
<totfact> 0.18038453E+04</totfact>
</mgrwt>
</event>
<event>
 4    1  0.3901757E+000  0.2513341E+03  0.7546771E-02  0.1112465E+00
         21   -1    0    0  501  502  0.00000000000E+00  0.00000000000E+00  0.67820825971E+02  0.67820825971E+02  0.00000000000E+00 0.  1.
         21   -1    0    0  502  503 -0.00000000000E+00 -0.00000000000E+00 -0.11280338329E+04  0.11280338329E+04  0.00000000000E+00 0. -1.
          6    1    1    2  501    0  0.37410693038E+02 -0.17843836701E+03 -0.28046980598E+03  0.37660605789E+03  0.17300000000E+03 0.  1.
         -6    1    1    2    0  503 -0.37410693038E+02  0.17843836701E+03 -0.77974320091E+03  0.81924860094E+03  0.17300000000E+03 0.  1.
<mgrwt>
<rscale>  2 0.25133406E+03</rscale>
<asrwt>0</asrwt>
<pdfrwt beam="1">  1       21 0.10433973E-01 0.25133406E+03</pdfrwt>
<pdfrwt beam="2">  1       21 0.17354367E+00 0.25133406E+03</pdfrwt>
<totfact> 0.14583421E+04</totfact>
</mgrwt>
</event>
<event>
 4    1  0.3901757E+000  0.2314036E+03  0.7546771E-02  0.1125656E+00
         21   -1    0    0  501  502  0.00000000000E+00  0.00000000000E+00  0.40217174282E+02  0.40217174282E+02  0.00000000000E+00 0.  1.
         21   -1    0    0  502  503 -0.00000000000E+00 -0.00000000000E+00 -0.15487452006E+04  0.15487452006E+04  0.00000000000E+00 0. -1.
          6    1    1    2  501    0 -0.60339842128E+02  0.14134263360E+03 -0.10518460916E+04  0.10769994601E+04  0.17300000000E+03 0.  1.
         -6    1    1    2    0  503  0.60339842128E+02 -0.14134263360E+03 -0.45668193468E+03  0.51196291475E+03  0.17300000000E+03 0.  1.
<mgrwt>
<rscale>  2 0.23140362E+03</rscale>
<asrwt>0</asrwt>
<pdfrwt beam="1">  1       21 0.61872570E-02 0.23140362E+03</pdfrwt>
<pdfrwt beam="2">  1       21 0.23826851E+00 0.23140362E+03</pdfrwt>
<totfact> 0.14132071E+04</totfact>
</mgrwt>
</event>
<event>
 4    1  0.3901757E+000  0.1807662E+03  0.7546771E-02  0.1167064E+00
         21   -1    0    0  501  502  0.00000000000E+00  0.00000000000E+00  0.78135567270E+02  0.78135567270E+02  0.00000000000E+00 0.  1.
         21   -1    0    0  502  503 -0.00000000000E+00 -0.00000000000E+00 -0.42614525780E+03  0.42614525780E+03  0.00000000000E+00 0.  1.
          6    1    1    2  501    0  0.37383291165E+02  0.36740912334E+02 -0.13957945729E+03  0.22838307729E+03  0.17300000000E+03 0. -1.
         -6    1    1    2    0  503 -0.37383291165E+02 -0.36740912334E+02 -0.20843023324E+03  0.27589774777E+03  0.17300000000E+03 0. -1.
<mgrwt>
<rscale>  2 0.18076616E+03</rscale>
<asrwt>0</asrwt>
<pdfrwt beam="1">  1       21 0.12020857E-01 0.18076616E+03</pdfrwt>
<pdfrwt beam="2">  1       21 0.65560808E-01 0.18076616E+03</pdfrwt>
<totfact> 0.12566671E+05</totfact>
</mgrwt>
</event>
<event>
 4    1  0.3901757E+000  0.2189183E+03  0.7546771E-02  0.1134692E+00
         21   -1    0    0  503  502  0.00000000000E+00  0.00000000000E+00  0.24260537181E+03  0.24260537181E+03  0.00000000000E+00 0. -1.
         21   -1    0    0  501  503 -0.00000000000E+00 -0.00000000000E+00 -0.32637523562E+03  0.32637523562E+03  0.00000000000E+00 0.  1.
          6    1    1    2  501    0  0.11529029974E+03 -0.68588489300E+02 -0.22062399048E+03  0.31080569373E+03  0.17300000000E+03 0.  1.
         -6    1    1    2    0  502 -0.11529029974E+03  0.68588489300E+02  0.13685412667E+03  0.25817491370E+03  0.17300000000E+03 0. -1.
<mgrwt>
<rscale>  2 0.21891833E+03</rscale>
<asrwt>0</asrwt>
<pdfrwt beam="1">  1       21 0.37323904E-01 0.21891833E+03</pdfrwt>
<pdfrwt beam="2">  1       21 0.50211574E-01 0.21891833E+03</pdfrwt>
<totfact> 0.25771410E+04</totfact>
</mgrwt>
</event>
<event>
 4    1  0.3901757E+000  0.3090356E+03  0.7546771E-02  0.1080809E+00
         21   -1    0    0  503  502  0.00000000000E+00  0.00000000000E+00  0.16064939565E+03  0.16064939565E+03  0.00000000000E+00 0.  1.
         21   -1    0    0  501  503 -0.00000000000E+00 -0.00000000000E+00 -0.61157646876E+03  0.61157646876E+03  0.00000000000E+00 0. -1.
          6    1    1    2  501    0 -0.26928268020E+02 -0.25465444834E+03 -0.16090867221E+03  0.34841730794E+03  0.17300000000E+03 0.  1.
         -6    1    1    2    0  502  0.26928268020E+02  0.25465444834E+03 -0.29001840090E+03  0.42380855647E+03  0.17300000000E+03 0. -1.
<mgrwt>
<rscale>  2 0.30903563E+03</rscale>
<asrwt>0</asrwt>
<pdfrwt beam="1">  1       21 0.24715291E-01 0.30903563E+03</pdfrwt>
<pdfrwt beam="2">  1       21 0.94088688E-01 0.30903563E+03</pdfrwt>
<totfact> 0.13786148E+04</totfact>
</mgrwt>
</event>
<event>
 4    1  0.3901757E+000  0.1824004E+03  0.7546771E-02  0.1165500E+00
         21   -1    0    0  503  502  0.00000000000E+00  0.00000000000E+00  0.21673473804E+03  0.21673473804E+03  0.00000000000E+00 0. -1.
         21   -1    0    0  501  503 -0.00000000000E+00 -0.00000000000E+00 -0.24724733315E+03  0.24724733315E+03  0.00000000000E+00 0. -1.
          6    1    1    2  501    0  0.57735958448E+02  0.27343161218E+01 -0.15810382425E+03  0.24138503811E+03  0.17300000000E+03 0. -1.
         -6    1    1    2    0  502 -0.57735958448E+02 -0.27343161218E+01  0.12759122914E+03  0.22259703308E+03  0.17300000000E+03 0. -1.
<mgrwt>
<rscale>  2 0.18240043E+03</rscale>
<asrwt>0</asrwt>
<pdfrwt beam="1">  1       21 0.33343806E-01 0.18240043E+03</pdfrwt>
<pdfrwt beam="2">  1       21 0.38038051E-01 0.18240043E+03</pdfrwt>
<totfact> 0.57997851E+04</totfact>
</mgrwt>
</event>
<event>
 4    1  0.3901757E+000  0.2532442E+03  0.7546771E-02  0.1111272E+00
         21   -1    0    0  501  502  0.00000000000E+00  0.00000000000E+00  0.26359659600E+03  0.26359659600E+03  0.00000000000E+00 0.  1.
         21   -1    0    0  502  503 -0.00000000000E+00 -0.00000000000E+00 -0.25151095959E+03  0.25151095959E+03  0.00000000000E+00 0. -1.
          6    1    1    2  501    0  0.10408278828E+03 -0.15287384792E+03  0.52582961606E+02  0.25864571917E+03  0.17300000000E+03 0. -1.
         -6    1    1    2    0  503 -0.10408278828E+03  0.15287384792E+03 -0.40497325199E+02  0.25646183642E+03  0.17300000000E+03 0. -1.
<mgrwt>
<rscale>  2 0.25324423E+03</rscale>
<asrwt>0</asrwt>
<pdfrwt beam="1">  1       21 0.40553322E-01 0.25324423E+03</pdfrwt>
<pdfrwt beam="2">  1       21 0.38693994E-01 0.25324423E+03</pdfrwt>
<totfact> 0.36661266E+04</totfact>
</mgrwt>
</event>
<event>
 4    1  0.3901757E+000  0.1784727E+03  0.7546771E-02  0.1169289E+00
         21   -1    0    0  503  502  0.00000000000E+00  0.00000000000E+00  0.64511381037E+02  0.64511381037E+02  0.00000000000E+00 0.  1.
         21   -1    0    0  501  503 -0.00000000000E+00 -0.00000000000E+00 -0.94628793780E+03  0.94628793780E+03  0.00000000000E+00 0.  1.
          6    1    1    2  501    0 -0.43687117673E+02  0.38632112508E+01 -0.79039121744E+03  0.81029054373E+03  0.17300000000E+03 0.  1.
         -6    1    1    2    0  502  0.43687117673E+02 -0.38632112508E+01 -0.91385339324E+02  0.20050877511E+03  0.17300000000E+03 0.  1.
<mgrwt>
<rscale>  2 0.17847266E+03</rscale>
<asrwt>0</asrwt>
<pdfrwt beam="1">  1       21 0.99248276E-02 0.17847266E+03</pdfrwt>
<pdfrwt beam="2">  1       21 0.14558276E+00 0.17847266E+03</pdfrwt>
<totfact> 0.26823994E+04</totfact>
</mgrwt>
</event>
<event>
 4    1  0.3901757E+000  0.1768032E+03  0.7546771E-02  0.1170933E+00
         21   -1    0    0  501  502  0.00000000000E+00  0.00000000000E+00  0.29239609839E+03  0.29239609839E+03  0.00000000000E+00 0. -1.
         21   -1    0    0  502  503 -0.00000000000E+00 -0.00000000000E+00 -0.11656057858E+03  0.11656057858E+03  0.00000000000E+00 0. -1.
          6    1    1    2  501    0  0.35271355418E+01 -0.36303359940E+02  0.14676165339E+03  0.22977893187E+03  0.17300000000E+03 0. -1.
         -6    1    1    2    0  503 -0.35271355418E+01  0.36303359940E+02  0.29073866430E+02  0.17917774509E+03  0.17300000000E+03 0. -1.
<mgrwt>
<rscale>  2 0.17680321E+03</rscale>
<asrwt>0</asrwt>
<pdfrwt beam="1">  1       21 0.44984015E-01 0.17680321E+03</pdfrwt>
<pdfrwt beam="2">  1       21 0.17932397E-01 0.17680321E+03</pdfrwt>
<totfact> 0.13479130E+05</totfact>
</mgrwt>
</event>
<event>
 4    1  0.3901757E+000  0.1958589E+03  0.7546771E-02  0.1153281E+00
         21   -1    0    0  503  502  0.00000000000E+00  0.00000000000E+00  0.11482678967E+03  0.11482678967E+03  0.00000000000E+00 0.  1.
         21   -1    0    0  501  503 -0.00000000000E+00 -0.00000000000E+00 -0.53157777070E+03  0.53157777070E+03  0.00000000000E+00 0. -1.
          6    1    1    2  501    0 -0.21449473251E+02 -0.89284046050E+02 -0.40538082215E+03  0.45021587239E+03  0.17300000000E+03 0. -1.
         -6    1    1    2    0  502  0.21449473251E+02  0.89284046050E+02 -0.11370158878E+02  0.19618868799E+03  0.17300000000E+03 0.  1.
<mgrwt>
<rscale>  2 0.19585893E+03</rscale>
<asrwt>0</asrwt>
<pdfrwt beam="1">  1       21 0.17665660E-01 0.19585893E+03</pdfrwt>
<pdfrwt beam="2">  1       21 0.81781194E-01 0.19585893E+03</pdfrwt>
<totfact> 0.37966094E+04</totfact>
</mgrwt>
</event>
<event>
 4    1  0.3901757E+000  0.1937721E+03  0.7546771E-02  0.1155103E+00
         21   -1    0    0  501  502  0.00000000000E+00  0.00000000000E+00  0.14445584751E+03  0.14445584751E+03  0.00000000000E+00 0.  1.
         21   -1    0    0  502  503 -0.00000000000E+00 -0.00000000000E+00 -0.26954603452E+03  0.26954603452E+03  0.00000000000E+00 0.  1.
          6    1    1    2  501    0 -0.69543383505E+02  0.52747793268E+02 -0.23435947011E+02  0.19518415790E+03  0.17300000000E+03 0.  1.
         -6    1    1    2    0  503  0.69543383505E+02 -0.52747793268E+02 -0.10165423999E+03  0.21881772413E+03  0.17300000000E+03 0.  1.
<mgrwt>
<rscale>  2 0.19377206E+03</rscale>
<asrwt>0</asrwt>
<pdfrwt beam="1">  1       21 0.22223977E-01 0.19377206E+03</pdfrwt>
<pdfrwt beam="2">  1       21 0.41468621E-01 0.19377206E+03</pdfrwt>
<totfact> 0.10599871E+05</totfact>
</mgrwt>
</event>
<event>
 4    1  0.3901757E+000  0.1987314E+03  0.7546771E-02  0.1150814E+00
         21   -1    0    0  501  502  0.00000000000E+00  0.00000000000E+00  0.17101373602E+03  0.17101373602E+03  0.00000000000E+00 0.  1.
         21   -1    0    0  502  503 -0.00000000000E+00 -0.00000000000E+00 -0.24787931568E+03  0.24787931568E+03  0.00000000000E+00 0.  1.
          6    1    1    2  501    0  0.90599439840E+02  0.36836406752E+02  0.16316806318E+02  0.19940014426E+03  0.17300000000E+03 0.  1.
         -6    1    1    2    0  503 -0.90599439840E+02 -0.36836406752E+02 -0.93182385981E+02  0.21949290745E+03  0.17300000000E+03 0.  1.
<mgrwt>
<rscale>  2 0.19873143E+03</rscale>
<asrwt>0</asrwt>
<pdfrwt beam="1">  1       21 0.26309806E-01 0.19873143E+03</pdfrwt>
<pdfrwt beam="2">  1       21 0.38135279E-01 0.19873143E+03</pdfrwt>
<totfact> 0.90858677E+04</totfact>
</mgrwt>
</event>
<event>
 4    1  0.3901757E+000  0.2165258E+03  0.7546771E-02  0.1136500E+00
         21   -1    0    0  501  502  0.00000000000E+00  0.00000000000E+00  0.38273170590E+03  0.38273170590E+03  0.00000000000E+00 0. -1.
         21   -1    0    0  502  503 -0.00000000000E+00 -0.00000000000E+00 -0.28362592666E+03  0.28362592666E+03  0.00000000000E+00 0. -1.
          6    1    1    2  501    0  0.49241719506E+02  0.12053908113E+03  0.30067873755E+03  0.37052816389E+03  0.17300000000E+03 0. -1.
         -6    1    1    2    0  503 -0.49241719506E+02 -0.12053908113E+03 -0.20157295831E+03  0.29582946868E+03  0.17300000000E+03 0. -1.
<mgrwt>
<rscale>  2 0.21652579E+03</rscale>
<asrwt>0</asrwt>
<pdfrwt beam="1">  1       21 0.58881801E-01 0.21652579E+03</pdfrwt>
<pdfrwt beam="2">  1       21 0.43634758E-01 0.21652579E+03</pdfrwt>
<totfact> 0.13412211E+04</totfact>
</mgrwt>
</event>
<event>
 4    1  0.3901757E+000  0.1964979E+03  0.7546771E-02  0.1152728E+00
         21   -1    0    0  503  502  0.00000000000E+00  0.00000000000E+00  0.24973226768E+04  0.24973226768E+04  0.00000000000E+00 0.  1.
         21   -1    0    0  501  503 -0.00000000000E+00 -0.00000000000E+00 -0.54328567506E+02  0.54328567506E+02  0.00000000000E+00 0.  1.
          6    1    1    2  501    0 -0.58416209244E+02  0.72594573840E+02  0.14237601971E+03  0.24265687017E+03  0.17300000000E+03 0.  1.
         -6    1    1    2    0  502  0.58416209244E+02 -0.72594573840E+02  0.23006180895E+04  0.23089943741E+04  0.17300000000E+03 0.  1.
<mgrwt>
<rscale>  2 0.19649790E+03</rscale>
<asrwt>0</asrwt>
<pdfrwt beam="1">  1       21 0.38420340E+00 0.19649790E+03</pdfrwt>
<pdfrwt beam="2">  1       21 0.83582431E-02 0.19649790E+03</pdfrwt>
<totfact> 0.12051046E+03</totfact>
</mgrwt>
</event>
<event>
 4    1  0.3901757E+000  0.1733136E+03  0.7546771E-02  0.1174436E+00
         21   -1    0    0  501  502  0.00000000000E+00  0.00000000000E+00  0.15238078224E+03  0.15238078224E+03  0.00000000000E+00 0.  1.
         21   -1    0    0  502  503 -0.00000000000E+00 -0.00000000000E+00 -0.27761978425E+03  0.27761978425E+03  0.00000000000E+00 0.  1.
          6    1    1    2  501    0  0.87069129796E+01  0.57274609556E+01  0.53153054376E+02  0.18128116651E+03  0.17300000000E+03 0.  1.
         -6    1    1    2    0  503 -0.87069129796E+01 -0.57274609556E+01 -0.17839205639E+03  0.24871939998E+03  0.17300000000E+03 0.  1.
<mgrwt>
<rscale>  2 0.17331363E+03</rscale>
<asrwt>0</asrwt>
<pdfrwt beam="1">  1       21 0.23443197E-01 0.17331363E+03</pdfrwt>
<pdfrwt beam="2">  1       21 0.42710736E-01 0.17331363E+03</pdfrwt>
<totfact> 0.90954271E+04</totfact>
</mgrwt>
</event>
<event>
 4    1  0.3901757E+000  0.1812521E+03  0.7546771E-02  0.1166597E+00
         21   -1    0    0  503  502  0.00000000000E+00  0.00000000000E+00  0.19780614185E+02  0.19780614185E+02  0.00000000000E+00 0. -1.
         21   -1    0    0  501  503 -0.00000000000E+00 -0.00000000000E+00 -0.16696190667E+04  0.16696190667E+04  0.00000000000E+00 0.  1.
          6    1    1    2  501    0  0.51074426572E+02 -0.17740668765E+02 -0.88618973724E+03  0.90453555970E+03  0.17300000000E+03 0. -1.
         -6    1    1    2    0  502 -0.51074426572E+02  0.17740668765E+02 -0.76364871530E+03  0.78486412121E+03  0.17300000000E+03 0.  1.
<mgrwt>
<rscale>  2 0.18125211E+03</rscale>
<asrwt>0</asrwt>
<pdfrwt beam="1">  1       21 0.30431720E-02 0.18125211E+03</pdfrwt>
<pdfrwt beam="2">  1       21 0.25686443E+00 0.18125211E+03</pdfrwt>
<totfact> 0.37811586E+04</totfact>
</mgrwt>
</event>
<event>
 4    1  0.3901757E+000  0.1908321E+03  0.7546771E-02  0.1157713E+00
         21   -1    0    0  503  502  0.00000000000E+00  0.00000000000E+00  0.67123087692E+03  0.67123087692E+03  0.00000000000E+00 0. -1.
         21   -1    0    0  501  503 -0.00000000000E+00 -0.00000000000E+00 -0.15408301092E+03  0.15408301092E+03  0.00000000000E+00 0. -1.
          6    1    1    2  501    0  0.80122151113E+02 -0.82667061760E+01 -0.73580739319E+02  0.20452633749E+03  0.17300000000E+03 0. -1.
         -6    1    1    2    0  502 -0.80122151113E+02  0.82667061760E+01  0.59072860531E+03  0.62078755035E+03  0.17300000000E+03 0. -1.
<mgrwt>
<rscale>  2 0.19083212E+03</rscale>
<asrwt>0</asrwt>
<pdfrwt beam="1">  1       21 0.10326629E+00 0.19083212E+03</pdfrwt>
<pdfrwt beam="2">  1       21 0.23705079E-01 0.19083212E+03</pdfrwt>
<totfact> 0.12760465E+04</totfact>
</mgrwt>
</event>
<event>
 4    1  0.3901757E+000  0.1811643E+03  0.7546771E-02  0.1166681E+00
         21   -1    0    0  503  502  0.00000000000E+00  0.00000000000E+00  0.43991027339E+03  0.43991027339E+03  0.00000000000E+00 0. -1.
         21   -1    0    0  501  503 -0.00000000000E+00 -0.00000000000E+00 -0.10751723683E+03  0.10751723683E+03  0.00000000000E+00 0.  1.
          6    1    1    2  501    0  0.61294407297E+01 -0.53422200324E+02  0.14763233444E+02  0.18176483321E+03  0.17300000000E+03 0.  1.
         -6    1    1    2    0  502 -0.61294407297E+01  0.53422200324E+02  0.31762980311E+03  0.36566267701E+03  0.17300000000E+03 0. -1.
<mgrwt>
<rscale>  2 0.18116429E+03</rscale>
<asrwt>0</asrwt>
<pdfrwt beam="1">  1       21 0.67678503E-01 0.18116429E+03</pdfrwt>
<pdfrwt beam="2">  1       21 0.16541114E-01 0.18116429E+03</pdfrwt>
<totfact> 0.65796455E+04</totfact>
</mgrwt>
</event>
<event>
 4    1  0.3901757E+000  0.2066390E+03  0.7546771E-02  0.1144256E+00
         21   -1    0    0  503  502  0.00000000000E+00  0.00000000000E+00  0.28635137391E+03  0.28635137391E+03  0.00000000000E+00 0.  1.
         21   -1    0    0  501  503 -0.00000000000E+00 -0.00000000000E+00 -0.42313790529E+03  0.42313790529E+03  0.00000000000E+00 0.  1.
          6    1    1    2  501    0 -0.11209395893E+03  0.14338983396E+02 -0.35386772952E+03  0.40978290846E+03  0.17300000000E+03 0.  1.
         -6    1    1    2    0  502  0.11209395893E+03 -0.14338983396E+02  0.21708119814E+03  0.29970637074E+03  0.17300000000E+03 0.  1.
<mgrwt>
<rscale>  2 0.20663897E+03</rscale>
<asrwt>0</asrwt>
<pdfrwt beam="1">  1       21 0.44054058E-01 0.20663897E+03</pdfrwt>
<pdfrwt beam="2">  1       21 0.65098139E-01 0.20663897E+03</pdfrwt>
<totfact> 0.10650927E+04</totfact>
</mgrwt>
</event>
<event>
 4    1  0.3901757E+000  0.5528272E+03  0.7546771E-02  0.1000842E+00
         21   -1    0    0  503  502  0.00000000000E+00  0.00000000000E+00  0.18567233833E+04  0.18567233833E+04  0.00000000000E+00 0.  1.
         21   -1    0    0  501  503 -0.00000000000E+00 -0.00000000000E+00 -0.19713464169E+03  0.19713464169E+03  0.00000000000E+00 0. -1.
          6    1    1    2  501    0 -0.42643918339E+03  0.30633080698E+03  0.12469781298E+04  0.13640280044E+04  0.17300000000E+03 0. -1.
         -6    1    1    2    0  502  0.42643918339E+03 -0.30633080698E+03  0.41261061184E+03  0.68983002069E+03  0.17300000000E+03 0. -1.
<mgrwt>
<rscale>  2 0.55282722E+03</rscale>
<asrwt>0</asrwt>
<pdfrwt beam="1">  1       21 0.28564974E+00 0.55282722E+03</pdfrwt>
<pdfrwt beam="2">  1       21 0.30328408E-01 0.55282722E+03</pdfrwt>
<totfact> 0.32489779E+02</totfact>
</mgrwt>
</event>
<event>
 4    1  0.3901757E+000  0.2066529E+03  0.7546771E-02  0.1144244E+00
         21   -1    0    0  501  502  0.00000000000E+00  0.00000000000E+00  0.18897484483E+03  0.18897484483E+03  0.00000000000E+00 0.  1.
         21   -1    0    0  502  503 -0.00000000000E+00 -0.00000000000E+00 -0.22620446128E+03  0.22620446128E+03  0.00000000000E+00 0.  1.
          6    1    1    2  501    0  0.36817279772E+02 -0.10686871224E+03 -0.25084412775E+02  0.20816979010E+03  0.17300000000E+03 0.  1.
         -6    1    1    2    0  503 -0.36817279772E+02  0.10686871224E+03 -0.12145203682E+02  0.20700951601E+03  0.17300000000E+03 0.  1.
<mgrwt>
<rscale>  2 0.20665293E+03</rscale>
<asrwt>0</asrwt>
<pdfrwt beam="1">  1       21 0.29073053E-01 0.20665293E+03</pdfrwt>
<pdfrwt beam="2">  1       21 0.34800686E-01 0.20665293E+03</pdfrwt>
<totfact> 0.89632053E+04</totfact>
</mgrwt>
</event>
<event>
 4    1  0.3901757E+000  0.2108342E+03  0.7546771E-02  0.1140907E+00
         21   -1    0    0  501  502  0.00000000000E+00  0.00000000000E+00  0.66948516615E+03  0.66948516615E+03  0.00000000000E+00 0.  1.
         21   -1    0    0  502  503 -0.00000000000E+00 -0.00000000000E+00 -0.15956996548E+03  0.15956996548E+03  0.00000000000E+00 0.  1.
          6    1    1    2  501    0  0.69416150069E+02  0.98506210096E+02  0.57171396159E+03  0.60935041577E+03  0.17300000000E+03 0.  1.
         -6    1    1    2    0  503 -0.69416150069E+02 -0.98506210096E+02 -0.61798760928E+02  0.21970471586E+03  0.17300000000E+03 0.  1.
<mgrwt>
<rscale>  2 0.21083424E+03</rscale>
<asrwt>0</asrwt>
<pdfrwt beam="1">  1       21 0.10299772E+00 0.21083424E+03</pdfrwt>
<pdfrwt beam="2">  1       21 0.24549226E-01 0.21083424E+03</pdfrwt>
<totfact> 0.11851448E+04</totfact>
</mgrwt>
</event>
<event>
 4    1  0.3901757E+000  0.2600440E+03  0.7546771E-02  0.1107117E+00
         21   -1    0    0  503  502  0.00000000000E+00  0.00000000000E+00  0.45022580997E+03  0.45022580997E+03  0.00000000000E+00 0.  1.
         21   -1    0    0  501  503 -0.00000000000E+00 -0.00000000000E+00 -0.15084750938E+03  0.15084750938E+03  0.00000000000E+00 0.  1.
          6    1    1    2  501    0 -0.19126066093E+03  0.33365326547E+02  0.16941420342E+03  0.31036117308E+03  0.17300000000E+03 0.  1.
         -6    1    1    2    0  502  0.19126066093E+03 -0.33365326547E+02  0.12996409717E+03  0.29071214627E+03  0.17300000000E+03 0.  1.
<mgrwt>
<rscale>  2 0.26004401E+03</rscale>
<asrwt>0</asrwt>
<pdfrwt beam="1">  1       21 0.69265509E-01 0.26004401E+03</pdfrwt>
<pdfrwt beam="2">  1       21 0.23207309E-01 0.26004401E+03</pdfrwt>
<totfact> 0.32022344E+04</totfact>
</mgrwt>
</event>
<event>
 4    1  0.3901757E+000  0.2027301E+03  0.7546771E-02  0.1147456E+00
         21   -1    0    0  503  502  0.00000000000E+00  0.00000000000E+00  0.11232379490E+04  0.11232379490E+04  0.00000000000E+00 0.  1.
         21   -1    0    0  501  503 -0.00000000000E+00 -0.00000000000E+00 -0.59245675389E+02  0.59245675389E+02  0.00000000000E+00 0.  1.
          6    1    1    2  501    0  0.35144606545E+02  0.99676280015E+02  0.16638166593E+03  0.26226391846E+03  0.17300000000E+03 0.  1.
         -6    1    1    2    0  502 -0.35144606545E+02 -0.99676280015E+02  0.89761060773E+03  0.92021970598E+03  0.17300000000E+03 0.  1.
<mgrwt>
<rscale>  2 0.20273013E+03</rscale>
<asrwt>0</asrwt>
<pdfrwt beam="1">  1       21 0.17280582E+00 0.20273013E+03</pdfrwt>
<pdfrwt beam="2">  1       21 0.91147201E-02 0.20273013E+03</pdfrwt>
<totfact> 0.19345535E+04</totfact>
</mgrwt>
</event>
<event>
 4    1  0.3901757E+000  0.2335010E+03  0.7546771E-02  0.1124200E+00
         21   -1    0    0  501  502  0.00000000000E+00  0.00000000000E+00  0.66036647964E+03  0.66036647964E+03  0.00000000000E+00 0. -1.
         21   -1    0    0  502  503 -0.00000000000E+00 -0.00000000000E+00 -0.91987671501E+02  0.91987671501E+02  0.00000000000E+00 0.  1.
          6    1    1    2  501    0 -0.87490689272E+01  0.15657967290E+03  0.40459013759E+03  0.46713586846E+03  0.17300000000E+03 0. -1.
         -6    1    1    2    0  503  0.87490689272E+01 -0.15657967290E+03  0.16378867055E+03  0.28521828268E+03  0.17300000000E+03 0.  1.
<mgrwt>
<rscale>  2 0.23350105E+03</rscale>
<asrwt>0</asrwt>
<pdfrwt beam="1">  1       21 0.10159484E+00 0.23350105E+03</pdfrwt>
<pdfrwt beam="2">  1       21 0.14151950E-01 0.23350105E+03</pdfrwt>
<totfact> 0.33735300E+04</totfact>
</mgrwt>
</event>
<event>
 4    1  0.3901757E+000  0.1948999E+03  0.7546771E-02  0.1154115E+00
         21   -1    0    0  503  502  0.00000000000E+00  0.00000000000E+00  0.57948476660E+03  0.57948476660E+03  0.00000000000E+00 0.  1.
         21   -1    0    0  501  503 -0.00000000000E+00 -0.00000000000E+00 -0.92562964205E+02  0.92562964205E+02  0.00000000000E+00 0.  1.
          6    1    1    2  501    0 -0.34088914266E+02 -0.83035643488E+02  0.61939734957E+02  0.20450550832E+03  0.17300000000E+03 0.  1.
         -6    1    1    2    0  502  0.34088914266E+02  0.83035643488E+02  0.42498206744E+03  0.46754222249E+03  0.17300000000E+03 0.  1.
<mgrwt>
<rscale>  2 0.19489990E+03</rscale>
<asrwt>0</asrwt>
<pdfrwt beam="1">  1       21 0.89151500E-01 0.19489990E+03</pdfrwt>
<pdfrwt beam="2">  1       21 0.14240456E-01 0.19489990E+03</pdfrwt>
<totfact> 0.46245096E+04</totfact>
</mgrwt>
</event>
<event>
 4    1  0.3901757E+000  0.2038355E+03  0.7546771E-02  0.1146543E+00
         21   -1    0    0  503  502  0.00000000000E+00  0.00000000000E+00  0.36448937273E+03  0.36448937273E+03  0.00000000000E+00 0. -1.
         21   -1    0    0  501  503 -0.00000000000E+00 -0.00000000000E+00 -0.11435283942E+03  0.11435283942E+03  0.00000000000E+00 0. -1.
          6    1    1    2  501    0 -0.52845675542E-01  0.10779563613E+03  0.13851594843E+03  0.24644587627E+03  0.17300000000E+03 0. -1.
         -6    1    1    2    0  502  0.52845675542E-01 -0.10779563613E+03  0.11162058489E+03  0.23239633589E+03  0.17300000000E+03 0. -1.
<mgrwt>
<rscale>  2 0.20383548E+03</rscale>
<asrwt>0</asrwt>
<pdfrwt beam="1">  1       21 0.56075287E-01 0.20383548E+03</pdfrwt>
<pdfrwt beam="2">  1       21 0.17592745E-01 0.20383548E+03</pdfrwt>
<totfact> 0.87268168E+04</totfact>
</mgrwt>
</event>
<event>
 4    1  0.3901757E+000  0.2154085E+03  0.7546771E-02  0.1137353E+00
         21   -1    0    0  503  502  0.00000000000E+00  0.00000000000E+00  0.13367142738E+04  0.13367142738E+04  0.00000000000E+00 0.  1.
         21   -1    0    0  501  503 -0.00000000000E+00 -0.00000000000E+00 -0.63469905594E+02  0.63469905594E+02  0.00000000000E+00 0.  1.
          6    1    1    2  501    0 -0.38194586189E+01 -0.12828574945E+03  0.16537868149E+03  0.27157122466E+03  0.17300000000E+03 0.  1.
         -6    1    1    2    0  502  0.38194586189E+01  0.12828574945E+03  0.11078656867E+04  0.11286129548E+04  0.17300000000E+03 0.  1.
<mgrwt>
<rscale>  2 0.21540850E+03</rscale>
<asrwt>0</asrwt>
<pdfrwt beam="1">  1       21 0.20564833E+00 0.21540850E+03</pdfrwt>
<pdfrwt beam="2">  1       21 0.97646019E-02 0.21540850E+03</pdfrwt>
<totfact> 0.10265157E+04</totfact>
</mgrwt>
</event>
<event>
 4    1  0.3901757E+000  0.2177658E+03  0.7546771E-02  0.1135560E+00
         21   -1    0    0  503  502  0.00000000000E+00  0.00000000000E+00  0.10139813335E+04  0.10139813335E+04  0.00000000000E+00 0. -1.
         21   -1    0    0  501  503 -0.00000000000E+00 -0.00000000000E+00 -0.46799974153E+02  0.46799974153E+02  0.00000000000E+00 0.  1.
          6    1    1    2  501    0  0.13093593820E+02  0.13161119213E+03  0.49743939053E+03  0.54301739875E+03  0.17300000000E+03 0.  1.
         -6    1    1    2    0  502 -0.13093593820E+02 -0.13161119213E+03  0.46974196879E+03  0.51776390888E+03  0.17300000000E+03 0.  1.
<mgrwt>
<rscale>  2 0.21776581E+03</rscale>
<asrwt>0</asrwt>
<pdfrwt beam="1">  1       21 0.15599711E+00 0.21776581E+03</pdfrwt>
<pdfrwt beam="2">  1       21 0.71999968E-02 0.21776581E+03</pdfrwt>
<totfact> 0.38244276E+04</totfact>
</mgrwt>
</event>
<event>
 4    1  0.3901757E+000  0.1768816E+03  0.7546771E-02  0.1170856E+00
         21   -1    0    0  503  502  0.00000000000E+00  0.00000000000E+00  0.11563972525E+03  0.11563972525E+03  0.00000000000E+00 0. -1.
         21   -1    0    0  501  503 -0.00000000000E+00 -0.00000000000E+00 -0.34246546015E+03  0.34246546015E+03  0.00000000000E+00 0. -1.
          6    1    1    2  501    0  0.36647148800E+02  0.38821015347E+01 -0.21837150872E+03  0.28102170743E+03  0.17300000000E+03 0. -1.
         -6    1    1    2    0  502 -0.36647148800E+02 -0.38821015347E+01 -0.84542261823E+01  0.17708347796E+03  0.17300000000E+03 0. -1.
<mgrwt>
<rscale>  2 0.17688155E+03</rscale>
<asrwt>0</asrwt>
<pdfrwt beam="1">  1       21 0.17790727E-01 0.17688155E+03</pdfrwt>
<pdfrwt beam="2">  1       21 0.52686994E-01 0.17688155E+03</pdfrwt>
<totfact> 0.98566822E+04</totfact>
</mgrwt>
</event>
<event>
 4    1  0.3901757E+000  0.1843588E+03  0.7546771E-02  0.1163650E+00
         21   -1    0    0  503  502  0.00000000000E+00  0.00000000000E+00  0.83969735036E+02  0.83969735036E+02  0.00000000000E+00 0.  1.
         21   -1    0    0  501  503 -0.00000000000E+00 -0.00000000000E+00 -0.43452891663E+03  0.43452891663E+03  0.00000000000E+00 0. -1.
          6    1    1    2  501    0 -0.47626541233E+02 -0.42318749236E+02 -0.24312804211E+03  0.30512195730E+03  0.17300000000E+03 0. -1.
         -6    1    1    2    0  502  0.47626541233E+02  0.42318749236E+02 -0.10743113948E+03  0.21337669436E+03  0.17300000000E+03 0.  1.
<mgrwt>
<rscale>  2 0.18435879E+03</rscale>
<asrwt>0</asrwt>
<pdfrwt beam="1">  1       21 0.12918421E-01 0.18435879E+03</pdfrwt>
<pdfrwt beam="2">  1       21 0.66850602E-01 0.18435879E+03</pdfrwt>
<totfact> 0.10572189E+05</totfact>
</mgrwt>
</event>
<event>
 4    1  0.3901757E+000  0.2307109E+03  0.7546771E-02  0.1126140E+00
         21   -1    0    0  501  502  0.00000000000E+00  0.00000000000E+00  0.64071898051E+03  0.64071898051E+03  0.00000000000E+00 0.  1.
         21   -1    0    0  502  503 -0.00000000000E+00 -0.00000000000E+00 -0.39561874745E+03  0.39561874745E+03  0.00000000000E+00 0.  1.
          6    1    1    2  501    0 -0.31049604090E+02 -0.14944711379E+03  0.58311255779E+03  0.62709470799E+03  0.17300000000E+03 0.  1.
         -6    1    1    2    0  503  0.31049604090E+02  0.14944711379E+03 -0.33801232473E+03  0.40924301998E+03  0.17300000000E+03 0.  1.
<mgrwt>
<rscale>  2 0.23071090E+03</rscale>
<asrwt>0</asrwt>
<pdfrwt beam="1">  1       21 0.98572151E-01 0.23071090E+03</pdfrwt>
<pdfrwt beam="2">  1       21 0.60864422E-01 0.23071090E+03</pdfrwt>
<totfact> 0.20662269E+03</totfact>
</mgrwt>
</event>
<event>
 4    1  0.3901757E+000  0.1777211E+03  0.7546771E-02  0.1170027E+00
         21   -1    0    0  503  502  0.00000000000E+00  0.00000000000E+00  0.81954589171E+03  0.81954589171E+03  0.00000000000E+00 0. -1.
         21   -1    0    0  501  503 -0.00000000000E+00 -0.00000000000E+00 -0.41016933230E+02  0.41016933230E+02  0.00000000000E+00 0. -1.
          6    1    1    2  501    0  0.40345818343E+02  0.52935842694E+01  0.28351439538E+03  0.33461204324E+03  0.17300000000E+03 0. -1.
         -6    1    1    2    0  502 -0.40345818343E+02 -0.52935842694E+01  0.49501456310E+03  0.52595078170E+03  0.17300000000E+03 0. -1.
<mgrwt>
<rscale>  2 0.17772115E+03</rscale>
<asrwt>0</asrwt>
<pdfrwt beam="1">  1       21 0.12608397E+00 0.17772115E+03</pdfrwt>
<pdfrwt beam="2">  1       21 0.63102980E-02 0.17772115E+03</pdfrwt>
<totfact> 0.85009597E+04</totfact>
</mgrwt>
</event>
<event>
 4    1  0.3901757E+000  0.2557277E+03  0.7546771E-02  0.1109738E+00
         21   -1    0    0  503  502  0.00000000000E+00  0.00000000000E+00  0.32036561971E+03  0.32036561971E+03  0.00000000000E+00 0. -1.
         21   -1    0    0  501  503 -0.00000000000E+00 -0.00000000000E+00 -0.38387515592E+03  0.38387515592E+03  0.00000000000E+00 0. -1.
          6    1    1    2  501    0 -0.61532080798E+02 -0.17799284116E+03 -0.27270269998E+03  0.37384944971E+03  0.17300000000E+03 0. -1.
         -6    1    1    2    0  502  0.61532080798E+02  0.17799284116E+03  0.20919316377E+03  0.33039132592E+03  0.17300000000E+03 0. -1.
<mgrwt>
<rscale>  2 0.25572768E+03</rscale>
<asrwt>0</asrwt>
<pdfrwt beam="1">  1       21 0.49287018E-01 0.25572768E+03</pdfrwt>
<pdfrwt beam="2">  1       21 0.59057716E-01 0.25572768E+03</pdfrwt>
<totfact> 0.10125147E+04</totfact>
</mgrwt>
</event>
<event>
 4    1  0.3901757E+000  0.2442202E+03  0.7546771E-02  0.1117013E+00
         21   -1    0    0  503  502  0.00000000000E+00  0.00000000000E+00  0.78006652854E+03  0.78006652854E+03  0.00000000000E+00 0. -1.
         21   -1    0    0  501  503 -0.00000000000E+00 -0.00000000000E+00 -0.11162525812E+03  0.11162525812E+03  0.00000000000E+00 0. -1.
          6    1    1    2  501    0 -0.17197838140E+03  0.11744001136E+02  0.58446460216E+03  0.63343693957E+03  0.17300000000E+03 0. -1.
         -6    1    1    2    0  502  0.17197838140E+03 -0.11744001136E+02  0.83976668267E+02  0.25825484709E+03  0.17300000000E+03 0. -1.
<mgrwt>
<rscale>  2 0.24422016E+03</rscale>
<asrwt>0</asrwt>
<pdfrwt beam="1">  1       21 0.12001023E+00 0.24422016E+03</pdfrwt>
<pdfrwt beam="2">  1       21 0.17173117E-01 0.24422016E+03</pdfrwt>
<totfact> 0.15664488E+04</totfact>
</mgrwt>
</event>
<event>
 4    1  0.3901757E+000  0.1772261E+03  0.7546771E-02  0.1170515E+00
         21   -1    0    0  503  502  0.00000000000E+00  0.00000000000E+00  0.10537584148E+03  0.10537584148E+03  0.00000000000E+00 0.  1.
         21   -1    0    0  501  503 -0.00000000000E+00 -0.00000000000E+00 -0.38130331821E+03  0.38130331821E+03  0.00000000000E+00 0.  1.
          6    1    1    2  501    0 -0.36572017629E+02  0.11940660405E+02 -0.25165658158E+03  0.30779884161E+03  0.17300000000E+03 0.  1.
         -6    1    1    2    0  502  0.36572017629E+02 -0.11940660405E+02 -0.24270895153E+02  0.17888031808E+03  0.17300000000E+03 0.  1.
<mgrwt>
<rscale>  2 0.17722610E+03</rscale>
<asrwt>0</asrwt>
<pdfrwt beam="1">  1       21 0.16211668E-01 0.17722610E+03</pdfrwt>
<pdfrwt beam="2">  1       21 0.58662049E-01 0.17722610E+03</pdfrwt>
<totfact> 0.93133182E+04</totfact>
</mgrwt>
</event>
<event>
 4    1  0.3901757E+000  0.2371421E+03  0.7546771E-02  0.1121711E+00
         21   -1    0    0  503  502  0.00000000000E+00  0.00000000000E+00  0.11170072454E+03  0.11170072454E+03  0.00000000000E+00 0. -1.
         21   -1    0    0  501  503 -0.00000000000E+00 -0.00000000000E+00 -0.63621046855E+03  0.63621046855E+03  0.00000000000E+00 0. -1.
          6    1    1    2  501    0  0.11744237340E+03  0.11186892270E+03 -0.91432522952E+02  0.25415796897E+03  0.17300000000E+03 0. -1.
         -6    1    1    2    0  502 -0.11744237340E+03 -0.11186892270E+03 -0.43307722106E+03  0.49375322413E+03  0.17300000000E+03 0. -1.
<mgrwt>
<rscale>  2 0.23714208E+03</rscale>
<asrwt>0</asrwt>
<pdfrwt beam="1">  1       21 0.17184727E-01 0.23714208E+03</pdfrwt>
<pdfrwt beam="2">  1       21 0.97878534E-01 0.23714208E+03</pdfrwt>
<totfact> 0.25771885E+04</totfact>
</mgrwt>
</event>
<event>
 4    1  0.3901757E+000  0.1928092E+03  0.7546771E-02  0.1155952E+00
         21   -1    0    0  503  502  0.00000000000E+00  0.00000000000E+00  0.11619640763E+03  0.11619640763E+03  0.00000000000E+00 0. -1.
         21   -1    0    0  501  503 -0.00000000000E+00 -0.00000000000E+00 -0.43651893235E+03  0.43651893235E+03  0.00000000000E+00 0. -1.
          6    1    1    2  501    0 -0.13715549891E+02  0.84013505352E+02 -0.30298089911E+03  0.35912784717E+03  0.17300000000E+03 0. -1.
         -6    1    1    2    0  502  0.13715549891E+02 -0.84013505352E+02 -0.17341625616E+02  0.19358749280E+03  0.17300000000E+03 0. -1.
<mgrwt>
<rscale>  2 0.19280919E+03</rscale>
<asrwt>0</asrwt>
<pdfrwt beam="1">  1       21 0.17876371E-01 0.19280919E+03</pdfrwt>
<pdfrwt beam="2">  1       21 0.67156758E-01 0.19280919E+03</pdfrwt>
<totfact> 0.57713153E+04</totfact>
</mgrwt>
</event>
<event>
 4    1  0.3901757E+000  0.2278466E+03  0.7546771E-02  0.1128165E+00
         21   -1    0    0  501  502  0.00000000000E+00  0.00000000000E+00  0.28904542745E+03  0.28904542745E+03  0.00000000000E+00 0. -1.
         21   -1    0    0  502  503 -0.00000000000E+00 -0.00000000000E+00 -0.33958952354E+03  0.33958952354E+03  0.00000000000E+00 0. -1.
          6    1    1    2  501    0 -0.12830814124E+03  0.74310794796E+02  0.19046763999E+03  0.29697137104E+03  0.17300000000E+03 0. -1.
         -6    1    1    2    0  503  0.12830814124E+03 -0.74310794796E+02 -0.24101173608E+03  0.33166357994E+03  0.17300000000E+03 0. -1.
<mgrwt>
<rscale>  2 0.22784660E+03</rscale>
<asrwt>0</asrwt>
<pdfrwt beam="1">  1       21 0.44468528E-01 0.22784660E+03</pdfrwt>
<pdfrwt beam="2">  1       21 0.52244542E-01 0.22784660E+03</pdfrwt>
<totfact> 0.16527977E+04</totfact>
</mgrwt>
</event>
<event>
 4    1  0.3901757E+000  0.2938356E+03  0.7546771E-02  0.1088363E+00
         21   -1    0    0  501  502  0.00000000000E+00  0.00000000000E+00  0.11129820897E+03  0.11129820897E+03  0.00000000000E+00 0. -1.
         21   -1    0    0  502  503 -0.00000000000E+00 -0.00000000000E+00 -0.97228323869E+03  0.97228323869E+03  0.00000000000E+00 0. -1.
          6    1    1    2  501    0 -0.23239541784E+02 -0.23636900831E+03 -0.18690491929E+03  0.34824249202E+03  0.17300000000E+03 0. -1.
         -6    1    1    2    0  503  0.23239541784E+02  0.23636900831E+03 -0.67408011044E+03  0.73533895564E+03  0.17300000000E+03 0. -1.
<mgrwt>
<rscale>  2 0.29383564E+03</rscale>
<asrwt>0</asrwt>
<pdfrwt beam="1">  1       21 0.17122801E-01 0.29383564E+03</pdfrwt>
<pdfrwt beam="2">  1       21 0.14958204E+00 0.29383564E+03</pdfrwt>
<totfact> 0.86907413E+03</totfact>
</mgrwt>
</event>
<event>
 4    1  0.3901757E+000  0.2329328E+03  0.7546771E-02  0.1124592E+00
         21   -1    0    0  501  502  0.00000000000E+00  0.00000000000E+00  0.61315680777E+02  0.61315680777E+02  0.00000000000E+00 0.  1.
         21   -1    0    0  502  503 -0.00000000000E+00 -0.00000000000E+00 -0.13877552644E+04  0.13877552644E+04  0.00000000000E+00 0.  1.
          6    1    1    2  501    0 -0.27450784567E+02 -0.15354204370E+03 -0.22707717695E+03  0.32530255002E+03  0.17300000000E+03 0.  1.
         -6    1    1    2    0  503  0.27450784567E+02  0.15354204370E+03 -0.10993624067E+04  0.11237683952E+04  0.17300000000E+03 0.  1.
<mgrwt>
<rscale>  2 0.23293283E+03</rscale>
<asrwt>0</asrwt>
<pdfrwt beam="1">  1       21 0.94331819E-02 0.23293283E+03</pdfrwt>
<pdfrwt beam="2">  1       21 0.21350081E+00 0.23293283E+03</pdfrwt>
<totfact> 0.96020001E+03</totfact>
</mgrwt>
</event>
<event>
 4    1  0.3901757E+000  0.2311397E+03  0.7546771E-02  0.1125840E+00
         21   -1    0    0  501  502  0.00000000000E+00  0.00000000000E+00  0.49161657901E+02  0.49161657901E+02  0.00000000000E+00 0. -1.
         21   -1    0    0  502  503 -0.00000000000E+00 -0.00000000000E+00 -0.11348320652E+04  0.11348320652E+04  0.00000000000E+00 0. -1.
          6    1    1    2  501    0 -0.14891548322E+03  0.36342273038E+02 -0.42095779525E+03  0.48024061400E+03  0.17300000000E+03 0. -1.
         -6    1    1    2    0  503  0.14891548322E+03 -0.36342273038E+02 -0.66471261204E+03  0.70375310910E+03  0.17300000000E+03 0. -1.
<mgrwt>
<rscale>  2 0.23113975E+03</rscale>
<asrwt>0</asrwt>
<pdfrwt beam="1">  1       21 0.75633323E-02 0.23113975E+03</pdfrwt>
<pdfrwt beam="2">  1       21 0.17458954E+00 0.23113975E+03</pdfrwt>
<totfact> 0.25577514E+04</totfact>
</mgrwt>
</event>
<event>
 4    1  0.3901757E+000  0.1738850E+03  0.7546771E-02  0.1173856E+00
         21   -1    0    0  503  502  0.00000000000E+00  0.00000000000E+00  0.44972804442E+02  0.44972804442E+02  0.00000000000E+00 0.  1.
         21   -1    0    0  501  503 -0.00000000000E+00 -0.00000000000E+00 -0.80208439608E+03  0.80208439608E+03  0.00000000000E+00 0.  1.
          6    1    1    2  501    0  0.16193664688E+02 -0.66894198228E+01 -0.54891100740E+03  0.57579447476E+03  0.17300000000E+03 0.  1.
         -6    1    1    2    0  502 -0.16193664688E+02  0.66894198228E+01 -0.20820058423E+03  0.27126272576E+03  0.17300000000E+03 0.  1.
<mgrwt>
<rscale>  2 0.17388497E+03</rscale>
<asrwt>0</asrwt>
<pdfrwt beam="1">  1       21 0.69188938E-02 0.17388497E+03</pdfrwt>
<pdfrwt beam="2">  1       21 0.12339759E+00 0.17388497E+03</pdfrwt>
<totfact> 0.76719409E+04</totfact>
</mgrwt>
</event>
<event>
 4    1  0.3901757E+000  0.2260906E+03  0.7546771E-02  0.1129422E+00
         21   -1    0    0  501  502  0.00000000000E+00  0.00000000000E+00  0.21353168830E+03  0.21353168830E+03  0.00000000000E+00 0.  1.
         21   -1    0    0  502  503 -0.00000000000E+00 -0.00000000000E+00 -0.73999915360E+03  0.73999915360E+03  0.00000000000E+00 0.  1.
          6    1    1    2  501    0  0.12943580355E+03  0.66590871678E+02  0.12890460336E+03  0.26025635093E+03  0.17300000000E+03 0.  1.
         -6    1    1    2    0  503 -0.12943580355E+03 -0.66590871678E+02 -0.65537206867E+03  0.69327449097E+03  0.17300000000E+03 0.  1.
<mgrwt>
<rscale>  2 0.22609063E+03</rscale>
<asrwt>0</asrwt>
<pdfrwt beam="1">  1       21 0.32851029E-01 0.22609063E+03</pdfrwt>
<pdfrwt beam="2">  1       21 0.11384602E+00 0.22609063E+03</pdfrwt>
<totfact> 0.52251060E+03</totfact>
</mgrwt>
</event>
<event>
 4    1  0.3901757E+000  0.1845252E+03  0.7546771E-02  0.1163494E+00
         21   -1    0    0  503  502  0.00000000000E+00  0.00000000000E+00  0.20320167857E+03  0.20320167857E+03  0.00000000000E+00 0. -1.
         21   -1    0    0  501  503 -0.00000000000E+00 -0.00000000000E+00 -0.28948662404E+03  0.28948662404E+03  0.00000000000E+00 0.  1.
          6    1    1    2  501    0  0.40957560252E+02 -0.49427064471E+02 -0.20301277116E+03  0.27434238042E+03  0.17300000000E+03 0.  1.
         -6    1    1    2    0  502 -0.40957560252E+02  0.49427064471E+02  0.11672782569E+03  0.21834592218E+03  0.17300000000E+03 0. -1.
<mgrwt>
<rscale>  2 0.18452522E+03</rscale>
<asrwt>0</asrwt>
<pdfrwt beam="1">  1       21 0.31261797E-01 0.18452522E+03</pdfrwt>
<pdfrwt beam="2">  1       21 0.44536403E-01 0.18452522E+03</pdfrwt>
<totfact> 0.47775193E+04</totfact>
</mgrwt>
</event>
<event>
 4    1  0.3901757E+000  0.1809369E+03  0.7546771E-02  0.1166899E+00
         21   -1    0    0  503  502  0.00000000000E+00  0.00000000000E+00  0.20351985023E+02  0.20351985023E+02  0.00000000000E+00 0. -1.
         21   -1    0    0  501  503 -0.00000000000E+00 -0.00000000000E+00 -0.20975106461E+04  0.20975106461E+04  0.00000000000E+00 0. -1.
          6    1    1    2  501    0  0.27184119134E+02  0.45499097681E+02 -0.15498274659E+04  0.15603535876E+04  0.17300000000E+03 0. -1.
         -6    1    1    2    0  502 -0.27184119134E+02 -0.45499097681E+02 -0.52733119517E+03  0.55750904353E+03  0.17300000000E+03 0. -1.
<mgrwt>
<rscale>  2 0.18093685E+03</rscale>
<asrwt>0</asrwt>
<pdfrwt beam="1">  1       21 0.31310762E-02 0.18093685E+03</pdfrwt>
<pdfrwt beam="2">  1       21 0.32269378E+00 0.18093685E+03</pdfrwt>
<totfact> 0.15080448E+04</totfact>
</mgrwt>
</event>
<event>
 4    1  0.3901757E+000  0.2254730E+03  0.7546771E-02  0.1129867E+00
         21   -1    0    0  503  502  0.00000000000E+00  0.00000000000E+00  0.26077786808E+03  0.26077786808E+03  0.00000000000E+00 0.  1.
         21   -1    0    0  501  503 -0.00000000000E+00 -0.00000000000E+00 -0.48408762612E+03  0.48408762612E+03  0.00000000000E+00 0.  1.
          6    1    1    2  501    0 -0.13151564035E+03  0.60105950335E+02 -0.39948734446E+03  0.45872456584E+03  0.17300000000E+03 0.  1.
         -6    1    1    2    0  502  0.13151564035E+03 -0.60105950335E+02  0.17617758643E+03  0.28614092836E+03  0.17300000000E+03 0.  1.
<mgrwt>
<rscale>  2 0.22547303E+03</rscale>
<asrwt>0</asrwt>
<pdfrwt beam="1">  1       21 0.40119673E-01 0.22547303E+03</pdfrwt>
<pdfrwt beam="2">  1       21 0.74475018E-01 0.22547303E+03</pdfrwt>
<totfact> 0.94598632E+03</totfact>
</mgrwt>
</event>
<event>
 4    1  0.3901757E+000  0.1738238E+03  0.7546771E-02  0.1173918E+00
         21   -1    0    0  503  502  0.00000000000E+00  0.00000000000E+00  0.94610895865E+02  0.94610895865E+02  0.00000000000E+00 0. -1.
         21   -1    0    0  501  503 -0.00000000000E+00 -0.00000000000E+00 -0.51432132261E+03  0.51432132261E+03  0.00000000000E+00 0. -1.
          6    1    1    2  501    0  0.41914226177E+01 -0.16374942481E+02 -0.39731089971E+03  0.43367114014E+03  0.17300000000E+03 0.  1.
         -6    1    1    2    0  502 -0.41914226177E+01  0.16374942481E+02 -0.22399527028E+02  0.17526107833E+03  0.17300000000E+03 0.  1.
<mgrwt>
<rscale>  2 0.17382378E+03</rscale>
<asrwt>0</asrwt>
<pdfrwt beam="1">  1       21 0.14555522E-01 0.17382378E+03</pdfrwt>
<pdfrwt beam="2">  1       21 0.79126358E-01 0.17382378E+03</pdfrwt>
<totfact> 0.58934192E+04</totfact>
</mgrwt>
</event>
<event>
 4    1  0.3901757E+000  0.2881669E+03  0.7546771E-02  0.1091310E+00
         21   -1    0    0  503  502  0.00000000000E+00  0.00000000000E+00  0.28532135909E+03  0.28532135909E+03  0.00000000000E+00 0. -1.
         21   -1    0    0  501  503 -0.00000000000E+00 -0.00000000000E+00 -0.33686340719E+03  0.33686340719E+03  0.00000000000E+00 0.  1.
          6    1    1    2  501    0  0.86610651833E+02 -0.21356446766E+03 -0.14050759197E+03  0.32059720875E+03  0.17300000000E+03 0.  1.
         -6    1    1    2    0  502 -0.86610651833E+02  0.21356446766E+03  0.88965543867E+02  0.30158755752E+03  0.17300000000E+03 0. -1.
<mgrwt>
<rscale>  2 0.28816694E+03</rscale>
<asrwt>0</asrwt>
<pdfrwt beam="1">  1       21 0.43895594E-01 0.28816694E+03</pdfrwt>
<pdfrwt beam="2">  1       21 0.51825139E-01 0.28816694E+03</pdfrwt>
<totfact> 0.16770310E+04</totfact>
</mgrwt>
</event>
<event>
 4    1  0.3901757E+000  0.1811315E+03  0.7546771E-02  0.1166712E+00
         21   -1    0    0  503  502  0.00000000000E+00  0.00000000000E+00  0.38029808211E+02  0.38029808211E+02  0.00000000000E+00 0. -1.
         21   -1    0    0  501  503 -0.00000000000E+00 -0.00000000000E+00 -0.88900646841E+03  0.88900646841E+03  0.00000000000E+00 0. -1.
          6    1    1    2  501    0 -0.48383498880E+02  0.23209045467E+02 -0.34576620702E+03  0.39033689638E+03  0.17300000000E+03 0. -1.
         -6    1    1    2    0  502  0.48383498880E+02 -0.23209045467E+02 -0.50521045318E+03  0.53669938024E+03  0.17300000000E+03 0. -1.
<mgrwt>
<rscale>  2 0.18113151E+03</rscale>
<asrwt>0</asrwt>
<pdfrwt beam="1">  1       21 0.58507396E-02 0.18113151E+03</pdfrwt>
<pdfrwt beam="2">  1       21 0.13677023E+00 0.18113151E+03</pdfrwt>
<totfact> 0.78666325E+04</totfact>
</mgrwt>
</event>
<event>
 4    1  0.3901757E+000  0.1821900E+03  0.7546771E-02  0.1165700E+00
         21   -1    0    0  501  502  0.00000000000E+00  0.00000000000E+00  0.66856588176E+03  0.66856588176E+03  0.00000000000E+00 0. -1.
         21   -1    0    0  502  503 -0.00000000000E+00 -0.00000000000E+00 -0.51644175218E+02  0.51644175218E+02  0.00000000000E+00 0. -1.
          6    1    1    2  501    0  0.51246537605E+02  0.25258678466E+02  0.37925172068E+03  0.42074348015E+03  0.17300000000E+03 0. -1.
         -6    1    1    2    0  503 -0.51246537605E+02 -0.25258678466E+02  0.23766998587E+03  0.29946657683E+03  0.17300000000E+03 0. -1.
<mgrwt>
<rscale>  2 0.18219003E+03</rscale>
<asrwt>0</asrwt>
<pdfrwt beam="1">  1       21 0.10285628E+00 0.18219003E+03</pdfrwt>
<pdfrwt beam="2">  1       21 0.79452582E-02 0.18219003E+03</pdfrwt>
<totfact> 0.93637172E+04</totfact>
</mgrwt>
</event>
<event>
 4    1  0.3901757E+000  0.3356077E+03  0.7546771E-02  0.1068682E+00
         21   -1    0    0  503  502  0.00000000000E+00  0.00000000000E+00  0.36159787476E+03  0.36159787476E+03  0.00000000000E+00 0.  1.
         21   -1    0    0  501  503 -0.00000000000E+00 -0.00000000000E+00 -0.48657586722E+03  0.48657586722E+03  0.00000000000E+00 0.  1.
          6    1    1    2  501    0 -0.15657396441E+03  0.24122210888E+03 -0.31688519184E+03  0.46157202791E+03  0.17300000000E+03 0.  1.
         -6    1    1    2    0  502  0.15657396441E+03 -0.24122210888E+03  0.19190719938E+03  0.38660171406E+03  0.17300000000E+03 0.  1.
<mgrwt>
<rscale>  2 0.33560768E+03</rscale>
<asrwt>0</asrwt>
<pdfrwt beam="1">  1       21 0.55630442E-01 0.33560768E+03</pdfrwt>
<pdfrwt beam="2">  1       21 0.74857826E-01 0.33560768E+03</pdfrwt>
<totfact> 0.44589234E+03</totfact>
</mgrwt>
</event>
<event>
 4    1  0.3901757E+000  0.2794440E+03  0.7546771E-02  0.1095993E+00
         21   -1    0    0  503  502  0.00000000000E+00  0.00000000000E+00  0.33185558748E+03  0.33185558748E+03  0.00000000000E+00 0. -1.
         21   -1    0    0  501  503 -0.00000000000E+00 -0.00000000000E+00 -0.27713902796E+03  0.27713902796E+03  0.00000000000E+00 0. -1.
          6    1    1    2  501    0  0.20858946773E+03  0.68193730076E+02 -0.90938603311E+02  0.29386864487E+03  0.17300000000E+03 0. -1.
         -6    1    1    2    0  502 -0.20858946773E+03 -0.68193730076E+02  0.14565516283E+03  0.31512597057E+03  0.17300000000E+03 0. -1.
<mgrwt>
<rscale>  2 0.27944400E+03</rscale>
<asrwt>0</asrwt>
<pdfrwt beam="1">  1       21 0.51054706E-01 0.27944400E+03</pdfrwt>
<pdfrwt beam="2">  1       21 0.42636773E-01 0.27944400E+03</pdfrwt>
<totfact> 0.18449037E+04</totfact>
</mgrwt>
</event>
<event>
 4    1  0.3901757E+000  0.2381837E+03  0.7546771E-02  0.1121009E+00
         21   -1    0    0  503  502  0.00000000000E+00  0.00000000000E+00  0.88573180041E+03  0.88573180041E+03  0.00000000000E+00 0.  1.
         21   -1    0    0  501  503 -0.00000000000E+00 -0.00000000000E+00 -0.75829649946E+02  0.75829649946E+02  0.00000000000E+00 0.  1.
          6    1    1    2  501    0  0.16173044045E+03 -0.25411286120E+02  0.21546098931E+03  0.32117737583E+03  0.17300000000E+03 0.  1.
         -6    1    1    2    0  502 -0.16173044045E+03  0.25411286120E+02  0.59444116115E+03  0.64038407452E+03  0.17300000000E+03 0.  1.
<mgrwt>
<rscale>  2 0.23818369E+03</rscale>
<asrwt>0</asrwt>
<pdfrwt beam="1">  1       21 0.13626642E+00 0.23818369E+03</pdfrwt>
<pdfrwt beam="2">  1       21 0.11666101E-01 0.23818369E+03</pdfrwt>
<totfact> 0.23040918E+04</totfact>
</mgrwt>
</event>
<event>
 4    1  0.3901757E+000  0.2138778E+03  0.7546771E-02  0.1138532E+00
         21   -1    0    0  501  502  0.00000000000E+00  0.00000000000E+00  0.27449449853E+03  0.27449449853E+03  0.00000000000E+00 0. -1.
         21   -1    0    0  502  503 -0.00000000000E+00 -0.00000000000E+00 -0.19193330295E+03  0.19193330295E+03  0.00000000000E+00 0. -1.
          6    1    1    2  501    0 -0.12575624551E+03 -0.24929320765E+00  0.12592955201E+03  0.24819739624E+03  0.17300000000E+03 0. -1.
         -6    1    1    2    0  503  0.12575624551E+03  0.24929320765E+00 -0.43368356432E+02  0.21823040524E+03  0.17300000000E+03 0. -1.
<mgrwt>
<rscale>  2 0.21387776E+03</rscale>
<asrwt>0</asrwt>
<pdfrwt beam="1">  1       21 0.42229923E-01 0.21387776E+03</pdfrwt>
<pdfrwt beam="2">  1       21 0.29528200E-01 0.21387776E+03</pdfrwt>
<totfact> 0.58726621E+04</totfact>
</mgrwt>
</event>
<event>
 4    1  0.3901757E+000  0.1956551E+03  0.7546771E-02  0.1153457E+00
         21   -1    0    0  501  502  0.00000000000E+00  0.00000000000E+00  0.10903368745E+04  0.10903368745E+04  0.00000000000E+00 0.  1.
         21   -1    0    0  502  503 -0.00000000000E+00 -0.00000000000E+00 -0.35303484652E+02  0.35303484652E+02  0.00000000000E+00 0.  1.
          6    1    1    2  501    0  0.90728373510E+02 -0.10967728962E+02  0.56926172904E+03  0.60194671274E+03  0.17300000000E+03 0. -1.
         -6    1    1    2    0  503 -0.90728373510E+02  0.10967728962E+02  0.48577166079E+03  0.52369364639E+03  0.17300000000E+03 0. -1.
<mgrwt>
<rscale>  2 0.19565513E+03</rscale>
<asrwt>0</asrwt>
<pdfrwt beam="1">  1       21 0.16774411E+00 0.19565513E+03</pdfrwt>
<pdfrwt beam="2">  1       21 0.54313062E-02 0.19565513E+03</pdfrwt>
<totfact> 0.51641384E+04</totfact>
</mgrwt>
</event>
<event>
 4    1  0.3901757E+000  0.1955203E+03  0.7546771E-02  0.1153575E+00
         21   -1    0    0  503  502  0.00000000000E+00  0.00000000000E+00  0.29041345991E+02  0.29041345991E+02  0.00000000000E+00 0.  1.
         21   -1    0    0  501  503 -0.00000000000E+00 -0.00000000000E+00 -0.14979255947E+04  0.14979255947E+04  0.00000000000E+00 0. -1.
          6    1    1    2  501    0  0.90867582553E+02 -0.65014563119E+01 -0.10002692445E+04  0.10191990718E+04  0.17300000000E+03 0. -1.
         -6    1    1    2    0  502 -0.90867582553E+02  0.65014563119E+01 -0.46861500420E+03  0.50776786886E+03  0.17300000000E+03 0.  1.
<mgrwt>
<rscale>  2 0.19552030E+03</rscale>
<asrwt>0</asrwt>
<pdfrwt beam="1">  1       21 0.44679002E-02 0.19552030E+03</pdfrwt>
<pdfrwt beam="2">  1       21 0.23045005E+00 0.19552030E+03</pdfrwt>
<totfact> 0.28212290E+04</totfact>
</mgrwt>
</event>
<event>
 4    1  0.3901757E+000  0.2065655E+03  0.7546771E-02  0.1144315E+00
         21   -1    0    0  503  502  0.00000000000E+00  0.00000000000E+00  0.75115025247E+03  0.75115025247E+03  0.00000000000E+00 0. -1.
         21   -1    0    0  501  503 -0.00000000000E+00 -0.00000000000E+00 -0.86213369710E+02  0.86213369710E+02  0.00000000000E+00 0. -1.
          6    1    1    2  501    0 -0.10236395357E+03  0.47559836463E+02  0.87939635000E+02  0.22450544857E+03  0.17300000000E+03 0. -1.
         -6    1    1    2    0  502  0.10236395357E+03 -0.47559836463E+02  0.57699724776E+03  0.61285817361E+03  0.17300000000E+03 0. -1.
<mgrwt>
<rscale>  2 0.20656553E+03</rscale>
<asrwt>0</asrwt>
<pdfrwt beam="1">  1       21 0.11556157E+00 0.20656553E+03</pdfrwt>
<pdfrwt beam="2">  1       21 0.13263596E-01 0.20656553E+03</pdfrwt>
<totfact> 0.28169459E+04</totfact>
</mgrwt>
</event>
<event>
 4    1  0.3901757E+000  0.1759937E+03  0.7546771E-02  0.1171738E+00
         21   -1    0    0  501  502  0.00000000000E+00  0.00000000000E+00  0.36784558666E+03  0.36784558666E+03  0.00000000000E+00 0.  1.
         21   -1    0    0  502  503 -0.00000000000E+00 -0.00000000000E+00 -0.95053341494E+02  0.95053341494E+02  0.00000000000E+00 0.  1.
          6    1    1    2  501    0  0.11182187641E+02  0.30327403831E+02  0.21459297065E+03  0.27753186447E+03  0.17300000000E+03 0.  1.
         -6    1    1    2    0  503 -0.11182187641E+02 -0.30327403831E+02  0.58199274511E+02  0.18536706368E+03  0.17300000000E+03 0.  1.
<mgrwt>
<rscale>  2 0.17599373E+03</rscale>
<asrwt>0</asrwt>
<pdfrwt beam="1">  1       21 0.56591628E-01 0.17599373E+03</pdfrwt>
<pdfrwt beam="2">  1       21 0.14623591E-01 0.17599373E+03</pdfrwt>
<totfact> 0.12135052E+05</totfact>
</mgrwt>
</event>
<event>
 4    1  0.3901757E+000  0.2164279E+03  0.7546771E-02  0.1136575E+00
         21   -1    0    0  501  502  0.00000000000E+00  0.00000000000E+00  0.11317239336E+03  0.11317239336E+03  0.00000000000E+00 0.  1.
         21   -1    0    0  502  503 -0.00000000000E+00 -0.00000000000E+00 -0.81477048634E+03  0.81477048634E+03  0.00000000000E+00 0. -1.
          6    1    1    2  501    0 -0.12436606164E+03  0.38014874557E+02 -0.25351907276E+02  0.21790770334E+03  0.17300000000E+03 0.  1.
         -6    1    1    2    0  503  0.12436606164E+03 -0.38014874557E+02 -0.67624618571E+03  0.71003517636E+03  0.17300000000E+03 0. -1.
<mgrwt>
<rscale>  2 0.21642793E+03</rscale>
<asrwt>0</asrwt>
<pdfrwt beam="1">  1       21 0.17411138E-01 0.21642793E+03</pdfrwt>
<pdfrwt beam="2">  1       21 0.12534930E+00 0.21642793E+03</pdfrwt>
<totfact> 0.13918395E+04</totfact>
</mgrwt>
</event>
<event>
 4    1  0.3901757E+000  0.1809424E+03  0.7546771E-02  0.1166894E+00
         21   -1    0    0  503  502  0.00000000000E+00  0.00000000000E+00  0.38299483097E+03  0.38299483097E+03  0.00000000000E+00 0. -1.
         21   -1    0    0  501  503 -0.00000000000E+00 -0.00000000000E+00 -0.26187212917E+03  0.26187212917E+03  0.00000000000E+00 0.  1.
          6    1    1    2  501    0  0.50194030894E+02  0.17079863958E+02 -0.20406276567E+03  0.27273022352E+03  0.17300000000E+03 0.  1.
         -6    1    1    2    0  502 -0.50194030894E+02 -0.17079863958E+02  0.32518546747E+03  0.37213673662E+03  0.17300000000E+03 0. -1.
<mgrwt>
<rscale>  2 0.18094243E+03</rscale>
<asrwt>0</asrwt>
<pdfrwt beam="1">  1       21 0.58922282E-01 0.18094243E+03</pdfrwt>
<pdfrwt beam="2">  1       21 0.40288020E-01 0.18094243E+03</pdfrwt>
<totfact> 0.16110652E+04</totfact>
</mgrwt>
</event>
<event>
 4    1  0.3901757E+000  0.1984041E+03  0.7546771E-02  0.1151092E+00
         21   -1    0    0  501  502  0.00000000000E+00  0.00000000000E+00  0.13304299109E+03  0.13304299109E+03  0.00000000000E+00 0.  1.
         21   -1    0    0  502  503 -0.00000000000E+00 -0.00000000000E+00 -0.29926666733E+03  0.29926666733E+03  0.00000000000E+00 0.  1.
          6    1    1    2  501    0  0.94235265843E+02  0.23556497931E+02 -0.60102995239E+02  0.20730789652E+03  0.17300000000E+03 0.  1.
         -6    1    1    2    0  503 -0.94235265843E+02 -0.23556497931E+02 -0.10612068099E+03  0.22500176190E+03  0.17300000000E+03 0.  1.
<mgrwt>
<rscale>  2 0.19840412E+03</rscale>
<asrwt>0</asrwt>
<pdfrwt beam="1">  1       21 0.20468152E-01 0.19840412E+03</pdfrwt>
<pdfrwt beam="2">  1       21 0.46041026E-01 0.19840412E+03</pdfrwt>
<totfact> 0.99706139E+04</totfact>
</mgrwt>
</event>
<event>
 4    1  0.3901757E+000  0.1930202E+03  0.7546771E-02  0.1155765E+00
         21   -1    0    0  503  502  0.00000000000E+00  0.00000000000E+00  0.87630245118E+03  0.87630245118E+03  0.00000000000E+00 0.  1.
         21   -1    0    0  501  503 -0.00000000000E+00 -0.00000000000E+00 -0.75464355614E+03  0.75464355614E+03  0.00000000000E+00 0. -1.
          6    1    1    2  501    0  0.60199672959E+02  0.60858834183E+02 -0.73133906634E+03  0.75638193281E+03  0.17300000000E+03 0. -1.
         -6    1    1    2    0  502 -0.60199672959E+02 -0.60858834183E+02  0.85299796137E+03  0.87456407451E+03  0.17300000000E+03 0.  1.
<mgrwt>
<rscale>  2 0.19302020E+03</rscale>
<asrwt>0</asrwt>
<pdfrwt beam="1">  1       21 0.13481576E+00 0.19302020E+03</pdfrwt>
<pdfrwt beam="2">  1       21 0.11609901E+00 0.19302020E+03</pdfrwt>
<totfact> 0.22571094E+02</totfact>
</mgrwt>
</event>
<event>
 4    1  0.3901757E+000  0.2509223E+03  0.7546771E-02  0.1112723E+00
         21   -1    0    0  501  502  0.00000000000E+00  0.00000000000E+00  0.18952359320E+04  0.18952359320E+04  0.00000000000E+00 0. -1.
         21   -1    0    0  502  503 -0.00000000000E+00 -0.00000000000E+00 -0.87628971489E+02  0.87628971489E+02  0.00000000000E+00 0.  1.
          6    1    1    2  501    0 -0.17988120570E+03  0.25995337960E+02  0.16850170078E+04  0.17035974649E+04  0.17300000000E+03 0. -1.
         -6    1    1    2    0  503  0.17988120570E+03 -0.25995337960E+02  0.12258995271E+03  0.27926743861E+03  0.17300000000E+03 0.  1.
<mgrwt>
<rscale>  2 0.25092231E+03</rscale>
<asrwt>0</asrwt>
<pdfrwt beam="1">  1       21 0.29157473E+00 0.25092231E+03</pdfrwt>
<pdfrwt beam="2">  1       21 0.13481382E-01 0.25092231E+03</pdfrwt>
<totfact> 0.17028458E+03</totfact>
</mgrwt>
</event>
<event>
 4    1  0.3901757E+000  0.2216151E+03  0.7546771E-02  0.1132685E+00
         21   -1    0    0  501  502  0.00000000000E+00  0.00000000000E+00  0.11350322080E+03  0.11350322080E+03  0.00000000000E+00 0. -1.
         21   -1    0    0  502  503 -0.00000000000E+00 -0.00000000000E+00 -0.11749545125E+04  0.11749545125E+04  0.00000000000E+00 0. -1.
          6    1    1    2  501    0 -0.36352258857E+02  0.13365167646E+03 -0.18684322876E+02  0.22240135176E+03  0.17300000000E+03 0. -1.
         -6    1    1    2    0  503  0.36352258857E+02 -0.13365167646E+03 -0.10427669688E+04  0.10660563815E+04  0.17300000000E+03 0. -1.
<mgrwt>
<rscale>  2 0.22161511E+03</rscale>
<asrwt>0</asrwt>
<pdfrwt beam="1">  1       21 0.17462034E-01 0.22161511E+03</pdfrwt>
<pdfrwt beam="2">  1       21 0.18076224E+00 0.22161511E+03</pdfrwt>
<totfact> 0.52095655E+03</totfact>
</mgrwt>
</event>
<event>
 4    1  0.3901757E+000  0.1811734E+03  0.7546771E-02  0.1166672E+00
         21   -1    0    0  501  502  0.00000000000E+00  0.00000000000E+00  0.54211990106E+03  0.54211990106E+03  0.00000000000E+00 0.  1.
         21   -1    0    0  502  503 -0.00000000000E+00 -0.00000000000E+00 -0.74169289015E+02  0.74169289015E+02  0.00000000000E+00 0.  1.
          6    1    1    2  501    0 -0.43252908849E+02 -0.31999940907E+02  0.36603347960E+03  0.40841684408E+03  0.17300000000E+03 0.  1.
         -6    1    1    2    0  503  0.43252908849E+02  0.31999940907E+02  0.10191713244E+03  0.20787234599E+03  0.17300000000E+03 0.  1.
<mgrwt>
<rscale>  2 0.18117343E+03</rscale>
<asrwt>0</asrwt>
<pdfrwt beam="1">  1       21 0.83403059E-01 0.18117343E+03</pdfrwt>
<pdfrwt beam="2">  1       21 0.11410660E-01 0.18117343E+03</pdfrwt>
<totfact> 0.80728874E+04</totfact>
</mgrwt>
</event>
<event>
 4    1  0.3901757E+000  0.3039296E+03  0.7546771E-02  0.1083293E+00
         21   -1    0    0  501  502  0.00000000000E+00  0.00000000000E+00  0.79936851403E+02  0.79936851403E+02  0.00000000000E+00 0.  1.
         21   -1    0    0  502  503 -0.00000000000E+00 -0.00000000000E+00 -0.11557189991E+04  0.11557189991E+04  0.00000000000E+00 0. -1.
          6    1    1    2  501    0 -0.73620752825E+02 -0.23879739714E+03 -0.53105035564E+03  0.61187228435E+03  0.17300000000E+03 0.  1.
         -6    1    1    2    0  503  0.73620752825E+02  0.23879739714E+03 -0.54473179206E+03  0.62378356616E+03  0.17300000000E+03 0. -1.
<mgrwt>
<rscale>  2 0.30392962E+03</rscale>
<asrwt>0</asrwt>
<pdfrwt beam="1">  1       21 0.12297977E-01 0.30392962E+03</pdfrwt>
<pdfrwt beam="2">  1       21 0.17780293E+00 0.30392962E+03</pdfrwt>
<totfact> 0.98427843E+03</totfact>
</mgrwt>
</event>
<event>
 4    1  0.3901757E+000  0.2075478E+03  0.7546771E-02  0.1143523E+00
         21   -1    0    0  501  502  0.00000000000E+00  0.00000000000E+00  0.10894065101E+04  0.10894065101E+04  0.00000000000E+00 0. -1.
         21   -1    0    0  502  503 -0.00000000000E+00 -0.00000000000E+00 -0.66263878060E+02  0.66263878060E+02  0.00000000000E+00 0.  1.
          6    1    1    2  501    0  0.10126299860E+03  0.53785694740E+02  0.87852235971E+03  0.90270572855E+03  0.17300000000E+03 0. -1.
         -6    1    1    2    0  503 -0.10126299860E+03 -0.53785694740E+02  0.14462027233E+03  0.25296465962E+03  0.17300000000E+03 0.  1.
<mgrwt>
<rscale>  2 0.20754782E+03</rscale>
<asrwt>0</asrwt>
<pdfrwt beam="1">  1       21 0.16760099E+00 0.20754782E+03</pdfrwt>
<pdfrwt beam="2">  1       21 0.10194444E-01 0.20754782E+03</pdfrwt>
<totfact> 0.17217490E+04</totfact>
</mgrwt>
</event>
<event>
 4    1  0.3901757E+000  0.2421347E+03  0.7546771E-02  0.1118379E+00
         21   -1    0    0  501  502  0.00000000000E+00  0.00000000000E+00  0.62843847324E+03  0.62843847324E+03  0.00000000000E+00 0.  1.
         21   -1    0    0  502  503 -0.00000000000E+00 -0.00000000000E+00 -0.12997004586E+03  0.12997004586E+03  0.00000000000E+00 0.  1.
          6    1    1    2  501    0  0.92677254067E+02  0.14181381887E+03  0.45067421243E+03  0.51160187489E+03  0.17300000000E+03 0. -1.
         -6    1    1    2    0  503 -0.92677254067E+02 -0.14181381887E+03  0.47794214954E+02  0.24680664421E+03  0.17300000000E+03 0. -1.
<mgrwt>
<rscale>  2 0.24213474E+03</rscale>
<asrwt>0</asrwt>
<pdfrwt beam="1">  1       21 0.96682840E-01 0.24213474E+03</pdfrwt>
<pdfrwt beam="2">  1       21 0.19995392E-01 0.24213474E+03</pdfrwt>
<totfact> 0.19956256E+04</totfact>
</mgrwt>
</event>
<event>
 4    1  0.3901757E+000  0.3438188E+03  0.7546771E-02  0.1065181E+00
         21   -1    0    0  503  502  0.00000000000E+00  0.00000000000E+00  0.12772111759E+03  0.12772111759E+03  0.00000000000E+00 0.  1.
         21   -1    0    0  501  503 -0.00000000000E+00 -0.00000000000E+00 -0.10616639634E+04  0.10616639634E+04  0.00000000000E+00 0. -1.
          6    1    1    2  501    0 -0.26395086721E+03 -0.13642684265E+03 -0.67991374836E+03  0.76190160054E+03  0.17300000000E+03 0. -1.
         -6    1    1    2    0  502  0.26395086721E+03  0.13642684265E+03 -0.25402909742E+03  0.42748348042E+03  0.17300000000E+03 0.  1.
<mgrwt>
<rscale>  2 0.34381877E+03</rscale>
<asrwt>0</asrwt>
<pdfrwt beam="1">  1       21 0.19649402E-01 0.34381877E+03</pdfrwt>
<pdfrwt beam="2">  1       21 0.16333292E+00 0.34381877E+03</pdfrwt>
<totfact> 0.51536639E+03</totfact>
</mgrwt>
</event>
<event>
 4    1  0.3901757E+000  0.2087193E+03  0.7546771E-02  0.1142584E+00
         21   -1    0    0  501  502  0.00000000000E+00  0.00000000000E+00  0.35790801973E+03  0.35790801973E+03  0.00000000000E+00 0. -1.
         21   -1    0    0  502  503 -0.00000000000E+00 -0.00000000000E+00 -0.18253509551E+03  0.18253509551E+03  0.00000000000E+00 0.  1.
          6    1    1    2  501    0 -0.74905226751E+02 -0.89576492791E+02  0.24366351573E+03  0.32083586139E+03  0.17300000000E+03 0. -1.
         -6    1    1    2    0  503  0.74905226751E+02  0.89576492791E+02 -0.68290591513E+02  0.21960725385E+03  0.17300000000E+03 0.  1.
<mgrwt>
<rscale>  2 0.20871929E+03</rscale>
<asrwt>0</asrwt>
<pdfrwt beam="1">  1       21 0.55062772E-01 0.20871929E+03</pdfrwt>
<pdfrwt beam="2">  1       21 0.28082323E-01 0.20871929E+03</pdfrwt>
<totfact> 0.37382204E+04</totfact>
</mgrwt>
</event>
<event>
 4    1  0.3901757E+000  0.2256148E+03  0.7546771E-02  0.1129765E+00
         21   -1    0    0  501  502  0.00000000000E+00  0.00000000000E+00  0.66823512672E+03  0.66823512672E+03  0.00000000000E+00 0.  1.
         21   -1    0    0  502  503 -0.00000000000E+00 -0.00000000000E+00 -0.82248646290E+02  0.82248646290E+02  0.00000000000E+00 0.  1.
          6    1    1    2  501    0 -0.28963362212E+02  0.14189494299E+03  0.39497260801E+03  0.45486856593E+03  0.17300000000E+03 0.  1.
         -6    1    1    2    0  503  0.28963362212E+02 -0.14189494299E+03  0.19101387242E+03  0.29561520708E+03  0.17300000000E+03 0.  1.
<mgrwt>
<rscale>  2 0.22561483E+03</rscale>
<asrwt>0</asrwt>
<pdfrwt beam="1">  1       21 0.10280540E+00 0.22561483E+03</pdfrwt>
<pdfrwt beam="2">  1       21 0.12653638E-01 0.22561483E+03</pdfrwt>
<totfact> 0.40313930E+04</totfact>
</mgrwt>
</event>
<event>
 4    1  0.3901757E+000  0.1997956E+03  0.7546771E-02  0.1149912E+00
         21   -1    0    0  501  502  0.00000000000E+00  0.00000000000E+00  0.63276205465E+03  0.63276205465E+03  0.00000000000E+00 0.  1.
         21   -1    0    0  502  503 -0.00000000000E+00 -0.00000000000E+00 -0.67612794311E+02  0.67612794311E+02  0.00000000000E+00 0.  1.
          6    1    1    2  501    0  0.42474372036E+02  0.90472060805E+02  0.37318829233E+03  0.42330576136E+03  0.17300000000E+03 0.  1.
         -6    1    1    2    0  503 -0.42474372036E+02 -0.90472060805E+02  0.19196096801E+03  0.27706908760E+03  0.17300000000E+03 0.  1.
<mgrwt>
<rscale>  2 0.19979556E+03</rscale>
<asrwt>0</asrwt>
<pdfrwt beam="1">  1       21 0.97348004E-01 0.19979556E+03</pdfrwt>
<pdfrwt beam="2">  1       21 0.10401969E-01 0.19979556E+03</pdfrwt>
<totfact> 0.65975476E+04</totfact>
</mgrwt>
</event>
<event>
 4    1  0.3901757E+000  0.2205689E+03  0.7546771E-02  0.1133460E+00
         21   -1    0    0  503  502  0.00000000000E+00  0.00000000000E+00  0.15799007156E+04  0.15799007156E+04  0.00000000000E+00 0.  1.
         21   -1    0    0  501  503 -0.00000000000E+00 -0.00000000000E+00 -0.73157075697E+02  0.73157075697E+02  0.00000000000E+00 0. -1.
          6    1    1    2  501    0  0.11781821928E+03 -0.69573673007E+02  0.12440705025E+03  0.25323456107E+03  0.17300000000E+03 0. -1.
         -6    1    1    2    0  502 -0.11781821928E+03  0.69573673007E+02  0.13823365897E+04  0.13998232302E+04  0.17300000000E+03 0.  1.
<mgrwt>
<rscale>  2 0.22056888E+03</rscale>
<asrwt>0</asrwt>
<pdfrwt beam="1">  1       21 0.24306162E+00 0.22056888E+03</pdfrwt>
<pdfrwt beam="2">  1       21 0.11254936E-01 0.22056888E+03</pdfrwt>
<totfact> 0.46778602E+03</totfact>
</mgrwt>
</event>
<event>
 4    1  0.3901757E+000  0.1933198E+03  0.7546771E-02  0.1155501E+00
         21   -1    0    0  503  502  0.00000000000E+00  0.00000000000E+00  0.17274938220E+04  0.17274938220E+04  0.00000000000E+00 0.  1.
         21   -1    0    0  501  503 -0.00000000000E+00 -0.00000000000E+00 -0.22017151709E+02  0.22017151709E+02  0.00000000000E+00 0.  1.
          6    1    1    2  501    0  0.12351741183E+02  0.85387233015E+02  0.73733723428E+03  0.76225897314E+03  0.17300000000E+03 0.  1.
         -6    1    1    2    0  502 -0.12351741183E+02 -0.85387233015E+02  0.96813943599E+03  0.98725200055E+03  0.17300000000E+03 0.  1.
<mgrwt>
<rscale>  2 0.19331980E+03</rscale>
<asrwt>0</asrwt>
<pdfrwt beam="1">  1       21 0.26576817E+00 0.19331980E+03</pdfrwt>
<pdfrwt beam="2">  1       21 0.33872555E-02 0.19331980E+03</pdfrwt>
<totfact> 0.27808089E+04</totfact>
</mgrwt>
</event>
<event>
 4    1  0.3901757E+000  0.2984103E+03  0.7546771E-02  0.1086038E+00
         21   -1    0    0  501  502  0.00000000000E+00  0.00000000000E+00  0.11359709445E+03  0.11359709445E+03  0.00000000000E+00 0.  1.
         21   -1    0    0  502  503 -0.00000000000E+00 -0.00000000000E+00 -0.84639839466E+03  0.84639839466E+03  0.00000000000E+00 0.  1.
          6    1    1    2  501    0  0.81147479364E+02  0.22920469641E+03 -0.23596751677E+03  0.38043314161E+03  0.17300000000E+03 0.  1.
         -6    1    1    2    0  503 -0.81147479364E+02 -0.22920469641E+03 -0.49683378345E+03  0.57956234750E+03  0.17300000000E+03 0.  1.
<mgrwt>
<rscale>  2 0.29841030E+03</rscale>
<asrwt>0</asrwt>
<pdfrwt beam="1">  1       21 0.17476475E-01 0.29841030E+03</pdfrwt>
<pdfrwt beam="2">  1       21 0.13021514E+00 0.29841030E+03</pdfrwt>
<totfact> 0.12000062E+04</totfact>
</mgrwt>
</event>
<event>
 4    1  0.3901757E+000  0.1764552E+03  0.7546771E-02  0.1171278E+00
         21   -1    0    0  501  502  0.00000000000E+00  0.00000000000E+00  0.38047812253E+03  0.38047812253E+03  0.00000000000E+00 0. -1.
         21   -1    0    0  502  503 -0.00000000000E+00 -0.00000000000E+00 -0.10689946391E+03  0.10689946391E+03  0.00000000000E+00 0. -1.
          6    1    1    2  501    0 -0.20409577270E+02 -0.28122944000E+02  0.25478782339E+03  0.30992464531E+03  0.17300000000E+03 0. -1.
         -6    1    1    2    0  503  0.20409577270E+02  0.28122944000E+02  0.18790835228E+02  0.17745294112E+03  0.17300000000E+03 0. -1.
<mgrwt>
<rscale>  2 0.17645524E+03</rscale>
<asrwt>0</asrwt>
<pdfrwt beam="1">  1       21 0.58535095E-01 0.17645524E+03</pdfrwt>
<pdfrwt beam="2">  1       21 0.16446072E-01 0.17645524E+03</pdfrwt>
<totfact> 0.91167781E+04</totfact>
</mgrwt>
</event>
<event>
 4    1  0.3901757E+000  0.1739503E+03  0.7546771E-02  0.1173790E+00
         21   -1    0    0  503  502  0.00000000000E+00  0.00000000000E+00  0.12314177295E+04  0.12314177295E+04  0.00000000000E+00 0. -1.
         21   -1    0    0  501  503 -0.00000000000E+00 -0.00000000000E+00 -0.32412525147E+02  0.32412525147E+02  0.00000000000E+00 0. -1.
          6    1    1    2  501    0  0.22027158829E+00  0.18156691076E+02  0.28871208889E+03  0.33706584553E+03  0.17300000000E+03 0. -1.
         -6    1    1    2    0  502 -0.22027158829E+00 -0.18156691076E+02  0.91029311543E+03  0.92676440909E+03  0.17300000000E+03 0. -1.
<mgrwt>
<rscale>  2 0.17395032E+03</rscale>
<asrwt>0</asrwt>
<pdfrwt beam="1">  1       21 0.18944885E+00 0.17395032E+03</pdfrwt>
<pdfrwt beam="2">  1       21 0.49865433E-02 0.17395032E+03</pdfrwt>
<totfact> 0.43030828E+04</totfact>
</mgrwt>
</event>
<event>
 4    1  0.3901757E+000  0.1846034E+03  0.7546771E-02  0.1163421E+00
         21   -1    0    0  503  502  0.00000000000E+00  0.00000000000E+00  0.12027607769E+02  0.12027607769E+02  0.00000000000E+00 0. -1.
         21   -1    0    0  501  503 -0.00000000000E+00 -0.00000000000E+00 -0.28488197955E+04  0.28488197955E+04  0.00000000000E+00 0.  1.
          6    1    1    2  501    0  0.42910452682E+02  0.48042753862E+02 -0.15238069583E+04  0.15349482269E+04  0.17300000000E+03 0. -1.
         -6    1    1    2    0  502 -0.42910452682E+02 -0.48042753862E+02 -0.13129852294E+04  0.13258991764E+04  0.17300000000E+03 0.  1.
<mgrwt>
<rscale>  2 0.18460339E+03</rscale>
<asrwt>0</asrwt>
<pdfrwt beam="1">  1       21 0.18504042E-02 0.18460339E+03</pdfrwt>
<pdfrwt beam="2">  1       21 0.43827925E+00 0.18460339E+03</pdfrwt>
<totfact> 0.70196601E+03</totfact>
</mgrwt>
</event>
<event>
 4    1  0.3901757E+000  0.1828567E+03  0.7546771E-02  0.1165067E+00
         21   -1    0    0  503  502  0.00000000000E+00  0.00000000000E+00  0.43147677810E+02  0.43147677810E+02  0.00000000000E+00 0. -1.
         21   -1    0    0  501  503 -0.00000000000E+00 -0.00000000000E+00 -0.81896942843E+03  0.81896942843E+03  0.00000000000E+00 0. -1.
          6    1    1    2  501    0  0.55068626050E+02 -0.21794543424E+02 -0.48786688027E+03  0.52100925958E+03  0.17300000000E+03 0. -1.
         -6    1    1    2    0  502 -0.55068626050E+02  0.21794543424E+02 -0.28795487035E+03  0.34110784666E+03  0.17300000000E+03 0. -1.
<mgrwt>
<rscale>  2 0.18285665E+03</rscale>
<asrwt>0</asrwt>
<pdfrwt beam="1">  1       21 0.66381042E-02 0.18285665E+03</pdfrwt>
<pdfrwt beam="2">  1       21 0.12599530E+00 0.18285665E+03</pdfrwt>
<totfact> 0.77877425E+04</totfact>
</mgrwt>
</event>
<event>
 4    1  0.3901757E+000  0.1965100E+03  0.7546771E-02  0.1152717E+00
         21   -1    0    0  503  502  0.00000000000E+00  0.00000000000E+00  0.32114125585E+03  0.32114125585E+03  0.00000000000E+00 0. -1.
         21   -1    0    0  501  503 -0.00000000000E+00 -0.00000000000E+00 -0.21149383448E+03  0.21149383448E+03  0.00000000000E+00 0. -1.
          6    1    1    2  501    0 -0.90516038149E+02  0.22226764955E+02  0.22975218016E+03  0.30232804456E+03  0.17300000000E+03 0. -1.
         -6    1    1    2    0  502  0.90516038149E+02 -0.22226764955E+02 -0.12010475879E+03  0.23030704576E+03  0.17300000000E+03 0. -1.
<mgrwt>
<rscale>  2 0.19651001E+03</rscale>
<asrwt>0</asrwt>
<pdfrwt beam="1">  1       21 0.49406347E-01 0.19651001E+03</pdfrwt>
<pdfrwt beam="2">  1       21 0.32537513E-01 0.19651001E+03</pdfrwt>
<totfact> 0.35436586E+04</totfact>
</mgrwt>
</event>
<event>
 4    1  0.3901757E+000  0.1832900E+03  0.7546771E-02  0.1164656E+00
         21   -1    0    0  503  502  0.00000000000E+00  0.00000000000E+00  0.17430624499E+02  0.17430624499E+02  0.00000000000E+00 0.  1.
         21   -1    0    0  501  503 -0.00000000000E+00 -0.00000000000E+00 -0.29064178030E+04  0.29064178030E+04  0.00000000000E+00 0.  1.
          6    1    1    2  501    0  0.49847302634E+02  0.34372733725E+02 -0.22929862597E+04  0.23003002468E+04  0.17300000000E+03 0.  1.
         -6    1    1    2    0  502 -0.49847302634E+02 -0.34372733725E+02 -0.59600091883E+03  0.62354818069E+03  0.17300000000E+03 0.  1.
<mgrwt>
<rscale>  2 0.18329004E+03</rscale>
<asrwt>0</asrwt>
<pdfrwt beam="1">  1       21 0.26816380E-02 0.18329004E+03</pdfrwt>
<pdfrwt beam="2">  1       21 0.44714062E+00 0.18329004E+03</pdfrwt>
<totfact> 0.33567468E+03</totfact>
</mgrwt>
</event>
<event>
 4    1  0.3901757E+000  0.1764030E+03  0.7546771E-02  0.1171330E+00
         21   -1    0    0  501  502  0.00000000000E+00  0.00000000000E+00  0.24081254954E+03  0.24081254954E+03  0.00000000000E+00 0. -1.
         21   -1    0    0  502  503 -0.00000000000E+00 -0.00000000000E+00 -0.13662205874E+03  0.13662205874E+03  0.00000000000E+00 0. -1.
          6    1    1    2  501    0 -0.28444429834E+02  0.19491917079E+02  0.96019098981E+02  0.20084244519E+03  0.17300000000E+03 0. -1.
         -6    1    1    2    0  503  0.28444429834E+02 -0.19491917079E+02  0.81713918136E+01  0.17659216309E+03  0.17300000000E+03 0. -1.
<mgrwt>
<rscale>  2 0.17640301E+03</rscale>
<asrwt>0</asrwt>
<pdfrwt beam="1">  1       21 0.37048084E-01 0.17640301E+03</pdfrwt>
<pdfrwt beam="2">  1       21 0.21018778E-01 0.17640301E+03</pdfrwt>
<totfact> 0.14857089E+05</totfact>
</mgrwt>
</event>
<event>
 4    1  0.3901757E+000  0.2543747E+03  0.7546771E-02  0.1110571E+00
         21   -1    0    0  501  502  0.00000000000E+00  0.00000000000E+00  0.17254913836E+03  0.17254913836E+03  0.00000000000E+00 0.  1.
         21   -1    0    0  502  503 -0.00000000000E+00 -0.00000000000E+00 -0.68199883408E+03  0.68199883408E+03  0.00000000000E+00 0. -1.
          6    1    1    2  501    0 -0.17574894193E+02 -0.18565730290E+03  0.31944068552E+02  0.25637264780E+03  0.17300000000E+03 0.  1.
         -6    1    1    2    0  503  0.17574894193E+02  0.18565730290E+03 -0.54139376427E+03  0.59817532464E+03  0.17300000000E+03 0. -1.
<mgrwt>
<rscale>  2 0.25437475E+03</rscale>
<asrwt>0</asrwt>
<pdfrwt beam="1">  1       21 0.26546021E-01 0.25437475E+03</pdfrwt>
<pdfrwt beam="2">  1       21 0.10492290E+00 0.25437475E+03</pdfrwt>
<totfact> 0.94993896E+03</totfact>
</mgrwt>
</event>
<event>
 4    1  0.3901757E+000  0.2442355E+03  0.7546771E-02  0.1117003E+00
         21   -1    0    0  503  502  0.00000000000E+00  0.00000000000E+00  0.39947178556E+03  0.39947178556E+03  0.00000000000E+00 0.  1.
         21   -1    0    0  501  503 -0.00000000000E+00 -0.00000000000E+00 -0.15110414133E+03  0.15110414133E+03  0.00000000000E+00 0.  1.
          6    1    1    2  501    0 -0.12694845738E+03 -0.11664511337E+03  0.94309758065E+02  0.26181161886E+03  0.17300000000E+03 0.  1.
         -6    1    1    2    0  502  0.12694845738E+03  0.11664511337E+03  0.15405788617E+03  0.28876430803E+03  0.17300000000E+03 0.  1.
<mgrwt>
<rscale>  2 0.24423553E+03</rscale>
<asrwt>0</asrwt>
<pdfrwt beam="1">  1       21 0.61457197E-01 0.24423553E+03</pdfrwt>
<pdfrwt beam="2">  1       21 0.23246791E-01 0.24423553E+03</pdfrwt>
<totfact> 0.41770236E+04</totfact>
</mgrwt>
</event>
<event>
 4    1  0.3901757E+000  0.2343495E+03  0.7546771E-02  0.1123615E+00
         21   -1    0    0  501  502  0.00000000000E+00  0.00000000000E+00  0.14285853925E+04  0.14285853925E+04  0.00000000000E+00 0.  1.
         21   -1    0    0  502  503 -0.00000000000E+00 -0.00000000000E+00 -0.11754205601E+03  0.11754205601E+03  0.00000000000E+00 0. -1.
          6    1    1    2  501    0  0.72710207622E+02  0.14037071348E+03  0.12896879457E+04  0.13108068922E+04  0.17300000000E+03 0.  1.
         -6    1    1    2    0  503 -0.72710207622E+02 -0.14037071348E+03  0.21355390811E+02  0.23532055629E+03  0.17300000000E+03 0. -1.
<mgrwt>
<rscale>  2 0.23434955E+03</rscale>
<asrwt>0</asrwt>
<pdfrwt beam="1">  1       21 0.21978236E+00 0.23434955E+03</pdfrwt>
<pdfrwt beam="2">  1       21 0.18083394E-01 0.23434955E+03</pdfrwt>
<totfact> 0.26980600E+03</totfact>
</mgrwt>
</event>
<event>
 4    1  0.3901757E+000  0.2334432E+03  0.7546771E-02  0.1124239E+00
         21   -1    0    0  503  502  0.00000000000E+00  0.00000000000E+00  0.12937840871E+03  0.12937840871E+03  0.00000000000E+00 0. -1.
         21   -1    0    0  501  503 -0.00000000000E+00 -0.00000000000E+00 -0.94331815223E+03  0.94331815223E+03  0.00000000000E+00 0. -1.
          6    1    1    2  501    0 -0.26801658561E+02 -0.15442934306E+03 -0.80599216627E+03  0.83911806260E+03  0.17300000000E+03 0. -1.
         -6    1    1    2    0  502  0.26801658561E+02  0.15442934306E+03 -0.79475772584E+01  0.23357849833E+03  0.17300000000E+03 0. -1.
<mgrwt>
<rscale>  2 0.23344325E+03</rscale>
<asrwt>0</asrwt>
<pdfrwt beam="1">  1       21 0.19904371E-01 0.23344325E+03</pdfrwt>
<pdfrwt beam="2">  1       21 0.14512587E+00 0.23344325E+03</pdfrwt>
<totfact> 0.73656194E+03</totfact>
</mgrwt>
</event>
<event>
 4    1  0.3901757E+000  0.2938172E+03  0.7546771E-02  0.1088373E+00
         21   -1    0    0  501  502  0.00000000000E+00  0.00000000000E+00  0.14744558972E+03  0.14744558972E+03  0.00000000000E+00 0. -1.
         21   -1    0    0  502  503 -0.00000000000E+00 -0.00000000000E+00 -0.63944832416E+03  0.63944832416E+03  0.00000000000E+00 0.  1.
          6    1    1    2  501    0  0.12499303889E+03  0.20193137696E+03 -0.13171466513E+03  0.32198958645E+03  0.17300000000E+03 0. -1.
         -6    1    1    2    0  503 -0.12499303889E+03 -0.20193137696E+03 -0.36028806932E+03  0.46490432743E+03  0.17300000000E+03 0.  1.
<mgrwt>
<rscale>  2 0.29381719E+03</rscale>
<asrwt>0</asrwt>
<pdfrwt beam="1">  1       21 0.22683937E-01 0.29381719E+03</pdfrwt>
<pdfrwt beam="2">  1       21 0.98376667E-01 0.29381719E+03</pdfrwt>
<totfact> 0.14713906E+04</totfact>
</mgrwt>
</event>
<event>
 4    1  0.3901757E+000  0.2862080E+03  0.7546771E-02  0.1092346E+00
         21   -1    0    0  501  502  0.00000000000E+00  0.00000000000E+00  0.14940043483E+03  0.14940043483E+03  0.00000000000E+00 0. -1.
         21   -1    0    0  502  503 -0.00000000000E+00 -0.00000000000E+00 -0.56470544637E+03  0.56470544637E+03  0.00000000000E+00 0. -1.
          6    1    1    2  501    0 -0.16374434601E+02  0.22741564371E+03 -0.26852587919E+03  0.39245527759E+03  0.17300000000E+03 0. -1.
         -6    1    1    2    0  503  0.16374434601E+02 -0.22741564371E+03 -0.14677913235E+03  0.32165060362E+03  0.17300000000E+03 0. -1.
<mgrwt>
<rscale>  2 0.28620796E+03</rscale>
<asrwt>0</asrwt>
<pdfrwt beam="1">  1       21 0.22984682E-01 0.28620796E+03</pdfrwt>
<pdfrwt beam="2">  1       21 0.86877761E-01 0.28620796E+03</pdfrwt>
<totfact> 0.19291665E+04</totfact>
</mgrwt>
</event>
<event>
 4    1  0.3901757E+000  0.1788507E+03  0.7546771E-02  0.1168920E+00
         21   -1    0    0  501  502  0.00000000000E+00  0.00000000000E+00  0.18114745086E+03  0.18114745086E+03  0.00000000000E+00 0. -1.
         21   -1    0    0  502  503 -0.00000000000E+00 -0.00000000000E+00 -0.19008170860E+03  0.19008170860E+03  0.00000000000E+00 0. -1.
          6    1    1    2  501    0  0.34683410917E+02 -0.29251389627E+02  0.44996507203E+02  0.18442415365E+03  0.17300000000E+03 0. -1.
         -6    1    1    2    0  503 -0.34683410917E+02  0.29251389627E+02 -0.53930764944E+02  0.18680500581E+03  0.17300000000E+03 0. -1.
<mgrwt>
<rscale>  2 0.17885073E+03</rscale>
<asrwt>0</asrwt>
<pdfrwt beam="1">  1       21 0.27868839E-01 0.17885073E+03</pdfrwt>
<pdfrwt beam="2">  1       21 0.29243340E-01 0.17885073E+03</pdfrwt>
<totfact> 0.13832431E+05</totfact>
</mgrwt>
</event>
<event>
 4    1  0.3901757E+000  0.1780668E+03  0.7546771E-02  0.1169687E+00
         21   -1    0    0  503  502  0.00000000000E+00  0.00000000000E+00  0.92279186376E+02  0.92279186376E+02  0.00000000000E+00 0. -1.
         21   -1    0    0  501  503 -0.00000000000E+00 -0.00000000000E+00 -0.37194215221E+03  0.37194215221E+03  0.00000000000E+00 0. -1.
          6    1    1    2  501    0  0.12067659646E+02  0.40412165066E+02 -0.20389642231E+03  0.27070560121E+03  0.17300000000E+03 0. -1.
         -6    1    1    2    0  502 -0.12067659646E+02 -0.40412165066E+02 -0.75766543521E+02  0.19351573737E+03  0.17300000000E+03 0. -1.
<mgrwt>
<rscale>  2 0.17806676E+03</rscale>
<asrwt>0</asrwt>
<pdfrwt beam="1">  1       21 0.14196798E-01 0.17806676E+03</pdfrwt>
<pdfrwt beam="2">  1       21 0.57221870E-01 0.17806676E+03</pdfrwt>
<totfact> 0.12496956E+05</totfact>
</mgrwt>
</event>
<event>
 4    1  0.3901757E+000  0.2495306E+03  0.7546771E-02  0.1113602E+00
         21   -1    0    0  501  502  0.00000000000E+00  0.00000000000E+00  0.32359277159E+03  0.32359277159E+03  0.00000000000E+00 0. -1.
         21   -1    0    0  502  503 -0.00000000000E+00 -0.00000000000E+00 -0.28100188323E+03  0.28100188323E+03  0.00000000000E+00 0.  1.
          6    1    1    2  501    0 -0.55440410177E+02  0.17106392588E+03  0.19102355521E+03  0.31425388536E+03  0.17300000000E+03 0. -1.
         -6    1    1    2    0  503  0.55440410177E+02 -0.17106392588E+03 -0.14843266686E+03  0.29034076946E+03  0.17300000000E+03 0.  1.
<mgrwt>
<rscale>  2 0.24953057E+03</rscale>
<asrwt>0</asrwt>
<pdfrwt beam="1">  1       21 0.49783503E-01 0.24953057E+03</pdfrwt>
<pdfrwt beam="2">  1       21 0.43231059E-01 0.24953057E+03</pdfrwt>
<totfact> 0.19170549E+04</totfact>
</mgrwt>
</event>
<event>
 4    1  0.3901757E+000  0.1841588E+03  0.7546771E-02  0.1163838E+00
         21   -1    0    0  501  502  0.00000000000E+00  0.00000000000E+00  0.14048919669E+03  0.14048919669E+03  0.00000000000E+00 0.  1.
         21   -1    0    0  502  503 -0.00000000000E+00 -0.00000000000E+00 -0.24814485639E+03  0.24814485639E+03  0.00000000000E+00 0.  1.
          6    1    1    2  501    0 -0.33184140258E+01  0.63043380812E+02 -0.85857739827E+02  0.20318964350E+03  0.17300000000E+03 0. -1.
         -6    1    1    2    0  503  0.33184140258E+01 -0.63043380812E+02 -0.21797919877E+02  0.18544440959E+03  0.17300000000E+03 0. -1.
<mgrwt>
<rscale>  2 0.18415884E+03</rscale>
<asrwt>0</asrwt>
<pdfrwt beam="1">  1       21 0.21613723E-01 0.18415884E+03</pdfrwt>
<pdfrwt beam="2">  1       21 0.38176131E-01 0.18415884E+03</pdfrwt>
<totfact> 0.13243886E+05</totfact>
</mgrwt>
</event>
<event>
 4    1  0.3901757E+000  0.2440891E+03  0.7546771E-02  0.1117098E+00
         21   -1    0    0  503  502  0.00000000000E+00  0.00000000000E+00  0.86669046205E+03  0.86669046205E+03  0.00000000000E+00 0. -1.
         21   -1    0    0  501  503 -0.00000000000E+00 -0.00000000000E+00 -0.43539486526E+03  0.43539486526E+03  0.00000000000E+00 0. -1.
          6    1    1    2  501    0 -0.17219321522E+03  0.88937661319E-01 -0.38179224965E+03  0.45314990143E+03  0.17300000000E+03 0. -1.
         -6    1    1    2    0  502  0.17219321522E+03 -0.88937661319E-01  0.81308784644E+03  0.84893542588E+03  0.17300000000E+03 0. -1.
<mgrwt>
<rscale>  2 0.24408915E+03</rscale>
<asrwt>0</asrwt>
<pdfrwt beam="1">  1       21 0.13333699E+00 0.24408915E+03</pdfrwt>
<pdfrwt beam="2">  1       21 0.66983826E-01 0.24408915E+03</pdfrwt>
<totfact> 0.78768256E+02</totfact>
</mgrwt>
</event>
<event>
 4    1  0.3901757E+000  0.1757086E+03  0.7546771E-02  0.1172022E+00
         21   -1    0    0  501  502  0.00000000000E+00  0.00000000000E+00  0.10190010614E+03  0.10190010614E+03  0.00000000000E+00 0.  1.
         21   -1    0    0  502  503 -0.00000000000E+00 -0.00000000000E+00 -0.30298411920E+03  0.30298411920E+03  0.00000000000E+00 0.  1.
          6    1    1    2  501    0 -0.16765624267E+02 -0.25757212812E+02 -0.99654235521E+02  0.20200120501E+03  0.17300000000E+03 0. -1.
         -6    1    1    2    0  503  0.16765624267E+02  0.25757212812E+02 -0.10142977754E+03  0.20288302034E+03  0.17300000000E+03 0. -1.
<mgrwt>
<rscale>  2 0.17570862E+03</rscale>
<asrwt>0</asrwt>
<pdfrwt beam="1">  1       21 0.15676939E-01 0.17570862E+03</pdfrwt>
<pdfrwt beam="2">  1       21 0.46612941E-01 0.17570862E+03</pdfrwt>
<totfact> 0.16037605E+05</totfact>
</mgrwt>
</event>
<event>
 4    1  0.3901757E+000  0.1774245E+03  0.7546771E-02  0.1170319E+00
         21   -1    0    0  501  502  0.00000000000E+00  0.00000000000E+00  0.58942615787E+03  0.58942615787E+03  0.00000000000E+00 0.  1.
         21   -1    0    0  502  503 -0.00000000000E+00 -0.00000000000E+00 -0.10032204047E+03  0.10032204047E+03  0.00000000000E+00 0.  1.
          6    1    1    2  501    0  0.36181939840E+02 -0.15534905609E+02  0.48039266349E+03  0.51210992686E+03  0.17300000000E+03 0.  1.
         -6    1    1    2    0  503 -0.36181939840E+02  0.15534905609E+02  0.87114539233E+01  0.17763827147E+03  0.17300000000E+03 0.  1.
<mgrwt>
<rscale>  2 0.17742454E+03</rscale>
<asrwt>0</asrwt>
<pdfrwt beam="1">  1       21 0.90680946E-01 0.17742454E+03</pdfrwt>
<pdfrwt beam="2">  1       21 0.15434160E-01 0.17742454E+03</pdfrwt>
<totfact> 0.38756745E+04</totfact>
</mgrwt>
</event>
<event>
 4    1  0.3901757E+000  0.2217592E+03  0.7546771E-02  0.1132578E+00
         21   -1    0    0  503  502  0.00000000000E+00  0.00000000000E+00  0.34023122124E+02  0.34023122124E+02  0.00000000000E+00 0. -1.
         21   -1    0    0  501  503 -0.00000000000E+00 -0.00000000000E+00 -0.14459870328E+04  0.14459870328E+04  0.00000000000E+00 0. -1.
          6    1    1    2  501    0 -0.13841793473E+03 -0.94140849991E+01 -0.69111995245E+03  0.72582638305E+03  0.17300000000E+03 0. -1.
         -6    1    1    2    0  502  0.13841793473E+03  0.94140849991E+01 -0.72084395820E+03  0.75418377185E+03  0.17300000000E+03 0. -1.
<mgrwt>
<rscale>  2 0.22175922E+03</rscale>
<asrwt>0</asrwt>
<pdfrwt beam="1">  1       21 0.52343258E-02 0.22175922E+03</pdfrwt>
<pdfrwt beam="2">  1       21 0.22245957E+00 0.22175922E+03</pdfrwt>
<totfact> 0.23655634E+04</totfact>
</mgrwt>
</event>
<event>
 4    1  0.3901757E+000  0.1921801E+03  0.7546771E-02  0.1156510E+00
         21   -1    0    0  501  502  0.00000000000E+00  0.00000000000E+00  0.30416746332E+03  0.30416746332E+03  0.00000000000E+00 0.  1.
         21   -1    0    0  502  503 -0.00000000000E+00 -0.00000000000E+00 -0.28873638735E+03  0.28873638735E+03  0.00000000000E+00 0.  1.
          6    1    1    2  501    0 -0.81838773763E+02  0.17510376242E+02  0.23338235343E+03  0.30232519091E+03  0.17300000000E+03 0.  1.
         -6    1    1    2    0  503  0.81838773763E+02 -0.17510376242E+02 -0.21795127746E+03  0.29057865977E+03  0.17300000000E+03 0.  1.
<mgrwt>
<rscale>  2 0.19218012E+03</rscale>
<asrwt>0</asrwt>
<pdfrwt beam="1">  1       21 0.46794994E-01 0.19218012E+03</pdfrwt>
<pdfrwt beam="2">  1       21 0.44420983E-01 0.19218012E+03</pdfrwt>
<totfact> 0.21281974E+04</totfact>
</mgrwt>
</event>
<event>
 4    1  0.3901757E+000  0.2422343E+03  0.7546771E-02  0.1118313E+00
         21   -1    0    0  503  502  0.00000000000E+00  0.00000000000E+00  0.10481082380E+04  0.10481082380E+04  0.00000000000E+00 0.  1.
         21   -1    0    0  501  503 -0.00000000000E+00 -0.00000000000E+00 -0.92157440429E+02  0.92157440429E+02  0.00000000000E+00 0. -1.
          6    1    1    2  501    0  0.11277899714E+03  0.12660707618E+03  0.12078084134E+03  0.27067594199E+03  0.17300000000E+03 0. -1.
         -6    1    1    2    0  502 -0.11277899714E+03 -0.12660707618E+03  0.83516995625E+03  0.86958973647E+03  0.17300000000E+03 0.  1.
<mgrwt>
<rscale>  2 0.24223430E+03</rscale>
<asrwt>0</asrwt>
<pdfrwt beam="1">  1       21 0.16124741E+00 0.24223430E+03</pdfrwt>
<pdfrwt beam="2">  1       21 0.14178068E-01 0.24223430E+03</pdfrwt>
<totfact> 0.10342114E+04</totfact>
</mgrwt>
</event>
<event>
 4    1  0.3901757E+000  0.2516176E+03  0.7546771E-02  0.1112287E+00
         21   -1    0    0  501  502  0.00000000000E+00  0.00000000000E+00  0.20394374237E+03  0.20394374237E+03  0.00000000000E+00 0.  1.
         21   -1    0    0  502  503 -0.00000000000E+00 -0.00000000000E+00 -0.31470018242E+03  0.31470018242E+03  0.00000000000E+00 0.  1.
          6    1    1    2  501    0  0.37759269048E+02  0.17876419978E+03 -0.85565792158E+02  0.26576852016E+03  0.17300000000E+03 0.  1.
         -6    1    1    2    0  503 -0.37759269048E+02 -0.17876419978E+03 -0.25190647890E+02  0.25287540462E+03  0.17300000000E+03 0.  1.
<mgrwt>
<rscale>  2 0.25161757E+03</rscale>
<asrwt>0</asrwt>
<pdfrwt beam="1">  1       21 0.31375960E-01 0.25161757E+03</pdfrwt>
<pdfrwt beam="2">  1       21 0.48415413E-01 0.25161757E+03</pdfrwt>
<totfact> 0.38686165E+04</totfact>
</mgrwt>
</event>
<event>
 4    1  0.3901757E+000  0.1963713E+03  0.7546771E-02  0.1152837E+00
         21   -1    0    0  501  502  0.00000000000E+00  0.00000000000E+00  0.16894131508E+03  0.16894131508E+03  0.00000000000E+00 0.  1.
         21   -1    0    0  502  503 -0.00000000000E+00 -0.00000000000E+00 -0.22897508792E+03  0.22897508792E+03  0.00000000000E+00 0.  1.
          6    1    1    2  501    0  0.77244529296E+02  0.51632987527E+02 -0.41175009120E+02  0.20064163098E+03  0.17300000000E+03 0. -1.
         -6    1    1    2    0  503 -0.77244529296E+02 -0.51632987527E+02 -0.18858763718E+02  0.19727477202E+03  0.17300000000E+03 0. -1.
<mgrwt>
<rscale>  2 0.19637129E+03</rscale>
<asrwt>0</asrwt>
<pdfrwt beam="1">  1       21 0.25990971E-01 0.19637129E+03</pdfrwt>
<pdfrwt beam="2">  1       21 0.35226937E-01 0.19637129E+03</pdfrwt>
<totfact> 0.10908688E+05</totfact>
</mgrwt>
</event>
<event>
 4    1  0.3901757E+000  0.1842068E+03  0.7546771E-02  0.1163793E+00
         21   -1    0    0  501  502  0.00000000000E+00  0.00000000000E+00  0.95118819757E+03  0.95118819757E+03  0.00000000000E+00 0.  1.
         21   -1    0    0  502  503 -0.00000000000E+00 -0.00000000000E+00 -0.65248689260E+02  0.65248689260E+02  0.00000000000E+00 0.  1.
          6    1    1    2  501    0 -0.48473432142E+02 -0.40662989257E+02  0.78512937340E+03  0.80644918333E+03  0.17300000000E+03 0.  1.
         -6    1    1    2    0  503  0.48473432142E+02  0.40662989257E+02  0.10081013490E+03  0.20998770349E+03  0.17300000000E+03 0.  1.
<mgrwt>
<rscale>  2 0.18420682E+03</rscale>
<asrwt>0</asrwt>
<pdfrwt beam="1">  1       21 0.14633664E+00 0.18420682E+03</pdfrwt>
<pdfrwt beam="2">  1       21 0.10038261E-01 0.18420682E+03</pdfrwt>
<totfact> 0.25843947E+04</totfact>
</mgrwt>
</event>
<event>
 4    1  0.3901757E+000  0.2032831E+03  0.7546771E-02  0.1146998E+00
         21   -1    0    0  503  502  0.00000000000E+00  0.00000000000E+00  0.25208248341E+03  0.25208248341E+03  0.00000000000E+00 0. -1.
         21   -1    0    0  501  503 -0.00000000000E+00 -0.00000000000E+00 -0.18513571637E+03  0.18513571637E+03  0.00000000000E+00 0. -1.
          6    1    1    2  501    0 -0.65207897009E+02  0.84516022898E+02 -0.40511612623E+02  0.20728053144E+03  0.17300000000E+03 0. -1.
         -6    1    1    2    0  502  0.65207897009E+02 -0.84516022898E+02  0.10745837967E+03  0.22993766833E+03  0.17300000000E+03 0. -1.
<mgrwt>
<rscale>  2 0.20328312E+03</rscale>
<asrwt>0</asrwt>
<pdfrwt beam="1">  1       21 0.38781921E-01 0.20328312E+03</pdfrwt>
<pdfrwt beam="2">  1       21 0.28482418E-01 0.20328312E+03</pdfrwt>
<totfact> 0.75216740E+04</totfact>
</mgrwt>
</event>
<event>
 4    1  0.3901757E+000  0.1873449E+03  0.7546771E-02  0.1160878E+00
         21   -1    0    0  501  502  0.00000000000E+00  0.00000000000E+00  0.74640179991E+02  0.74640179991E+02  0.00000000000E+00 0.  1.
         21   -1    0    0  502  503 -0.00000000000E+00 -0.00000000000E+00 -0.72549489368E+03  0.72549489368E+03  0.00000000000E+00 0.  1.
          6    1    1    2  501    0  0.23909421300E+02 -0.67804548404E+02 -0.56273456644E+03  0.59310058968E+03  0.17300000000E+03 0.  1.
         -6    1    1    2    0  503 -0.23909421300E+02  0.67804548404E+02 -0.88120147250E+02  0.20703448399E+03  0.17300000000E+03 0.  1.
<mgrwt>
<rscale>  2 0.18734492E+03</rscale>
<asrwt>0</asrwt>
<pdfrwt beam="1">  1       21 0.11483105E-01 0.18734492E+03</pdfrwt>
<pdfrwt beam="2">  1       21 0.11161459E+00 0.18734492E+03</pdfrwt>
<totfact> 0.40136950E+04</totfact>
</mgrwt>
</event>
<event>
 4    1  0.3901757E+000  0.2028541E+03  0.7546771E-02  0.1147353E+00
         21   -1    0    0  503  502  0.00000000000E+00  0.00000000000E+00  0.42287403615E+02  0.42287403615E+02  0.00000000000E+00 0. -1.
         21   -1    0    0  501  503 -0.00000000000E+00 -0.00000000000E+00 -0.10783696456E+04  0.10783696456E+04  0.00000000000E+00 0.  1.
          6    1    1    2  501    0  0.10550621592E+03 -0.94466488951E+01 -0.69311202790E+03  0.72218701456E+03  0.17300000000E+03 0. -1.
         -6    1    1    2    0  502 -0.10550621592E+03  0.94466488951E+01 -0.34297021410E+03  0.39847003467E+03  0.17300000000E+03 0. -1.
<mgrwt>
<rscale>  2 0.20285414E+03</rscale>
<asrwt>0</asrwt>
<pdfrwt beam="1">  1       21 0.65057548E-02 0.20285414E+03</pdfrwt>
<pdfrwt beam="2">  1       21 0.16590301E+00 0.20285414E+03</pdfrwt>
<totfact> 0.38903164E+04</totfact>
</mgrwt>
</event>
<event>
 4    1  0.3901757E+000  0.1780000E+03  0.7546771E-02  0.1169753E+00
         21   -1    0    0  503  502  0.00000000000E+00  0.00000000000E+00  0.92404400656E+03  0.92404400656E+03  0.00000000000E+00 0.  1.
         21   -1    0    0  501  503 -0.00000000000E+00 -0.00000000000E+00 -0.25887744592E+03  0.25887744592E+03  0.00000000000E+00 0.  1.
          6    1    1    2  501    0  0.40090512051E+02 -0.12155560662E+02 -0.21831710058E+03  0.28168486509E+03  0.17300000000E+03 0.  1.
         -6    1    1    2    0  502 -0.40090512051E+02  0.12155560662E+02  0.88348366122E+03  0.90123658740E+03  0.17300000000E+03 0.  1.
<mgrwt>
<rscale>  2 0.17800002E+03</rscale>
<asrwt>0</asrwt>
<pdfrwt beam="1">  1       21 0.14216062E+00 0.17800002E+03</pdfrwt>
<pdfrwt beam="2">  1       21 0.39827300E-01 0.17800002E+03</pdfrwt>
<totfact> 0.21196720E+03</totfact>
</mgrwt>
</event>
<event>
 4    1  0.3901757E+000  0.2093360E+03  0.7546771E-02  0.1142093E+00
         21   -1    0    0  501  502  0.00000000000E+00  0.00000000000E+00  0.34051603629E+03  0.34051603629E+03  0.00000000000E+00 0.  1.
         21   -1    0    0  502  503 -0.00000000000E+00 -0.00000000000E+00 -0.39819902674E+03  0.39819902674E+03  0.00000000000E+00 0. -1.
          6    1    1    2  501    0 -0.70215719361E+02  0.94669465176E+02  0.27502458771E+03  0.34562997371E+03  0.17300000000E+03 0.  1.
         -6    1    1    2    0  503  0.70215719361E+02 -0.94669465176E+02 -0.33270757816E+03  0.39308508932E+03  0.17300000000E+03 0. -1.
<mgrwt>
<rscale>  2 0.20933599E+03</rscale>
<asrwt>0</asrwt>
<pdfrwt beam="1">  1       21 0.52387082E-01 0.20933599E+03</pdfrwt>
<pdfrwt beam="2">  1       21 0.61261389E-01 0.20933599E+03</pdfrwt>
<totfact> 0.84639234E+03</totfact>
</mgrwt>
</event>
<event>
 4    1  0.3901757E+000  0.3950172E+03  0.7546771E-02  0.1045519E+00
         21   -1    0    0  503  502  0.00000000000E+00  0.00000000000E+00  0.12912138233E+04  0.12912138233E+04  0.00000000000E+00 0.  1.
         21   -1    0    0  501  503 -0.00000000000E+00 -0.00000000000E+00 -0.22141271001E+03  0.22141271001E+03  0.00000000000E+00 0. -1.
          6    1    1    2  501    0  0.33906610599E+03  0.10556398263E+03  0.25186463819E+02  0.39581932320E+03  0.17300000000E+03 0. -1.
         -6    1    1    2    0  502 -0.33906610599E+03 -0.10556398263E+03  0.10446146495E+04  0.11168072101E+04  0.17300000000E+03 0.  1.
<mgrwt>
<rscale>  2 0.39501719E+03</rscale>
<asrwt>0</asrwt>
<pdfrwt beam="1">  1       21 0.19864828E+00 0.39501719E+03</pdfrwt>
<pdfrwt beam="2">  1       21 0.34063494E-01 0.39501719E+03</pdfrwt>
<totfact> 0.97470718E+02</totfact>
</mgrwt>
</event>
<event>
 4    1  0.3901757E+000  0.1899603E+03  0.7546771E-02  0.1158497E+00
         21   -1    0    0  503  502  0.00000000000E+00  0.00000000000E+00  0.76577513198E+03  0.76577513198E+03  0.00000000000E+00 0. -1.
         21   -1    0    0  501  503 -0.00000000000E+00 -0.00000000000E+00 -0.73018272644E+02  0.73018272644E+02  0.00000000000E+00 0. -1.
          6    1    1    2  501    0 -0.68087790634E+02 -0.38986743156E+02  0.96615929850E+02  0.21311863193E+03  0.17300000000E+03 0. -1.
         -6    1    1    2    0  502  0.68087790634E+02  0.38986743156E+02  0.59614092949E+03  0.62567477269E+03  0.17300000000E+03 0. -1.
<mgrwt>
<rscale>  2 0.18996029E+03</rscale>
<asrwt>0</asrwt>
<pdfrwt beam="1">  1       21 0.11781155E+00 0.18996029E+03</pdfrwt>
<pdfrwt beam="2">  1       21 0.11233581E-01 0.18996029E+03</pdfrwt>
<totfact> 0.36540644E+04</totfact>
</mgrwt>
</event>
<event>
 4    1  0.3901757E+000  0.1750760E+03  0.7546771E-02  0.1172655E+00
         21   -1    0    0  501  502  0.00000000000E+00  0.00000000000E+00  0.80145547694E+02  0.80145547694E+02  0.00000000000E+00 0.  1.
         21   -1    0    0  502  503 -0.00000000000E+00 -0.00000000000E+00 -0.75148370801E+03  0.75148370801E+03  0.00000000000E+00 0.  1.
          6    1    1    2  501    0  0.33325035131E+01  0.26673717066E+02 -0.44279830469E+02  0.18058874868E+03  0.17300000000E+03 0.  1.
         -6    1    1    2    0  503 -0.33325035131E+01 -0.26673717066E+02 -0.62705832984E+03  0.65104050702E+03  0.17300000000E+03 0.  1.
<mgrwt>
<rscale>  2 0.17507596E+03</rscale>
<asrwt>0</asrwt>
<pdfrwt beam="1">  1       21 0.12330084E-01 0.17507596E+03</pdfrwt>
<pdfrwt beam="2">  1       21 0.11561288E+00 0.17507596E+03</pdfrwt>
<totfact> 0.32677918E+04</totfact>
</mgrwt>
</event>
<event>
 4    1  0.3901757E+000  0.2011055E+03  0.7546771E-02  0.1148810E+00
         21   -1    0    0  501  502  0.00000000000E+00  0.00000000000E+00  0.22869055748E+03  0.22869055748E+03  0.00000000000E+00 0.  1.
         21   -1    0    0  502  503 -0.00000000000E+00 -0.00000000000E+00 -0.26792906948E+03  0.26792906948E+03  0.00000000000E+00 0. -1.
          6    1    1    2  501    0  0.92055882527E+02 -0.45167944774E+02  0.12515736384E+03  0.23687083921E+03  0.17300000000E+03 0. -1.
         -6    1    1    2    0  503 -0.92055882527E+02  0.45167944774E+02 -0.16439587585E+03  0.25974878775E+03  0.17300000000E+03 0. -1.
<mgrwt>
<rscale>  2 0.20110552E+03</rscale>
<asrwt>0</asrwt>
<pdfrwt beam="1">  1       21 0.35183163E-01 0.20110552E+03</pdfrwt>
<pdfrwt beam="2">  1       21 0.41219857E-01 0.20110552E+03</pdfrwt>
<totfact> 0.43956747E+04</totfact>
</mgrwt>
</event>
<event>
 4    1  0.3901757E+000  0.1913221E+03  0.7546771E-02  0.1157274E+00
         21   -1    0    0  503  502  0.00000000000E+00  0.00000000000E+00  0.11128071459E+03  0.11128071459E+03  0.00000000000E+00 0.  1.
         21   -1    0    0  501  503 -0.00000000000E+00 -0.00000000000E+00 -0.56828353130E+03  0.56828353130E+03  0.00000000000E+00 0.  1.
          6    1    1    2  501    0 -0.45794863857E+02 -0.67660747319E+02 -0.44901388883E+03  0.48807542311E+03  0.17300000000E+03 0.  1.
         -6    1    1    2    0  502  0.45794863857E+02  0.67660747319E+02 -0.79889278824E+01  0.19148882279E+03  0.17300000000E+03 0.  1.
<mgrwt>
<rscale>  2 0.19132210E+03</rscale>
<asrwt>0</asrwt>
<pdfrwt beam="1">  1       21 0.17120110E-01 0.19132210E+03</pdfrwt>
<pdfrwt beam="2">  1       21 0.87428234E-01 0.19132210E+03</pdfrwt>
<totfact> 0.34617516E+04</totfact>
</mgrwt>
</event>
<event>
 4    1  0.3901757E+000  0.1797369E+03  0.7546771E-02  0.1168058E+00
         21   -1    0    0  503  502  0.00000000000E+00  0.00000000000E+00  0.23472020786E+04  0.23472020786E+04  0.00000000000E+00 0.  1.
         21   -1    0    0  501  503 -0.00000000000E+00 -0.00000000000E+00 -0.24538100641E+02  0.24538100641E+02  0.00000000000E+00 0. -1.
          6    1    1    2  501    0  0.48560234491E+02 -0.42738840292E+01  0.37551707221E+03  0.41631530596E+03  0.17300000000E+03 0. -1.
         -6    1    1    2    0  502 -0.48560234491E+02  0.42738840292E+01  0.19471469057E+04  0.19554248733E+04  0.17300000000E+03 0.  1.
<mgrwt>
<rscale>  2 0.17973693E+03</rscale>
<asrwt>0</asrwt>
<pdfrwt beam="1">  1       21 0.36110784E+00 0.17973693E+03</pdfrwt>
<pdfrwt beam="2">  1       21 0.37750942E-02 0.17973693E+03</pdfrwt>
<totfact> 0.65979197E+03</totfact>
</mgrwt>
</event>
<event>
 4    1  0.3901757E+000  0.1990330E+03  0.7546771E-02  0.1150557E+00
         21   -1    0    0  503  502  0.00000000000E+00  0.00000000000E+00  0.54139027387E+02  0.54139027387E+02  0.00000000000E+00 0. -1.
         21   -1    0    0  501  503 -0.00000000000E+00 -0.00000000000E+00 -0.75305404158E+03  0.75305404158E+03  0.00000000000E+00 0.  1.
          6    1    1    2  501    0  0.97962452338E+02  0.94070337595E+01 -0.41740292371E+03  0.46242765388E+03  0.17300000000E+03 0.  1.
         -6    1    1    2    0  502 -0.97962452338E+02 -0.94070337595E+01 -0.28151209049E+03  0.34476541509E+03  0.17300000000E+03 0.  1.
<mgrwt>
<rscale>  2 0.19903300E+03</rscale>
<asrwt>0</asrwt>
<pdfrwt beam="1">  1       21 0.83290823E-02 0.19903300E+03</pdfrwt>
<pdfrwt beam="2">  1       21 0.11585445E+00 0.19903300E+03</pdfrwt>
<totfact> 0.64200876E+04</totfact>
</mgrwt>
</event>
<event>
 4    1  0.3901757E+000  0.1848597E+03  0.7546771E-02  0.1163181E+00
         21   -1    0    0  501  502  0.00000000000E+00  0.00000000000E+00  0.85612224631E+02  0.85612224631E+02  0.00000000000E+00 0.  1.
         21   -1    0    0  502  503 -0.00000000000E+00 -0.00000000000E+00 -0.45390247434E+03  0.45390247434E+03  0.00000000000E+00 0.  1.
          6    1    1    2  501    0  0.18005722386E+02 -0.62609119161E+02 -0.90464863345E+02  0.20580816150E+03  0.17300000000E+03 0.  1.
         -6    1    1    2    0  503 -0.18005722386E+02  0.62609119161E+02 -0.27782538636E+03  0.33370653747E+03  0.17300000000E+03 0.  1.
<mgrwt>
<rscale>  2 0.18485970E+03</rscale>
<asrwt>0</asrwt>
<pdfrwt beam="1">  1       21 0.13171111E-01 0.18485970E+03</pdfrwt>
<pdfrwt beam="2">  1       21 0.69831150E-01 0.18485970E+03</pdfrwt>
<totfact> 0.92768906E+04</totfact>
</mgrwt>
</event>
<event>
 4    1  0.3901757E+000  0.2471680E+03  0.7546771E-02  0.1115108E+00
         21   -1    0    0  503  502  0.00000000000E+00  0.00000000000E+00  0.11613299322E+03  0.11613299322E+03  0.00000000000E+00 0. -1.
         21   -1    0    0  501  503 -0.00000000000E+00 -0.00000000000E+00 -0.89039026081E+03  0.89039026081E+03  0.00000000000E+00 0. -1.
          6    1    1    2  501    0  0.17585908406E+03  0.15381114742E+02 -0.65202678613E+02  0.25562352285E+03  0.17300000000E+03 0. -1.
         -6    1    1    2    0  502 -0.17585908406E+03 -0.15381114742E+02 -0.70905458898E+03  0.75089973118E+03  0.17300000000E+03 0. -1.
<mgrwt>
<rscale>  2 0.24716795E+03</rscale>
<asrwt>0</asrwt>
<pdfrwt beam="1">  1       21 0.17866615E-01 0.24716795E+03</pdfrwt>
<pdfrwt beam="2">  1       21 0.13698311E+00 0.24716795E+03</pdfrwt>
<totfact> 0.10387853E+04</totfact>
</mgrwt>
</event>
<event>
 4    1  0.3901757E+000  0.1986667E+03  0.7546771E-02  0.1150869E+00
         21   -1    0    0  501  502  0.00000000000E+00  0.00000000000E+00  0.52634120846E+02  0.52634120846E+02  0.00000000000E+00 0. -1.
         21   -1    0    0  502  503 -0.00000000000E+00 -0.00000000000E+00 -0.77108892221E+03  0.77108892221E+03  0.00000000000E+00 0.  1.
          6    1    1    2  501    0  0.89122467968E+02  0.39957825407E+02 -0.42755877459E+03  0.47146044144E+03  0.17300000000E+03 0.  1.
         -6    1    1    2    0  503 -0.89122467968E+02 -0.39957825407E+02 -0.29089602677E+03  0.35226260162E+03  0.17300000000E+03 0.  1.
<mgrwt>
<rscale>  2 0.19866666E+03</rscale>
<asrwt>0</asrwt>
<pdfrwt beam="1">  1       21 0.80975573E-02 0.19866666E+03</pdfrwt>
<pdfrwt beam="2">  1       21 0.11862906E+00 0.19866666E+03</pdfrwt>
<totfact> 0.63648486E+04</totfact>
</mgrwt>
</event>
<event>
 4    1  0.3901757E+000  0.2481907E+03  0.7546771E-02  0.1114454E+00
         21   -1    0    0  501  502  0.00000000000E+00  0.00000000000E+00  0.18534111141E+03  0.18534111141E+03  0.00000000000E+00 0.  1.
         21   -1    0    0  502  503 -0.00000000000E+00 -0.00000000000E+00 -0.35360500758E+03  0.35360500758E+03  0.00000000000E+00 0. -1.
          6    1    1    2  501    0 -0.15476151745E+03 -0.87854989347E+02 -0.18068874559E+02  0.24884756512E+03  0.17300000000E+03 0.  1.
         -6    1    1    2    0  503  0.15476151745E+03  0.87854989347E+02 -0.15019502161E+03  0.29009855386E+03  0.17300000000E+03 0. -1.
<mgrwt>
<rscale>  2 0.24819071E+03</rscale>
<asrwt>0</asrwt>
<pdfrwt beam="1">  1       21 0.28514017E-01 0.24819071E+03</pdfrwt>
<pdfrwt beam="2">  1       21 0.54400771E-01 0.24819071E+03</pdfrwt>
<totfact> 0.36556423E+04</totfact>
</mgrwt>
</event>
<event>
 4    1  0.3901757E+000  0.2485359E+03  0.7546771E-02  0.1114234E+00
         21   -1    0    0  501  502  0.00000000000E+00  0.00000000000E+00  0.17738685956E+03  0.17738685956E+03  0.00000000000E+00 0.  1.
         21   -1    0    0  502  503 -0.00000000000E+00 -0.00000000000E+00 -0.38294297909E+03  0.38294297909E+03  0.00000000000E+00 0.  1.
          6    1    1    2  501    0 -0.12208181514E+03 -0.13014264370E+03 -0.18417354447E+02  0.24921732733E+03  0.17300000000E+03 0.  1.
         -6    1    1    2    0  503  0.12208181514E+03  0.13014264370E+03 -0.18713876509E+03  0.31111251131E+03  0.17300000000E+03 0.  1.
<mgrwt>
<rscale>  2 0.24853587E+03</rscale>
<asrwt>0</asrwt>
<pdfrwt beam="1">  1       21 0.27290286E-01 0.24853587E+03</pdfrwt>
<pdfrwt beam="2">  1       21 0.58914304E-01 0.24853587E+03</pdfrwt>
<totfact> 0.33564910E+04</totfact>
</mgrwt>
</event>
<event>
 4    1  0.3901757E+000  0.1941582E+03  0.7546771E-02  0.1154763E+00
         21   -1    0    0  501  502  0.00000000000E+00  0.00000000000E+00  0.43927820820E+03  0.43927820820E+03  0.00000000000E+00 0. -1.
         21   -1    0    0  502  503 -0.00000000000E+00 -0.00000000000E+00 -0.81558792179E+03  0.81558792179E+03  0.00000000000E+00 0. -1.
          6    1    1    2  501    0 -0.30684985198E+02 -0.82624770691E+02  0.40535148722E+03  0.44945216568E+03  0.17300000000E+03 0. -1.
         -6    1    1    2    0  503  0.30684985198E+02  0.82624770691E+02 -0.78166120081E+03  0.80541396431E+03  0.17300000000E+03 0. -1.
<mgrwt>
<rscale>  2 0.19415824E+03</rscale>
<asrwt>0</asrwt>
<pdfrwt beam="1">  1       21 0.67581263E-01 0.19415824E+03</pdfrwt>
<pdfrwt beam="2">  1       21 0.12547506E+00 0.19415824E+03</pdfrwt>
<totfact> 0.94445735E+02</totfact>
</mgrwt>
</event>
<event>
 4    1  0.3901757E+000  0.1902982E+03  0.7546771E-02  0.1158193E+00
         21   -1    0    0  503  502  0.00000000000E+00  0.00000000000E+00  0.43085776096E+03  0.43085776096E+03  0.00000000000E+00 0.  1.
         21   -1    0    0  501  503 -0.00000000000E+00 -0.00000000000E+00 -0.24361771171E+03  0.24361771171E+03  0.00000000000E+00 0.  1.
          6    1    1    2  501    0  0.36979811966E+02  0.70120587641E+02 -0.17931222137E+03  0.26146945527E+03  0.17300000000E+03 0.  1.
         -6    1    1    2    0  502 -0.36979811966E+02 -0.70120587641E+02  0.36655227062E+03  0.41300601739E+03  0.17300000000E+03 0.  1.
<mgrwt>
<rscale>  2 0.19029820E+03</rscale>
<asrwt>0</asrwt>
<pdfrwt beam="1">  1       21 0.66285809E-01 0.19029820E+03</pdfrwt>
<pdfrwt beam="2">  1       21 0.37479648E-01 0.19029820E+03</pdfrwt>
<totfact> 0.14360100E+04</totfact>
</mgrwt>
</event>
<event>
 4    1  0.3901757E+000  0.1801955E+03  0.7546771E-02  0.1167614E+00
         21   -1    0    0  501  502  0.00000000000E+00  0.00000000000E+00  0.69476962407E+03  0.69476962407E+03  0.00000000000E+00 0. -1.
         21   -1    0    0  502  503 -0.00000000000E+00 -0.00000000000E+00 -0.11035065696E+03  0.11035065696E+03  0.00000000000E+00 0. -1.
          6    1    1    2  501    0  0.48504313313E+02 -0.13738218592E+02  0.59785892373E+03  0.62442429464E+03  0.17300000000E+03 0. -1.
         -6    1    1    2    0  503 -0.48504313313E+02  0.13738218592E+02 -0.13439956619E+02  0.18069598638E+03  0.17300000000E+03 0. -1.
<mgrwt>
<rscale>  2 0.18019547E+03</rscale>
<asrwt>0</asrwt>
<pdfrwt beam="1">  1       21 0.10688763E+00 0.18019547E+03</pdfrwt>
<pdfrwt beam="2">  1       21 0.16977025E-01 0.18019547E+03</pdfrwt>
<totfact> 0.22058907E+04</totfact>
</mgrwt>
</event>
<event>
 4    1  0.3901757E+000  0.2667946E+03  0.7546771E-02  0.1103128E+00
         21   -1    0    0  503  502  0.00000000000E+00  0.00000000000E+00  0.52913785797E+03  0.52913785797E+03  0.00000000000E+00 0. -1.
         21   -1    0    0  501  503 -0.00000000000E+00 -0.00000000000E+00 -0.55534570192E+03  0.55534570192E+03  0.00000000000E+00 0.  1.
          6    1    1    2  501    0 -0.20211785000E+03  0.19968414526E+02 -0.48512637022E+03  0.55364876768E+03  0.17300000000E+03 0.  1.
         -6    1    1    2    0  502  0.20211785000E+03 -0.19968414526E+02  0.45891852628E+03  0.53083479222E+03  0.17300000000E+03 0. -1.
<mgrwt>
<rscale>  2 0.26679461E+03</rscale>
<asrwt>0</asrwt>
<pdfrwt beam="1">  1       21 0.81405824E-01 0.26679461E+03</pdfrwt>
<pdfrwt beam="2">  1       21 0.85437800E-01 0.26679461E+03</pdfrwt>
<totfact> 0.14737039E+03</totfact>
</mgrwt>
</event>
<event>
 4    1  0.3901757E+000  0.1754255E+03  0.7546771E-02  0.1172305E+00
         21   -1    0    0  503  502  0.00000000000E+00  0.00000000000E+00  0.54338526450E+02  0.54338526450E+02  0.00000000000E+00 0. -1.
         21   -1    0    0  501  503 -0.00000000000E+00 -0.00000000000E+00 -0.79667553357E+03  0.79667553357E+03  0.00000000000E+00 0. -1.
          6    1    1    2  501    0 -0.35263419627E+01  0.28855746501E+02 -0.59996339823E+03  0.62508412906E+03  0.17300000000E+03 0. -1.
         -6    1    1    2    0  502  0.35263419627E+01 -0.28855746501E+02 -0.14237360889E+03  0.22592993096E+03  0.17300000000E+03 0. -1.
<mgrwt>
<rscale>  2 0.17542545E+03</rscale>
<asrwt>0</asrwt>
<pdfrwt beam="1">  1       21 0.83597736E-02 0.17542545E+03</pdfrwt>
<pdfrwt beam="2">  1       21 0.12256546E+00 0.17542545E+03</pdfrwt>
<totfact> 0.56182372E+04</totfact>
</mgrwt>
</event>
<event>
 4    1  0.3901757E+000  0.2098606E+03  0.7546771E-02  0.1141676E+00
         21   -1    0    0  501  502  0.00000000000E+00  0.00000000000E+00  0.20004082183E+03  0.20004082183E+03  0.00000000000E+00 0.  1.
         21   -1    0    0  502  503 -0.00000000000E+00 -0.00000000000E+00 -0.24041787027E+03  0.24041787027E+03  0.00000000000E+00 0.  1.
          6    1    1    2  501    0 -0.76998440077E+02 -0.90463846358E+02 -0.84112384008E+02  0.22608927532E+03  0.17300000000E+03 0.  1.
         -6    1    1    2    0  503  0.76998440077E+02  0.90463846358E+02  0.43735335573E+02  0.21436941678E+03  0.17300000000E+03 0.  1.
<mgrwt>
<rscale>  2 0.20986059E+03</rscale>
<asrwt>0</asrwt>
<pdfrwt beam="1">  1       21 0.30775511E-01 0.20986059E+03</pdfrwt>
<pdfrwt beam="2">  1       21 0.36987364E-01 0.20986059E+03</pdfrwt>
<totfact> 0.70932606E+04</totfact>
</mgrwt>
</event>
<event>
 4    1  0.3901757E+000  0.2589454E+03  0.7546771E-02  0.1107779E+00
         21   -1    0    0  503  502  0.00000000000E+00  0.00000000000E+00  0.29248641333E+03  0.29248641333E+03  0.00000000000E+00 0.  1.
         21   -1    0    0  501  503 -0.00000000000E+00 -0.00000000000E+00 -0.23822536264E+03  0.23822536264E+03  0.00000000000E+00 0.  1.
          6    1    1    2  501    0  0.15998374310E+03  0.10737276637E+03  0.78634920477E+02  0.27062180203E+03  0.17300000000E+03 0.  1.
         -6    1    1    2    0  502 -0.15998374310E+03 -0.10737276637E+03 -0.24373869789E+02  0.26008997394E+03  0.17300000000E+03 0.  1.
<mgrwt>
<rscale>  2 0.25894538E+03</rscale>
<asrwt>0</asrwt>
<pdfrwt beam="1">  1       21 0.44997910E-01 0.25894538E+03</pdfrwt>
<pdfrwt beam="2">  1       21 0.36650056E-01 0.25894538E+03</pdfrwt>
<totfact> 0.32959607E+04</totfact>
</mgrwt>
</event>
<event>
 4    1  0.3901757E+000  0.1765396E+03  0.7546771E-02  0.1171195E+00
         21   -1    0    0  503  502  0.00000000000E+00  0.00000000000E+00  0.30282740243E+03  0.30282740243E+03  0.00000000000E+00 0.  1.
         21   -1    0    0  501  503 -0.00000000000E+00 -0.00000000000E+00 -0.12382722628E+03  0.12382722628E+03  0.00000000000E+00 0.  1.
          6    1    1    2  501    0 -0.34432387092E+02  0.71854509679E+01  0.18377144404E+01  0.17654913532E+03  0.17300000000E+03 0.  1.
         -6    1    1    2    0  502  0.34432387092E+02 -0.71854509679E+01  0.17716246171E+03  0.25010549339E+03  0.17300000000E+03 0.  1.
<mgrwt>
<rscale>  2 0.17653957E+03</rscale>
<asrwt>0</asrwt>
<pdfrwt beam="1">  1       21 0.46588831E-01 0.17653957E+03</pdfrwt>
<pdfrwt beam="2">  1       21 0.19050343E-01 0.17653957E+03</pdfrwt>
<totfact> 0.11216415E+05</totfact>
</mgrwt>
</event>
<event>
 4    1  0.3901757E+000  0.3033012E+03  0.7546771E-02  0.1083602E+00
         21   -1    0    0  501  502  0.00000000000E+00  0.00000000000E+00  0.15420022802E+03  0.15420022802E+03  0.00000000000E+00 0.  1.
         21   -1    0    0  502  503 -0.00000000000E+00 -0.00000000000E+00 -0.61641674643E+03  0.61641674643E+03  0.00000000000E+00 0. -1.
          6    1    1    2  501    0  0.99240281505E+02 -0.22850380136E+03 -0.16197479822E+03  0.34384219632E+03  0.17300000000E+03 0. -1.
         -6    1    1    2    0  503 -0.99240281505E+02  0.22850380136E+03 -0.30024172019E+03  0.42677477813E+03  0.17300000000E+03 0.  1.
<mgrwt>
<rscale>  2 0.30330120E+03</rscale>
<asrwt>0</asrwt>
<pdfrwt beam="1">  1       21 0.23723112E-01 0.30330120E+03</pdfrwt>
<pdfrwt beam="2">  1       21 0.94833346E-01 0.30330120E+03</pdfrwt>
<totfact> 0.14676238E+04</totfact>
</mgrwt>
</event>
<event>
 4    1  0.3901757E+000  0.2192872E+03  0.7546771E-02  0.1134416E+00
         21   -1    0    0  503  502  0.00000000000E+00  0.00000000000E+00  0.89608479820E+03  0.89608479820E+03  0.00000000000E+00 0. -1.
         21   -1    0    0  501  503 -0.00000000000E+00 -0.00000000000E+00 -0.14257725079E+03  0.14257725079E+03  0.00000000000E+00 0. -1.
          6    1    1    2  501    0  0.12387711574E+03 -0.53031276098E+02 -0.33359791473E+02  0.22181012541E+03  0.17300000000E+03 0. -1.
         -6    1    1    2    0  502 -0.12387711574E+03  0.53031276098E+02  0.78686733888E+03  0.81685192357E+03  0.17300000000E+03 0. -1.
<mgrwt>
<rscale>  2 0.21928715E+03</rscale>
<asrwt>0</asrwt>
<pdfrwt beam="1">  1       21 0.13785920E+00 0.21928715E+03</pdfrwt>
<pdfrwt beam="2">  1       21 0.21934962E-01 0.21928715E+03</pdfrwt>
<totfact> 0.70832760E+03</totfact>
</mgrwt>
</event>
<event>
 4    1  0.3901757E+000  0.2167401E+03  0.7546771E-02  0.1136337E+00
         21   -1    0    0  503  502  0.00000000000E+00  0.00000000000E+00  0.79447641047E+02  0.79447641047E+02  0.00000000000E+00 0. -1.
         21   -1    0    0  501  503 -0.00000000000E+00 -0.00000000000E+00 -0.60425905887E+03  0.60425905887E+03  0.00000000000E+00 0. -1.
          6    1    1    2  501    0 -0.10839658070E+03 -0.72783612447E+02 -0.21231577147E+03  0.30340444915E+03  0.17300000000E+03 0. -1.
         -6    1    1    2    0  502  0.10839658070E+03  0.72783612447E+02 -0.31249564635E+03  0.38030225077E+03  0.17300000000E+03 0. -1.
<mgrwt>
<rscale>  2 0.21674010E+03</rscale>
<asrwt>0</asrwt>
<pdfrwt beam="1">  1       21 0.12222714E-01 0.21674010E+03</pdfrwt>
<pdfrwt beam="2">  1       21 0.92962930E-01 0.21674010E+03</pdfrwt>
<totfact> 0.54686515E+04</totfact>
</mgrwt>
</event>
<event>
 4    1  0.3901757E+000  0.2400391E+03  0.7546771E-02  0.1119767E+00
         21   -1    0    0  503  502  0.00000000000E+00  0.00000000000E+00  0.99705033852E+03  0.99705033852E+03  0.00000000000E+00 0. -1.
         21   -1    0    0  501  503 -0.00000000000E+00 -0.00000000000E+00 -0.10184605035E+03  0.10184605035E+03  0.00000000000E+00 0.  1.
          6    1    1    2  501    0  0.16558602672E+03 -0.16463684047E+02  0.86224600309E+02  0.25505581122E+03  0.17300000000E+03 0.  1.
         -6    1    1    2    0  502 -0.16558602672E+03  0.16463684047E+02  0.80897968785E+03  0.84384057765E+03  0.17300000000E+03 0. -1.
<mgrwt>
<rscale>  2 0.24003913E+03</rscale>
<asrwt>0</asrwt>
<pdfrwt beam="1">  1       21 0.15339235E+00 0.24003913E+03</pdfrwt>
<pdfrwt beam="2">  1       21 0.15668624E-01 0.24003913E+03</pdfrwt>
<totfact> 0.98724132E+03</totfact>
</mgrwt>
</event>
<event>
 4    1  0.3901757E+000  0.2514077E+03  0.7546771E-02  0.1112418E+00
         21   -1    0    0  503  502  0.00000000000E+00  0.00000000000E+00  0.18266520284E+03  0.18266520284E+03  0.00000000000E+00 0. -1.
         21   -1    0    0  501  503 -0.00000000000E+00 -0.00000000000E+00 -0.44743792025E+03  0.44743792025E+03  0.00000000000E+00 0.  1.
          6    1    1    2  501    0 -0.17603598613E+03 -0.47834540753E+02  0.17607201593E+02  0.25202346170E+03  0.17300000000E+03 0. -1.
         -6    1    1    2    0  502  0.17603598613E+03  0.47834540753E+02 -0.28237991900E+03  0.37807966139E+03  0.17300000000E+03 0.  1.
<mgrwt>
<rscale>  2 0.25140766E+03</rscale>
<asrwt>0</asrwt>
<pdfrwt beam="1">  1       21 0.28102339E-01 0.25140766E+03</pdfrwt>
<pdfrwt beam="2">  1       21 0.68836602E-01 0.25140766E+03</pdfrwt>
<totfact> 0.22540448E+04</totfact>
</mgrwt>
</event>
<event>
 4    1  0.3901757E+000  0.2624590E+03  0.7546771E-02  0.1105675E+00
         21   -1    0    0  503  502  0.00000000000E+00  0.00000000000E+00  0.78114376667E+02  0.78114376667E+02  0.00000000000E+00 0. -1.
         21   -1    0    0  501  503 -0.00000000000E+00 -0.00000000000E+00 -0.10129773083E+04  0.10129773083E+04  0.00000000000E+00 0.  1.
          6    1    1    2  501    0  0.19737135828E+03 -0.50603788917E+00 -0.66371668073E+03  0.71372581670E+03  0.17300000000E+03 0.  1.
         -6    1    1    2    0  502 -0.19737135828E+03  0.50603788917E+00 -0.27114625086E+03  0.37736586822E+03  0.17300000000E+03 0. -1.
<mgrwt>
<rscale>  2 0.26245897E+03</rscale>
<asrwt>0</asrwt>
<pdfrwt beam="1">  1       21 0.12017598E-01 0.26245897E+03</pdfrwt>
<pdfrwt beam="2">  1       21 0.15584265E+00 0.26245897E+03</pdfrwt>
<totfact> 0.15129823E+04</totfact>
</mgrwt>
</event>
<event>
 4    1  0.3901757E+000  0.2057367E+03  0.7546771E-02  0.1144987E+00
         21   -1    0    0  503  502  0.00000000000E+00  0.00000000000E+00  0.34769989263E+03  0.34769989263E+03  0.00000000000E+00 0. -1.
         21   -1    0    0  501  503 -0.00000000000E+00 -0.00000000000E+00 -0.12556957338E+03  0.12556957338E+03  0.00000000000E+00 0. -1.
          6    1    1    2  501    0  0.92642012017E+02 -0.61774093495E+02  0.15241180768E+03  0.25604089544E+03  0.17300000000E+03 0. -1.
         -6    1    1    2    0  502 -0.92642012017E+02  0.61774093495E+02  0.69718511569E+02  0.21722857057E+03  0.17300000000E+03 0. -1.
<mgrwt>
<rscale>  2 0.20573668E+03</rscale>
<asrwt>0</asrwt>
<pdfrwt beam="1">  1       21 0.53492291E-01 0.20573668E+03</pdfrwt>
<pdfrwt beam="2">  1       21 0.19318396E-01 0.20573668E+03</pdfrwt>
<totfact> 0.80994296E+04</totfact>
</mgrwt>
</event>
<event>
 4    1  0.3901757E+000  0.2906777E+03  0.7546771E-02  0.1089996E+00
         21   -1    0    0  503  502  0.00000000000E+00  0.00000000000E+00  0.99686208415E+03  0.99686208415E+03  0.00000000000E+00 0. -1.
         21   -1    0    0  501  503 -0.00000000000E+00 -0.00000000000E+00 -0.27045093344E+03  0.27045093344E+03  0.00000000000E+00 0. -1.
          6    1    1    2  501    0 -0.20456846876E+03 -0.11276638675E+03 -0.16185040610E+03  0.33269966989E+03  0.17300000000E+03 0. -1.
         -6    1    1    2    0  502  0.20456846876E+03  0.11276638675E+03  0.88826155681E+03  0.93461334770E+03  0.17300000000E+03 0. -1.
<mgrwt>
<rscale>  2 0.29067768E+03</rscale>
<asrwt>0</asrwt>
<pdfrwt beam="1">  1       21 0.15336340E+00 0.29067768E+03</pdfrwt>
<pdfrwt beam="2">  1       21 0.41607836E-01 0.29067768E+03</pdfrwt>
<totfact> 0.14463998E+03</totfact>
</mgrwt>
</event>
<event>
 4    1  0.3901757E+000  0.2409737E+03  0.7546771E-02  0.1119146E+00
         21   -1    0    0  501  502  0.00000000000E+00  0.00000000000E+00  0.20018904710E+03  0.20018904710E+03  0.00000000000E+00 0.  1.
         21   -1    0    0  502  503 -0.00000000000E+00 -0.00000000000E+00 -0.38194945321E+03  0.38194945321E+03  0.00000000000E+00 0. -1.
          6    1    1    2  501    0 -0.16774782209E+03 -0.11978064481E+00  0.51880400409E+02  0.24649527807E+03  0.17300000000E+03 0.  1.
         -6    1    1    2    0  503  0.16774782209E+03  0.11978064481E+00 -0.23364080652E+03  0.33564322224E+03  0.17300000000E+03 0.  1.
<mgrwt>
<rscale>  2 0.24097375E+03</rscale>
<asrwt>0</asrwt>
<pdfrwt beam="1">  1       21 0.30798315E-01 0.24097375E+03</pdfrwt>
<pdfrwt beam="2">  1       21 0.58761454E-01 0.24097375E+03</pdfrwt>
<totfact> 0.26745287E+04</totfact>
</mgrwt>
</event>
<event>
 4    1  0.3901757E+000  0.1860297E+03  0.7546771E-02  0.1162092E+00
         21   -1    0    0  501  502  0.00000000000E+00  0.00000000000E+00  0.20029385870E+03  0.20029385870E+03  0.00000000000E+00 0. -1.
         21   -1    0    0  502  503 -0.00000000000E+00 -0.00000000000E+00 -0.17304927308E+03  0.17304927308E+03  0.00000000000E+00 0.  1.
          6    1    1    2  501    0  0.28757215465E+01 -0.68335682909E+02  0.20967948871E+02  0.18720761259E+03  0.17300000000E+03 0.  1.
         -6    1    1    2    0  503 -0.28757215465E+01  0.68335682909E+02  0.62766367428E+01  0.18613551918E+03  0.17300000000E+03 0. -1.
<mgrwt>
<rscale>  2 0.18602966E+03</rscale>
<asrwt>0</asrwt>
<pdfrwt beam="1">  1       21 0.30814440E-01 0.18602966E+03</pdfrwt>
<pdfrwt beam="2">  1       21 0.26622965E-01 0.18602966E+03</pdfrwt>
<totfact> 0.13609734E+05</totfact>
</mgrwt>
</event>
<event>
 4    1  0.3901757E+000  0.2408572E+03  0.7546771E-02  0.1119223E+00
         21   -1    0    0  503  502  0.00000000000E+00  0.00000000000E+00  0.40094105147E+03  0.40094105147E+03  0.00000000000E+00 0. -1.
         21   -1    0    0  501  503 -0.00000000000E+00 -0.00000000000E+00 -0.16150250758E+03  0.16150250758E+03  0.00000000000E+00 0. -1.
          6    1    1    2  501    0  0.14716207756E+03  0.80165640514E+02  0.28984432798E+02  0.24259493881E+03  0.17300000000E+03 0. -1.
         -6    1    1    2    0  502 -0.14716207756E+03 -0.80165640514E+02  0.21045411109E+03  0.31984862023E+03  0.17300000000E+03 0. -1.
<mgrwt>
<rscale>  2 0.24085723E+03</rscale>
<asrwt>0</asrwt>
<pdfrwt beam="1">  1       21 0.61683238E-01 0.24085723E+03</pdfrwt>
<pdfrwt beam="2">  1       21 0.24846540E-01 0.24085723E+03</pdfrwt>
<totfact> 0.36541158E+04</totfact>
</mgrwt>
</event>
<event>
 4    1  0.3901757E+000  0.1751027E+03  0.7546771E-02  0.1172629E+00
         21   -1    0    0  503  502  0.00000000000E+00  0.00000000000E+00  0.70319201008E+03  0.70319201008E+03  0.00000000000E+00 0. -1.
         21   -1    0    0  501  503 -0.00000000000E+00 -0.00000000000E+00 -0.13715796784E+03  0.13715796784E+03  0.00000000000E+00 0. -1.
          6    1    1    2  501    0  0.47069031813E+01 -0.26642164486E+02 -0.64002706033E+02  0.18643311467E+03  0.17300000000E+03 0. -1.
         -6    1    1    2    0  502 -0.47069031813E+01  0.26642164486E+02  0.63003674828E+03  0.65391686325E+03  0.17300000000E+03 0. -1.
<mgrwt>
<rscale>  2 0.17510271E+03</rscale>
<asrwt>0</asrwt>
<pdfrwt beam="1">  1       21 0.10818338E+00 0.17510271E+03</pdfrwt>
<pdfrwt beam="2">  1       21 0.21101226E-01 0.17510271E+03</pdfrwt>
<totfact> 0.14365836E+04</totfact>
</mgrwt>
</event>
<event>
 4    1  0.3901757E+000  0.2077588E+03  0.7546771E-02  0.1143353E+00
         21   -1    0    0  501  502  0.00000000000E+00  0.00000000000E+00  0.68807550539E+02  0.68807550539E+02  0.00000000000E+00 0.  1.
         21   -1    0    0  502  503 -0.00000000000E+00 -0.00000000000E+00 -0.62789886726E+03  0.62789886726E+03  0.00000000000E+00 0.  1.
          6    1    1    2  501    0 -0.28251137754E+02  0.11151945415E+03 -0.29020697063E+03  0.35690867353E+03  0.17300000000E+03 0.  1.
         -6    1    1    2    0  503  0.28251137754E+02 -0.11151945415E+03 -0.26888434609E+03  0.33979774427E+03  0.17300000000E+03 0.  1.
<mgrwt>
<rscale>  2 0.20775879E+03</rscale>
<asrwt>0</asrwt>
<pdfrwt beam="1">  1       21 0.10585777E-01 0.20775879E+03</pdfrwt>
<pdfrwt beam="2">  1       21 0.96599824E-01 0.20775879E+03</pdfrwt>
<totfact> 0.64883384E+04</totfact>
</mgrwt>
</event>
<event>
 4    1  0.3901757E+000  0.1771459E+03  0.7546771E-02  0.1170594E+00
         21   -1    0    0  503  502  0.00000000000E+00  0.00000000000E+00  0.13078621170E+03  0.13078621170E+03  0.00000000000E+00 0.  1.
         21   -1    0    0  501  503 -0.00000000000E+00 -0.00000000000E+00 -0.38376645135E+03  0.38376645135E+03  0.00000000000E+00 0.  1.
          6    1    1    2  501    0 -0.22084289033E+02  0.31047741621E+02 -0.28399268275E+03  0.33471259603E+03  0.17300000000E+03 0. -1.
         -6    1    1    2    0  502  0.22084289033E+02 -0.31047741621E+02  0.31012443097E+02  0.17984006703E+03  0.17300000000E+03 0. -1.
<mgrwt>
<rscale>  2 0.17714592E+03</rscale>
<asrwt>0</asrwt>
<pdfrwt beam="1">  1       21 0.20120956E-01 0.17714592E+03</pdfrwt>
<pdfrwt beam="2">  1       21 0.59040991E-01 0.17714592E+03</pdfrwt>
<totfact> 0.61649394E+04</totfact>
</mgrwt>
</event>
<event>
 4    1  0.3901757E+000  0.1871094E+03  0.7546771E-02  0.1161095E+00
         21   -1    0    0  503  502  0.00000000000E+00  0.00000000000E+00  0.26949106695E+03  0.26949106695E+03  0.00000000000E+00 0. -1.
         21   -1    0    0  501  503 -0.00000000000E+00 -0.00000000000E+00 -0.15888140099E+03  0.15888140099E+03  0.00000000000E+00 0.  1.
          6    1    1    2  501    0 -0.19050886891E+02  0.68687731501E+02 -0.36154886439E+02  0.19057050287E+03  0.17300000000E+03 0.  1.
         -6    1    1    2    0  502  0.19050886891E+02 -0.68687731501E+02  0.14676455240E+03  0.23780196507E+03  0.17300000000E+03 0. -1.
<mgrwt>
<rscale>  2 0.18710944E+03</rscale>
<asrwt>0</asrwt>
<pdfrwt beam="1">  1       21 0.41460164E-01 0.18710944E+03</pdfrwt>
<pdfrwt beam="2">  1       21 0.24443292E-01 0.18710944E+03</pdfrwt>
<totfact> 0.88761182E+04</totfact>
</mgrwt>
</event>
<event>
 4    1  0.3901757E+000  0.2000607E+03  0.7546771E-02  0.1149688E+00
         21   -1    0    0  501  502  0.00000000000E+00  0.00000000000E+00  0.27706756671E+03  0.27706756671E+03  0.00000000000E+00 0.  1.
         21   -1    0    0  502  503 -0.00000000000E+00 -0.00000000000E+00 -0.25018893953E+03  0.25018893953E+03  0.00000000000E+00 0. -1.
          6    1    1    2  501    0 -0.27914533682E+02  0.96519852132E+02  0.18481978867E+03  0.27236493411E+03  0.17300000000E+03 0.  1.
         -6    1    1    2    0  503  0.27914533682E+02 -0.96519852132E+02 -0.15794116150E+03  0.25489157213E+03  0.17300000000E+03 0. -1.
<mgrwt>
<rscale>  2 0.20006075E+03</rscale>
<asrwt>0</asrwt>
<pdfrwt beam="1">  1       21 0.42625779E-01 0.20006075E+03</pdfrwt>
<pdfrwt beam="2">  1       21 0.38490606E-01 0.20006075E+03</pdfrwt>
<totfact> 0.34324085E+04</totfact>
</mgrwt>
</event>
<event>
 4    1  0.3901757E+000  0.2305405E+03  0.7546771E-02  0.1126260E+00
         21   -1    0    0  501  502  0.00000000000E+00  0.00000000000E+00  0.54724833477E+02  0.54724833477E+02  0.00000000000E+00 0.  1.
         21   -1    0    0  502  503 -0.00000000000E+00 -0.00000000000E+00 -0.97526425973E+03  0.97526425973E+03  0.00000000000E+00 0.  1.
          6    1    1    2  501    0  0.14951533719E+03  0.29412383241E+02 -0.49350274818E+03  0.54469614172E+03  0.17300000000E+03 0.  1.
         -6    1    1    2    0  503 -0.14951533719E+03 -0.29412383241E+02 -0.42703667807E+03  0.48529295149E+03  0.17300000000E+03 0.  1.
<mgrwt>
<rscale>  2 0.23054050E+03</rscale>
<asrwt>0</asrwt>
<pdfrwt beam="1">  1       21 0.84192054E-02 0.23054050E+03</pdfrwt>
<pdfrwt beam="2">  1       21 0.15004065E+00 0.23054050E+03</pdfrwt>
<totfact> 0.32066341E+04</totfact>
</mgrwt>
</event>
<event>
 4    1  0.3901757E+000  0.2186682E+03  0.7546771E-02  0.1134880E+00
         21   -1    0    0  503  502  0.00000000000E+00  0.00000000000E+00  0.16714180225E+04  0.16714180225E+04  0.00000000000E+00 0. -1.
         21   -1    0    0  501  503 -0.00000000000E+00 -0.00000000000E+00 -0.64303816707E+02  0.64303816707E+02  0.00000000000E+00 0. -1.
          6    1    1    2  501    0 -0.21519696560E+02  0.13199875459E+03  0.15694922111E+03  0.26916319689E+03  0.17300000000E+03 0. -1.
         -6    1    1    2    0  502  0.21519696560E+02 -0.13199875459E+03  0.14501649847E+04  0.14665586423E+04  0.17300000000E+03 0. -1.
<mgrwt>
<rscale>  2 0.21866817E+03</rscale>
<asrwt>0</asrwt>
<pdfrwt beam="1">  1       21 0.25714120E+00 0.21866817E+03</pdfrwt>
<pdfrwt beam="2">  1       21 0.98928961E-02 0.21866817E+03</pdfrwt>
<totfact> 0.48646144E+03</totfact>
</mgrwt>
</event>
<event>
 4    1  0.3901757E+000  0.1841536E+03  0.7546771E-02  0.1163843E+00
         21   -1    0    0  501  502  0.00000000000E+00  0.00000000000E+00  0.33243807283E+02  0.33243807283E+02  0.00000000000E+00 0.  1.
         21   -1    0    0  502  503 -0.00000000000E+00 -0.00000000000E+00 -0.10255237219E+04  0.10255237219E+04  0.00000000000E+00 0.  1.
          6    1    1    2  501    0  0.60510613702E+02  0.17944627521E+02 -0.45769851077E+03  0.49335633247E+03  0.17300000000E+03 0.  1.
         -6    1    1    2    0  503 -0.60510613702E+02 -0.17944627521E+02 -0.53458140383E+03  0.56541119669E+03  0.17300000000E+03 0.  1.
<mgrwt>
<rscale>  2 0.18415359E+03</rscale>
<asrwt>0</asrwt>
<pdfrwt beam="1">  1       21 0.51144321E-02 0.18415359E+03</pdfrwt>
<pdfrwt beam="2">  1       21 0.15777287E+00 0.18415359E+03</pdfrwt>
<totfact> 0.67966326E+04</totfact>
</mgrwt>
</event>
<event>
 4    1  0.3901757E+000  0.1880643E+03  0.7546771E-02  0.1160219E+00
         21   -1    0    0  501  502  0.00000000000E+00  0.00000000000E+00  0.40885510902E+02  0.40885510902E+02  0.00000000000E+00 0. -1.
         21   -1    0    0  502  503 -0.00000000000E+00 -0.00000000000E+00 -0.94024166972E+03  0.94024166972E+03  0.00000000000E+00 0. -1.
          6    1    1    2  501    0  0.43108067274E+01  0.73624718772E+02 -0.58840103901E+03  0.61772482950E+03  0.17300000000E+03 0. -1.
         -6    1    1    2    0  503 -0.43108067274E+01 -0.73624718772E+02 -0.31095511981E+03  0.36340235113E+03  0.17300000000E+03 0. -1.
<mgrwt>
<rscale>  2 0.18806430E+03</rscale>
<asrwt>0</asrwt>
<pdfrwt beam="1">  1       21 0.62900784E-02 0.18806430E+03</pdfrwt>
<pdfrwt beam="2">  1       21 0.14465257E+00 0.18806430E+03</pdfrwt>
<totfact> 0.59921826E+04</totfact>
</mgrwt>
</event>
<event>
 4    1  0.3901757E+000  0.1764696E+03  0.7546771E-02  0.1171264E+00
         21   -1    0    0  501  502  0.00000000000E+00  0.00000000000E+00  0.44074304481E+02  0.44074304481E+02  0.00000000000E+00 0. -1.
         21   -1    0    0  502  503 -0.00000000000E+00 -0.00000000000E+00 -0.89104218311E+03  0.89104218311E+03  0.00000000000E+00 0. -1.
          6    1    1    2  501    0 -0.17419876894E+02  0.30150621272E+02 -0.21074162498E+03  0.27487005034E+03  0.17300000000E+03 0. -1.
         -6    1    1    2    0  503  0.17419876894E+02 -0.30150621272E+02 -0.63622625364E+03  0.66024643725E+03  0.17300000000E+03 0. -1.
<mgrwt>
<rscale>  2 0.17646958E+03</rscale>
<asrwt>0</asrwt>
<pdfrwt beam="1">  1       21 0.67806625E-02 0.17646958E+03</pdfrwt>
<pdfrwt beam="2">  1       21 0.13708341E+00 0.17646958E+03</pdfrwt>
<totfact> 0.60883855E+04</totfact>
</mgrwt>
</event>
<event>
 4    1  0.3901757E+000  0.2326679E+03  0.7546771E-02  0.1124776E+00
         21   -1    0    0  503  502  0.00000000000E+00  0.00000000000E+00  0.48619552505E+03  0.48619552505E+03  0.00000000000E+00 0.  1.
         21   -1    0    0  501  503 -0.00000000000E+00 -0.00000000000E+00 -0.12377616095E+03  0.12377616095E+03  0.00000000000E+00 0. -1.
          6    1    1    2  501    0 -0.15420042438E+03 -0.20677888391E+02  0.84547554272E+02  0.24755329705E+03  0.17300000000E+03 0.  1.
         -6    1    1    2    0  502  0.15420042438E+03  0.20677888391E+02  0.27787180983E+03  0.36241838894E+03  0.17300000000E+03 0.  1.
<mgrwt>
<rscale>  2 0.23266789E+03</rscale>
<asrwt>0</asrwt>
<pdfrwt beam="1">  1       21 0.74799311E-01 0.23266789E+03</pdfrwt>
<pdfrwt beam="2">  1       21 0.19042487E-01 0.23266789E+03</pdfrwt>
<totfact> 0.39660198E+04</totfact>
</mgrwt>
</event>
<event>
 4    1  0.3901757E+000  0.2233830E+03  0.7546771E-02  0.1131386E+00
         21   -1    0    0  503  502  0.00000000000E+00  0.00000000000E+00  0.26254779589E+03  0.26254779589E+03  0.00000000000E+00 0.  1.
         21   -1    0    0  501  503 -0.00000000000E+00 -0.00000000000E+00 -0.31058377240E+03  0.31058377240E+03  0.00000000000E+00 0.  1.
          6    1    1    2  501    0  0.89872581468E+02  0.10905904507E+03  0.15449526902E+03  0.27160402125E+03  0.17300000000E+03 0. -1.
         -6    1    1    2    0  502 -0.89872581468E+02 -0.10905904507E+03 -0.20253124553E+03  0.30152754705E+03  0.17300000000E+03 0. -1.
<mgrwt>
<rscale>  2 0.22338298E+03</rscale>
<asrwt>0</asrwt>
<pdfrwt beam="1">  1       21 0.40391969E-01 0.22338298E+03</pdfrwt>
<pdfrwt beam="2">  1       21 0.47782119E-01 0.22338298E+03</pdfrwt>
<totfact> 0.24311111E+04</totfact>
</mgrwt>
</event>
<event>
 4    1  0.3901757E+000  0.2027955E+03  0.7546771E-02  0.1147402E+00
         21   -1    0    0  503  502  0.00000000000E+00  0.00000000000E+00  0.46358858527E+03  0.46358858527E+03  0.00000000000E+00 0.  1.
         21   -1    0    0  501  503 -0.00000000000E+00 -0.00000000000E+00 -0.89899484016E+02  0.89899484016E+02  0.00000000000E+00 0.  1.
          6    1    1    2  501    0 -0.66978049560E+02 -0.81920473814E+02  0.15504262902E+03  0.25527287354E+03  0.17300000000E+03 0.  1.
         -6    1    1    2    0  502  0.66978049560E+02  0.81920473814E+02  0.21864647223E+03  0.29821519575E+03  0.17300000000E+03 0.  1.
<mgrwt>
<rscale>  2 0.20279552E+03</rscale>
<asrwt>0</asrwt>
<pdfrwt beam="1">  1       21 0.71321319E-01 0.20279552E+03</pdfrwt>
<pdfrwt beam="2">  1       21 0.13830690E-01 0.20279552E+03</pdfrwt>
<totfact> 0.80455742E+04</totfact>
</mgrwt>
</event>
<event>
 4    1  0.3901757E+000  0.1767568E+03  0.7546771E-02  0.1170979E+00
         21   -1    0    0  503  502  0.00000000000E+00  0.00000000000E+00  0.10098257332E+03  0.10098257332E+03  0.00000000000E+00 0.  1.
         21   -1    0    0  501  503 -0.00000000000E+00 -0.00000000000E+00 -0.39141659502E+03  0.39141659502E+03  0.00000000000E+00 0.  1.
          6    1    1    2  501    0 -0.80615535727E+01  0.35340950495E+02 -0.25792267584E+03  0.31267727475E+03  0.17300000000E+03 0.  1.
         -6    1    1    2    0  502  0.80615535727E+01 -0.35340950495E+02 -0.32511345853E+02  0.17972189359E+03  0.17300000000E+03 0.  1.
<mgrwt>
<rscale>  2 0.17675681E+03</rscale>
<asrwt>0</asrwt>
<pdfrwt beam="1">  1       21 0.15535781E-01 0.17675681E+03</pdfrwt>
<pdfrwt beam="2">  1       21 0.60217937E-01 0.17675681E+03</pdfrwt>
<totfact> 0.95198487E+04</totfact>
</mgrwt>
</event>
<event>
 4    1  0.3901757E+000  0.3062292E+03  0.7546771E-02  0.1082167E+00
         21   -1    0    0  501  502  0.00000000000E+00  0.00000000000E+00  0.21404701657E+03  0.21404701657E+03  0.00000000000E+00 0. -1.
         21   -1    0    0  502  503 -0.00000000000E+00 -0.00000000000E+00 -0.50029758884E+03  0.50029758884E+03  0.00000000000E+00 0. -1.
          6    1    1    2  501    0 -0.24972899668E+03 -0.38506675397E+02 -0.26905035810E+03  0.40763271584E+03  0.17300000000E+03 0. -1.
         -6    1    1    2    0  503  0.24972899668E+03  0.38506675397E+02 -0.17200214166E+02  0.30671188956E+03  0.17300000000E+03 0. -1.
<mgrwt>
<rscale>  2 0.30622922E+03</rscale>
<asrwt>0</asrwt>
<pdfrwt beam="1">  1       21 0.32930311E-01 0.30622922E+03</pdfrwt>
<pdfrwt beam="2">  1       21 0.76968858E-01 0.30622922E+03</pdfrwt>
<totfact> 0.12530707E+04</totfact>
</mgrwt>
</event>
<event>
 4    1  0.3901757E+000  0.1994566E+03  0.7546771E-02  0.1150198E+00
         21   -1    0    0  501  502  0.00000000000E+00  0.00000000000E+00  0.18080135646E+03  0.18080135646E+03  0.00000000000E+00 0.  1.
         21   -1    0    0  502  503 -0.00000000000E+00 -0.00000000000E+00 -0.22116774423E+03  0.22116774423E+03  0.00000000000E+00 0. -1.
          6    1    1    2  501    0  0.95472872808E+02 -0.27181987390E+02 -0.58102486609E+01  0.19954119592E+03  0.17300000000E+03 0.  1.
         -6    1    1    2    0  503 -0.95472872808E+02  0.27181987390E+02 -0.34556139109E+02  0.20242790477E+03  0.17300000000E+03 0. -1.
<mgrwt>
<rscale>  2 0.19945659E+03</rscale>
<asrwt>0</asrwt>
<pdfrwt beam="1">  1       21 0.27815593E-01 0.19945659E+03</pdfrwt>
<pdfrwt beam="2">  1       21 0.34025807E-01 0.19945659E+03</pdfrwt>
<totfact> 0.10241772E+05</totfact>
</mgrwt>
</event>
<event>
 4    1  0.3901757E+000  0.1737948E+03  0.7546771E-02  0.1173947E+00
         21   -1    0    0  503  502  0.00000000000E+00  0.00000000000E+00  0.19265250285E+03  0.19265250285E+03  0.00000000000E+00 0.  1.
         21   -1    0    0  501  503 -0.00000000000E+00 -0.00000000000E+00 -0.17703753122E+03  0.17703753122E+03  0.00000000000E+00 0.  1.
          6    1    1    2  501    0 -0.13623224658E+02  0.94888756812E+01  0.70330013308E+02  0.18748584422E+03  0.17300000000E+03 0.  1.
         -6    1    1    2    0  502  0.13623224658E+02 -0.94888756812E+01 -0.54715041678E+02  0.18220418985E+03  0.17300000000E+03 0.  1.
<mgrwt>
<rscale>  2 0.17379480E+03</rscale>
<asrwt>0</asrwt>
<pdfrwt beam="1">  1       21 0.29638847E-01 0.17379480E+03</pdfrwt>
<pdfrwt beam="2">  1       21 0.27236543E-01 0.17379480E+03</pdfrwt>
<totfact> 0.14110013E+05</totfact>
</mgrwt>
</event>
<event>
 4    1  0.3901757E+000  0.2006289E+03  0.7546771E-02  0.1149209E+00
         21   -1    0    0  501  502  0.00000000000E+00  0.00000000000E+00  0.24137879822E+03  0.24137879822E+03  0.00000000000E+00 0.  1.
         21   -1    0    0  502  503 -0.00000000000E+00 -0.00000000000E+00 -0.29045082114E+03  0.29045082114E+03  0.00000000000E+00 0.  1.
          6    1    1    2  501    0  0.82406594229E+02 -0.59431666070E+02 -0.19806720988E+03  0.28192656727E+03  0.17300000000E+03 0.  1.
         -6    1    1    2    0  503 -0.82406594229E+02  0.59431666070E+02  0.14899518696E+03  0.24990305209E+03  0.17300000000E+03 0.  1.
<mgrwt>
<rscale>  2 0.20062894E+03</rscale>
<asrwt>0</asrwt>
<pdfrwt beam="1">  1       21 0.37135200E-01 0.20062894E+03</pdfrwt>
<pdfrwt beam="2">  1       21 0.44684741E-01 0.20062894E+03</pdfrwt>
<totfact> 0.33478488E+04</totfact>
</mgrwt>
</event>
<event>
 4    1  0.3901757E+000  0.2264640E+03  0.7546771E-02  0.1129154E+00
         21   -1    0    0  503  502  0.00000000000E+00  0.00000000000E+00  0.32354974579E+03  0.32354974579E+03  0.00000000000E+00 0.  1.
         21   -1    0    0  501  503 -0.00000000000E+00 -0.00000000000E+00 -0.21622281138E+03  0.21622281138E+03  0.00000000000E+00 0.  1.
          6    1    1    2  501    0  0.75877364075E+02 -0.12489815519E+03 -0.85769524273E+02  0.24216179476E+03  0.17300000000E+03 0.  1.
         -6    1    1    2    0  502 -0.75877364075E+02  0.12489815519E+03  0.19309645868E+03  0.29761076241E+03  0.17300000000E+03 0.  1.
<mgrwt>
<rscale>  2 0.22646396E+03</rscale>
<asrwt>0</asrwt>
<pdfrwt beam="1">  1       21 0.49776884E-01 0.22646396E+03</pdfrwt>
<pdfrwt beam="2">  1       21 0.33265048E-01 0.22646396E+03</pdfrwt>
<totfact> 0.32890525E+04</totfact>
</mgrwt>
</event>
<event>
 4    1  0.3901757E+000  0.2410364E+03  0.7546771E-02  0.1119104E+00
         21   -1    0    0  501  502  0.00000000000E+00  0.00000000000E+00  0.92578557649E+03  0.92578557649E+03  0.00000000000E+00 0.  1.
         21   -1    0    0  502  503 -0.00000000000E+00 -0.00000000000E+00 -0.76825963335E+02  0.76825963335E+02  0.00000000000E+00 0. -1.
          6    1    1    2  501    0 -0.13312235179E+03 -0.10221538551E+03  0.63901378172E+03  0.68296204785E+03  0.17300000000E+03 0.  1.
         -6    1    1    2    0  503  0.13312235179E+03  0.10221538551E+03  0.20994583144E+03  0.31964949198E+03  0.17300000000E+03 0. -1.
<mgrwt>
<rscale>  2 0.24103640E+03</rscale>
<asrwt>0</asrwt>
<pdfrwt beam="1">  1       21 0.14242854E+00 0.24103640E+03</pdfrwt>
<pdfrwt beam="2">  1       21 0.11819380E-01 0.24103640E+03</pdfrwt>
<totfact> 0.20030963E+04</totfact>
</mgrwt>
</event>
<event>
 4    1  0.3901757E+000  0.2371904E+03  0.7546771E-02  0.1121679E+00
         21   -1    0    0  503  502  0.00000000000E+00  0.00000000000E+00  0.31709781437E+03  0.31709781437E+03  0.00000000000E+00 0.  1.
         21   -1    0    0  501  503 -0.00000000000E+00 -0.00000000000E+00 -0.17833349727E+03  0.17833349727E+03  0.00000000000E+00 0.  1.
          6    1    1    2  501    0 -0.15576247962E+03 -0.45478723815E+02  0.87118451548E+02  0.25268337693E+03  0.17300000000E+03 0.  1.
         -6    1    1    2    0  502  0.15576247962E+03  0.45478723815E+02  0.51645865554E+02  0.24274793471E+03  0.17300000000E+03 0.  1.
<mgrwt>
<rscale>  2 0.23719035E+03</rscale>
<asrwt>0</asrwt>
<pdfrwt beam="1">  1       21 0.48784279E-01 0.23719035E+03</pdfrwt>
<pdfrwt beam="2">  1       21 0.27435923E-01 0.23719035E+03</pdfrwt>
<totfact> 0.49798661E+04</totfact>
</mgrwt>
</event>
<event>
 4    1  0.3901757E+000  0.2451682E+03  0.7546771E-02  0.1116397E+00
         21   -1    0    0  503  502  0.00000000000E+00  0.00000000000E+00  0.79182592291E+02  0.79182592291E+02  0.00000000000E+00 0. -1.
         21   -1    0    0  501  503 -0.00000000000E+00 -0.00000000000E+00 -0.17320540177E+04  0.17320540177E+04  0.00000000000E+00 0.  1.
          6    1    1    2  501    0  0.16885904630E+03 -0.40805427371E+02 -0.15051871495E+04  0.15250232180E+04  0.17300000000E+03 0.  1.
         -6    1    1    2    0  502 -0.16885904630E+03  0.40805427371E+02 -0.14768427597E+03  0.28621339205E+03  0.17300000000E+03 0. -1.
<mgrwt>
<rscale>  2 0.24516823E+03</rscale>
<asrwt>0</asrwt>
<pdfrwt beam="1">  1       21 0.12181938E-01 0.24516823E+03</pdfrwt>
<pdfrwt beam="2">  1       21 0.26646984E+00 0.24516823E+03</pdfrwt>
<totfact> 0.28847225E+03</totfact>
</mgrwt>
</event>
<event>
 4    1  0.3901757E+000  0.1755322E+03  0.7546771E-02  0.1172198E+00
         21   -1    0    0  501  502  0.00000000000E+00  0.00000000000E+00  0.27662177928E+03  0.27662177928E+03  0.00000000000E+00 0. -1.
         21   -1    0    0  502  503 -0.00000000000E+00 -0.00000000000E+00 -0.23405485417E+03  0.23405485417E+03  0.00000000000E+00 0. -1.
          6    1    1    2  501    0  0.26615121670E+02  0.13198672671E+02  0.20613614261E+03  0.27074652159E+03  0.17300000000E+03 0. -1.
         -6    1    1    2    0  503 -0.26615121670E+02 -0.13198672671E+02 -0.16356921750E+03  0.23993011186E+03  0.17300000000E+03 0. -1.
<mgrwt>
<rscale>  2 0.17553225E+03</rscale>
<asrwt>0</asrwt>
<pdfrwt beam="1">  1       21 0.42557197E-01 0.17553225E+03</pdfrwt>
<pdfrwt beam="2">  1       21 0.36008439E-01 0.17553225E+03</pdfrwt>
<totfact> 0.39848518E+04</totfact>
</mgrwt>
</event>
<event>
 4    1  0.3901757E+000  0.2216757E+03  0.7546771E-02  0.1132640E+00
         21   -1    0    0  501  502  0.00000000000E+00  0.00000000000E+00  0.30123161415E+03  0.30123161415E+03  0.00000000000E+00 0.  1.
         21   -1    0    0  502  503 -0.00000000000E+00 -0.00000000000E+00 -0.21065184445E+03  0.21065184445E+03  0.00000000000E+00 0.  1.
          6    1    1    2  501    0 -0.10680519492E+03  0.88338941111E+02  0.16685305075E+03  0.27745280450E+03  0.17300000000E+03 0.  1.
         -6    1    1    2    0  503  0.10680519492E+03 -0.88338941111E+02 -0.76273281048E+02  0.23443065410E+03  0.17300000000E+03 0.  1.
<mgrwt>
<rscale>  2 0.22167570E+03</rscale>
<asrwt>0</asrwt>
<pdfrwt beam="1">  1       21 0.46343325E-01 0.22167570E+03</pdfrwt>
<pdfrwt beam="2">  1       21 0.32407976E-01 0.22167570E+03</pdfrwt>
<totfact> 0.40276822E+04</totfact>
</mgrwt>
</event>
<event>
 4    1  0.3901757E+000  0.1951305E+03  0.7546771E-02  0.1153914E+00
         21   -1    0    0  503  502  0.00000000000E+00  0.00000000000E+00  0.83850799131E+03  0.83850799131E+03  0.00000000000E+00 0.  1.
         21   -1    0    0  501  503 -0.00000000000E+00 -0.00000000000E+00 -0.47460678325E+02  0.47460678325E+02  0.00000000000E+00 0.  1.
          6    1    1    2  501    0 -0.22097588572E+02  0.87513573939E+02  0.48762393175E+03  0.52521712449E+03  0.17300000000E+03 0.  1.
         -6    1    1    2    0  502  0.22097588572E+02 -0.87513573939E+02  0.30342338124E+03  0.36075154515E+03  0.17300000000E+03 0.  1.
<mgrwt>
<rscale>  2 0.19513054E+03</rscale>
<asrwt>0</asrwt>
<pdfrwt beam="1">  1       21 0.12900122E+00 0.19513054E+03</pdfrwt>
<pdfrwt beam="2">  1       21 0.73016434E-02 0.19513054E+03</pdfrwt>
<totfact> 0.61900707E+04</totfact>
</mgrwt>
</event>
<event>
 4    1  0.3901757E+000  0.2539136E+03  0.7546771E-02  0.1110856E+00
         21   -1    0    0  501  502  0.00000000000E+00  0.00000000000E+00  0.19086302091E+04  0.19086302091E+04  0.00000000000E+00 0. -1.
         21   -1    0    0  502  503 -0.00000000000E+00 -0.00000000000E+00 -0.61806936605E+02  0.61806936605E+02  0.00000000000E+00 0.  1.
          6    1    1    2  501    0  0.17838019193E+03 -0.52188363805E+02  0.15868606018E+04  0.16070465730E+04  0.17300000000E+03 0. -1.
         -6    1    1    2    0  503 -0.17838019193E+03  0.52188363805E+02  0.25996267070E+03  0.36339057273E+03  0.17300000000E+03 0.  1.
<mgrwt>
<rscale>  2 0.25391360E+03</rscale>
<asrwt>0</asrwt>
<pdfrwt beam="1">  1       21 0.29363537E+00 0.25391360E+03</pdfrwt>
<pdfrwt beam="2">  1       21 0.95087609E-02 0.25391360E+03</pdfrwt>
<totfact> 0.30887101E+03</totfact>
</mgrwt>
</event>
<event>
 4    1  0.3901757E+000  0.1807215E+03  0.7546771E-02  0.1167107E+00
         21   -1    0    0  501  502  0.00000000000E+00  0.00000000000E+00  0.20821947076E+03  0.20821947076E+03  0.00000000000E+00 0. -1.
         21   -1    0    0  502  503 -0.00000000000E+00 -0.00000000000E+00 -0.40227614173E+03  0.40227614173E+03  0.00000000000E+00 0.  1.
          6    1    1    2  501    0 -0.50731188517E+02 -0.12553737478E+02  0.14139374008E+03  0.22946119399E+03  0.17300000000E+03 0. -1.
         -6    1    1    2    0  503  0.50731188517E+02  0.12553737478E+02 -0.33545041104E+03  0.38103441850E+03  0.17300000000E+03 0.  1.
<mgrwt>
<rscale>  2 0.18072147E+03</rscale>
<asrwt>0</asrwt>
<pdfrwt beam="1">  1       21 0.32033765E-01 0.18072147E+03</pdfrwt>
<pdfrwt beam="2">  1       21 0.61888638E-01 0.18072147E+03</pdfrwt>
<totfact> 0.22876965E+04</totfact>
</mgrwt>
</event>
<event>
 4    1  0.3901757E+000  0.2451520E+03  0.7546771E-02  0.1116408E+00
         21   -1    0    0  503  502  0.00000000000E+00  0.00000000000E+00  0.29186889614E+03  0.29186889614E+03  0.00000000000E+00 0. -1.
         21   -1    0    0  501  503 -0.00000000000E+00 -0.00000000000E+00 -0.23134003819E+03  0.23134003819E+03  0.00000000000E+00 0. -1.
          6    1    1    2  501    0 -0.17290686074E+03  0.16544229593E+02 -0.56465849955E+02  0.25157083741E+03  0.17300000000E+03 0. -1.
         -6    1    1    2    0  502  0.17290686074E+03 -0.16544229593E+02  0.11699470790E+03  0.27163809693E+03  0.17300000000E+03 0. -1.
<mgrwt>
<rscale>  2 0.24515198E+03</rscale>
<asrwt>0</asrwt>
<pdfrwt beam="1">  1       21 0.44902907E-01 0.24515198E+03</pdfrwt>
<pdfrwt beam="2">  1       21 0.35590775E-01 0.24515198E+03</pdfrwt>
<totfact> 0.35316156E+04</totfact>
</mgrwt>
</event>
<event>
 4    1  0.3901757E+000  0.2385463E+03  0.7546771E-02  0.1120765E+00
         21   -1    0    0  503  502  0.00000000000E+00  0.00000000000E+00  0.54911833390E+03  0.54911833390E+03  0.00000000000E+00 0. -1.
         21   -1    0    0  501  503 -0.00000000000E+00 -0.00000000000E+00 -0.15039731475E+03  0.15039731475E+03  0.00000000000E+00 0. -1.
          6    1    1    2  501    0  0.99850750987E+02 -0.13040391954E+03  0.43198327710E+01  0.23858544729E+03  0.17300000000E+03 0. -1.
         -6    1    1    2    0  502 -0.99850750987E+02  0.13040391954E+03  0.39440118638E+03  0.46093020136E+03  0.17300000000E+03 0. -1.
<mgrwt>
<rscale>  2 0.23854634E+03</rscale>
<asrwt>0</asrwt>
<pdfrwt beam="1">  1       21 0.84479742E-01 0.23854634E+03</pdfrwt>
<pdfrwt beam="2">  1       21 0.23138049E-01 0.23854634E+03</pdfrwt>
<totfact> 0.20778932E+04</totfact>
</mgrwt>
</event>
<event>
 4    1  0.3901757E+000  0.1888209E+03  0.7546771E-02  0.1159529E+00
         21   -1    0    0  503  502  0.00000000000E+00  0.00000000000E+00  0.45833338103E+02  0.45833338103E+02  0.00000000000E+00 0. -1.
         21   -1    0    0  501  503 -0.00000000000E+00 -0.00000000000E+00 -0.95265712651E+03  0.95265712651E+03  0.00000000000E+00 0. -1.
          6    1    1    2  501    0  0.60934838739E+02  0.44847374463E+02 -0.66724465170E+03  0.69344701801E+03  0.17300000000E+03 0. -1.
         -6    1    1    2    0  502 -0.60934838739E+02 -0.44847374463E+02 -0.23957913670E+03  0.30504344660E+03  0.17300000000E+03 0. -1.
<mgrwt>
<rscale>  2 0.18882092E+03</rscale>
<asrwt>0</asrwt>
<pdfrwt beam="1">  1       21 0.70512829E-02 0.18882092E+03</pdfrwt>
<pdfrwt beam="2">  1       21 0.14656263E+00 0.18882092E+03</pdfrwt>
<totfact> 0.47549052E+04</totfact>
</mgrwt>
</event>
<event>
 4    1  0.3901757E+000  0.1753680E+03  0.7546771E-02  0.1172363E+00
         21   -1    0    0  501  502  0.00000000000E+00  0.00000000000E+00  0.13028026499E+03  0.13028026499E+03  0.00000000000E+00 0. -1.
         21   -1    0    0  502  503 -0.00000000000E+00 -0.00000000000E+00 -0.11733668791E+04  0.11733668791E+04  0.00000000000E+00 0. -1.
          6    1    1    2  501    0 -0.28253763041E+02  0.51633617104E+01  0.61034711509E+02  0.18568567914E+03  0.17300000000E+03 0. -1.
         -6    1    1    2    0  503  0.28253763041E+02 -0.51633617104E+01 -0.11041213256E+04  0.11179614649E+04  0.17300000000E+03 0. -1.
<mgrwt>
<rscale>  2 0.17536800E+03</rscale>
<asrwt>0</asrwt>
<pdfrwt beam="1">  1       21 0.20043118E-01 0.17536800E+03</pdfrwt>
<pdfrwt beam="2">  1       21 0.18051798E+00 0.17536800E+03</pdfrwt>
<totfact> 0.42177788E+03</totfact>
</mgrwt>
</event>
<event>
 4    1  0.3901757E+000  0.1858588E+03  0.7546771E-02  0.1162250E+00
         21   -1    0    0  501  502  0.00000000000E+00  0.00000000000E+00  0.15733164285E+03  0.15733164285E+03  0.00000000000E+00 0.  1.
         21   -1    0    0  502  503 -0.00000000000E+00 -0.00000000000E+00 -0.24190138895E+03  0.24190138895E+03  0.00000000000E+00 0.  1.
          6    1    1    2  501    0  0.67752940387E+02 -0.49037905835E+01 -0.10295102147E+03  0.21246745849E+03  0.17300000000E+03 0.  1.
         -6    1    1    2    0  503 -0.67752940387E+02  0.49037905835E+01  0.18381275371E+02  0.18676557332E+03  0.17300000000E+03 0.  1.
<mgrwt>
<rscale>  2 0.18585884E+03</rscale>
<asrwt>0</asrwt>
<pdfrwt beam="1">  1       21 0.24204868E-01 0.18585884E+03</pdfrwt>
<pdfrwt beam="2">  1       21 0.37215598E-01 0.18585884E+03</pdfrwt>
<totfact> 0.11245030E+05</totfact>
</mgrwt>
</event>
<event>
 4    1  0.3901757E+000  0.1796275E+03  0.7546771E-02  0.1168164E+00
         21   -1    0    0  501  502  0.00000000000E+00  0.00000000000E+00  0.21391585208E+02  0.21391585208E+02  0.00000000000E+00 0. -1.
         21   -1    0    0  502  503 -0.00000000000E+00 -0.00000000000E+00 -0.21263064516E+04  0.21263064516E+04  0.00000000000E+00 0. -1.
          6    1    1    2  501    0 -0.70270656472E+00  0.48337860408E+02 -0.47355084476E+03  0.50647452563E+03  0.17300000000E+03 0. -1.
         -6    1    1    2    0  503  0.70270656472E+00 -0.48337860408E+02 -0.16313640216E+04  0.16412235112E+04  0.17300000000E+03 0. -1.
<mgrwt>
<rscale>  2 0.17962751E+03</rscale>
<asrwt>0</asrwt>
<pdfrwt beam="1">  1       21 0.32910146E-02 0.17962751E+03</pdfrwt>
<pdfrwt beam="2">  1       21 0.32712392E+00 0.17962751E+03</pdfrwt>
<totfact> 0.13110255E+04</totfact>
</mgrwt>
</event>
<event>
 4    1  0.3901757E+000  0.2012030E+03  0.7546771E-02  0.1148728E+00
         21   -1    0    0  501  502  0.00000000000E+00  0.00000000000E+00  0.10338345876E+04  0.10338345876E+04  0.00000000000E+00 0. -1.
         21   -1    0    0  502  503 -0.00000000000E+00 -0.00000000000E+00 -0.47042353413E+02  0.47042353413E+02  0.00000000000E+00 0. -1.
          6    1    1    2  501    0  0.52132601195E+02 -0.88520300838E+02  0.27214205569E+03  0.33844342251E+03  0.17300000000E+03 0. -1.
         -6    1    1    2    0  503 -0.52132601195E+02  0.88520300838E+02  0.71465017853E+03  0.74243351853E+03  0.17300000000E+03 0. -1.
<mgrwt>
<rscale>  2 0.20120301E+03</rscale>
<asrwt>0</asrwt>
<pdfrwt beam="1">  1       21 0.15905146E+00 0.20120301E+03</pdfrwt>
<pdfrwt beam="2">  1       21 0.72372859E-02 0.20120301E+03</pdfrwt>
<totfact> 0.36328295E+04</totfact>
</mgrwt>
</event>
<event>
 4    1  0.3901757E+000  0.1864610E+03  0.7546771E-02  0.1161693E+00
         21   -1    0    0  503  502  0.00000000000E+00  0.00000000000E+00  0.50685160766E+03  0.50685160766E+03  0.00000000000E+00 0. -1.
         21   -1    0    0  501  503 -0.00000000000E+00 -0.00000000000E+00 -0.86621463276E+02  0.86621463276E+02  0.00000000000E+00 0.  1.
          6    1    1    2  501    0  0.46230478603E+02 -0.51975427487E+02  0.74749448101E+02  0.20088599305E+03  0.17300000000E+03 0.  1.
         -6    1    1    2    0  502 -0.46230478603E+02  0.51975427487E+02  0.34548069628E+03  0.39258707788E+03  0.17300000000E+03 0. -1.
<mgrwt>
<rscale>  2 0.18646099E+03</rscale>
<asrwt>0</asrwt>
<pdfrwt beam="1">  1       21 0.77977169E-01 0.18646099E+03</pdfrwt>
<pdfrwt beam="2">  1       21 0.13326379E-01 0.18646099E+03</pdfrwt>
<totfact> 0.71019857E+04</totfact>
</mgrwt>
</event>
<event>
 4    1  0.3901757E+000  0.2037609E+03  0.7546771E-02  0.1146604E+00
         21   -1    0    0  503  502  0.00000000000E+00  0.00000000000E+00  0.30692289839E+03  0.30692289839E+03  0.00000000000E+00 0.  1.
         21   -1    0    0  501  503 -0.00000000000E+00 -0.00000000000E+00 -0.25780036795E+03  0.25780036795E+03  0.00000000000E+00 0.  1.
          6    1    1    2  501    0  0.91969943930E+02 -0.55955514726E+02 -0.17010013441E+03  0.26542898474E+03  0.17300000000E+03 0.  1.
         -6    1    1    2    0  502 -0.91969943930E+02  0.55955514726E+02  0.21922266486E+03  0.29929428160E+03  0.17300000000E+03 0.  1.
<mgrwt>
<rscale>  2 0.20376087E+03</rscale>
<asrwt>0</asrwt>
<pdfrwt beam="1">  1       21 0.47218907E-01 0.20376087E+03</pdfrwt>
<pdfrwt beam="2">  1       21 0.39661595E-01 0.20376087E+03</pdfrwt>
<totfact> 0.26130375E+04</totfact>
</mgrwt>
</event>
<event>
 4    1  0.3901757E+000  0.2132385E+03  0.7546771E-02  0.1139027E+00
         21   -1    0    0  501  502  0.00000000000E+00  0.00000000000E+00  0.49772823271E+02  0.49772823271E+02  0.00000000000E+00 0.  1.
         21   -1    0    0  502  503 -0.00000000000E+00 -0.00000000000E+00 -0.92734790480E+03  0.92734790480E+03  0.00000000000E+00 0.  1.
          6    1    1    2  501    0  0.81361332222E+02 -0.94456181397E+02 -0.49835242118E+03  0.54205698251E+03  0.17300000000E+03 0.  1.
         -6    1    1    2    0  503 -0.81361332222E+02  0.94456181397E+02 -0.37922266035E+03  0.43506374557E+03  0.17300000000E+03 0.  1.
<mgrwt>
<rscale>  2 0.21323845E+03</rscale>
<asrwt>0</asrwt>
<pdfrwt beam="1">  1       21 0.76573582E-02 0.21323845E+03</pdfrwt>
<pdfrwt beam="2">  1       21 0.14266889E+00 0.21323845E+03</pdfrwt>
<totfact> 0.43613485E+04</totfact>
</mgrwt>
</event>
<event>
 4    1  0.3901757E+000  0.1761127E+03  0.7546771E-02  0.1171619E+00
         21   -1    0    0  501  502  0.00000000000E+00  0.00000000000E+00  0.14647513989E+04  0.14647513989E+04  0.00000000000E+00 0.  1.
         21   -1    0    0  502  503 -0.00000000000E+00 -0.00000000000E+00 -0.57069151188E+02  0.57069151188E+02  0.00000000000E+00 0.  1.
          6    1    1    2  501    0 -0.32960776785E+02 -0.52182223136E+00  0.13072981448E+04  0.13191073211E+04  0.17300000000E+03 0.  1.
         -6    1    1    2    0  503  0.32960776785E+02  0.52182223136E+00  0.10038410293E+03  0.20271322904E+03  0.17300000000E+03 0.  1.
<mgrwt>
<rscale>  2 0.17611271E+03</rscale>
<asrwt>0</asrwt>
<pdfrwt beam="1">  1       21 0.22534634E+00 0.17611271E+03</pdfrwt>
<pdfrwt beam="2">  1       21 0.87798705E-02 0.17611271E+03</pdfrwt>
<totfact> 0.96670939E+03</totfact>
</mgrwt>
</event>
<event>
 4    1  0.3901757E+000  0.2807675E+03  0.7546771E-02  0.1095270E+00
         21   -1    0    0  501  502  0.00000000000E+00  0.00000000000E+00  0.47599736096E+03  0.47599736096E+03  0.00000000000E+00 0.  1.
         21   -1    0    0  502  503 -0.00000000000E+00 -0.00000000000E+00 -0.16819463010E+03  0.16819463010E+03  0.00000000000E+00 0. -1.
          6    1    1    2  501    0  0.15500694697E+03  0.15771574027E+03  0.11398115964E+03  0.30302163799E+03  0.17300000000E+03 0.  1.
         -6    1    1    2    0  503 -0.15500694697E+03 -0.15771574027E+03  0.19382157122E+03  0.34117035306E+03  0.17300000000E+03 0. -1.
<mgrwt>
<rscale>  2 0.28076753E+03</rscale>
<asrwt>0</asrwt>
<pdfrwt beam="1">  1       21 0.73230362E-01 0.28076753E+03</pdfrwt>
<pdfrwt beam="2">  1       21 0.25876097E-01 0.28076753E+03</pdfrwt>
<totfact> 0.22746540E+04</totfact>
</mgrwt>
</event>
<event>
 4    1  0.3901757E+000  0.1859089E+03  0.7546771E-02  0.1162204E+00
         21   -1    0    0  503  502  0.00000000000E+00  0.00000000000E+00  0.43896478024E+03  0.43896478024E+03  0.00000000000E+00 0. -1.
         21   -1    0    0  501  503 -0.00000000000E+00 -0.00000000000E+00 -0.10122070483E+03  0.10122070483E+03  0.00000000000E+00 0. -1.
          6    1    1    2  501    0 -0.58766434205E+02  0.34345537625E+02  0.41572537690E+02  0.19050035599E+03  0.17300000000E+03 0.  1.
         -6    1    1    2    0  502  0.58766434205E+02 -0.34345537625E+02  0.29617153772E+03  0.34968512908E+03  0.17300000000E+03 0.  1.
<mgrwt>
<rscale>  2 0.18590887E+03</rscale>
<asrwt>0</asrwt>
<pdfrwt beam="1">  1       21 0.67533042E-01 0.18590887E+03</pdfrwt>
<pdfrwt beam="2">  1       21 0.15572416E-01 0.18590887E+03</pdfrwt>
<totfact> 0.73668459E+04</totfact>
</mgrwt>
</event>
<event>
 4    1  0.3901757E+000  0.1970964E+03  0.7546771E-02  0.1152212E+00
         21   -1    0    0  503  502  0.00000000000E+00  0.00000000000E+00  0.27660504769E+03  0.27660504769E+03  0.00000000000E+00 0. -1.
         21   -1    0    0  501  503 -0.00000000000E+00 -0.00000000000E+00 -0.15147744993E+03  0.15147744993E+03  0.00000000000E+00 0. -1.
          6    1    1    2  501    0 -0.78273073381E+02 -0.52832987657E+02  0.47919596130E+01  0.19715466385E+03  0.17300000000E+03 0. -1.
         -6    1    1    2    0  502  0.78273073381E+02  0.52832987657E+02  0.12033563815E+03  0.23092783377E+03  0.17300000000E+03 0. -1.
<mgrwt>
<rscale>  2 0.19709642E+03</rscale>
<asrwt>0</asrwt>
<pdfrwt beam="1">  1       21 0.42554623E-01 0.19709642E+03</pdfrwt>
<pdfrwt beam="2">  1       21 0.23304223E-01 0.19709642E+03</pdfrwt>
<totfact> 0.91802580E+04</totfact>
</mgrwt>
</event>
<event>
 4    1  0.3901757E+000  0.1947253E+03  0.7546771E-02  0.1154267E+00
         21   -1    0    0  503  502  0.00000000000E+00  0.00000000000E+00  0.18092504798E+03  0.18092504798E+03  0.00000000000E+00 0. -1.
         21   -1    0    0  501  503 -0.00000000000E+00 -0.00000000000E+00 -0.32811618859E+03  0.32811618859E+03  0.00000000000E+00 0.  1.
          6    1    1    2  501    0 -0.53639635686E+02  0.71496395904E+02 -0.22657672156E+03  0.29875567927E+03  0.17300000000E+03 0.  1.
         -6    1    1    2    0  502  0.53639635686E+02 -0.71496395904E+02  0.79385580952E+02  0.21028555730E+03  0.17300000000E+03 0. -1.
<mgrwt>
<rscale>  2 0.19472531E+03</rscale>
<asrwt>0</asrwt>
<pdfrwt beam="1">  1       21 0.27834623E-01 0.19472531E+03</pdfrwt>
<pdfrwt beam="2">  1       21 0.50479413E-01 0.19472531E+03</pdfrwt>
<totfact> 0.45987993E+04</totfact>
</mgrwt>
</event>
<event>
 4    1  0.3901757E+000  0.1753589E+03  0.7546771E-02  0.1172372E+00
         21   -1    0    0  501  502  0.00000000000E+00  0.00000000000E+00  0.26978067104E+03  0.26978067104E+03  0.00000000000E+00 0.  1.
         21   -1    0    0  502  503 -0.00000000000E+00 -0.00000000000E+00 -0.18385304524E+03  0.18385304524E+03  0.00000000000E+00 0.  1.
          6    1    1    2  501    0 -0.10243477686E+02  0.26773717203E+02 -0.96860080346E+02  0.20033131541E+03  0.17300000000E+03 0.  1.
         -6    1    1    2    0  503  0.10243477686E+02 -0.26773717203E+02  0.18278770615E+03  0.25330240087E+03  0.17300000000E+03 0.  1.
<mgrwt>
<rscale>  2 0.17535895E+03</rscale>
<asrwt>0</asrwt>
<pdfrwt beam="1">  1       21 0.41504719E-01 0.17535895E+03</pdfrwt>
<pdfrwt beam="2">  1       21 0.28285084E-01 0.17535895E+03</pdfrwt>
<totfact> 0.67279255E+04</totfact>
</mgrwt>
</event>
<event>
 4    1  0.3901757E+000  0.1990272E+03  0.7546771E-02  0.1150562E+00
         21   -1    0    0  501  502  0.00000000000E+00  0.00000000000E+00  0.38225293657E+03  0.38225293657E+03  0.00000000000E+00 0.  1.
         21   -1    0    0  502  503 -0.00000000000E+00 -0.00000000000E+00 -0.15417808391E+03  0.15417808391E+03  0.00000000000E+00 0. -1.
          6    1    1    2  501    0 -0.75595432187E+02 -0.62993454214E+02  0.26761806123E+03  0.33351352497E+03  0.17300000000E+03 0.  1.
         -6    1    1    2    0  503  0.75595432187E+02  0.62993454214E+02 -0.39543208572E+02  0.20291749551E+03  0.17300000000E+03 0. -1.
<mgrwt>
<rscale>  2 0.19902725E+03</rscale>
<asrwt>0</asrwt>
<pdfrwt beam="1">  1       21 0.58808144E-01 0.19902725E+03</pdfrwt>
<pdfrwt beam="2">  1       21 0.23719705E-01 0.19902725E+03</pdfrwt>
<totfact> 0.45141657E+04</totfact>
</mgrwt>
</event>
<event>
 4    1  0.3901757E+000  0.2031806E+03  0.7546771E-02  0.1147083E+00
         21   -1    0    0  503  502  0.00000000000E+00  0.00000000000E+00  0.10973750404E+03  0.10973750404E+03  0.00000000000E+00 0. -1.
         21   -1    0    0  501  503 -0.00000000000E+00 -0.00000000000E+00 -0.55013452033E+03  0.55013452033E+03  0.00000000000E+00 0.  1.
          6    1    1    2  501    0 -0.65891821048E+02 -0.83735331868E+02 -0.40572183758E+03  0.45375384007E+03  0.17300000000E+03 0.  1.
         -6    1    1    2    0  502  0.65891821048E+02  0.83735331868E+02 -0.34675178705E+02  0.20611818431E+03  0.17300000000E+03 0. -1.
<mgrwt>
<rscale>  2 0.20318055E+03</rscale>
<asrwt>0</asrwt>
<pdfrwt beam="1">  1       21 0.16882692E-01 0.20318055E+03</pdfrwt>
<pdfrwt beam="2">  1       21 0.84636083E-01 0.20318055E+03</pdfrwt>
<totfact> 0.38019694E+04</totfact>
</mgrwt>
</event>
<event>
 4    1  0.3901757E+000  0.1945585E+03  0.7546771E-02  0.1154413E+00
         21   -1    0    0  501  502  0.00000000000E+00  0.00000000000E+00  0.29527846156E+03  0.29527846156E+03  0.00000000000E+00 0.  1.
         21   -1    0    0  502  503 -0.00000000000E+00 -0.00000000000E+00 -0.26728669002E+03  0.26728669002E+03  0.00000000000E+00 0.  1.
          6    1    1    2  501    0  0.75960383172E+02  0.46411617640E+02  0.21690700024E+03  0.29137890249E+03  0.17300000000E+03 0.  1.
         -6    1    1    2    0  503 -0.75960383172E+02 -0.46411617640E+02 -0.18891522870E+03  0.27118624909E+03  0.17300000000E+03 0.  1.
<mgrwt>
<rscale>  2 0.19455852E+03</rscale>
<asrwt>0</asrwt>
<pdfrwt beam="1">  1       21 0.45427456E-01 0.19455852E+03</pdfrwt>
<pdfrwt beam="2">  1       21 0.41121029E-01 0.19455852E+03</pdfrwt>
<totfact> 0.26443524E+04</totfact>
</mgrwt>
</event>
<event>
 4    1  0.3901757E+000  0.2209125E+03  0.7546771E-02  0.1133205E+00
         21   -1    0    0  503  502  0.00000000000E+00  0.00000000000E+00  0.31598278088E+03  0.31598278088E+03  0.00000000000E+00 0.  1.
         21   -1    0    0  501  503 -0.00000000000E+00 -0.00000000000E+00 -0.17159850875E+03  0.17159850875E+03  0.00000000000E+00 0.  1.
          6    1    1    2  501    0 -0.15380661094E+02  0.13651657417E+03 -0.48842910423E+01  0.22096650438E+03  0.17300000000E+03 0.  1.
         -6    1    1    2    0  502  0.15380661094E+02 -0.13651657417E+03  0.14926856317E+03  0.26661478524E+03  0.17300000000E+03 0.  1.
<mgrwt>
<rscale>  2 0.22091252E+03</rscale>
<asrwt>0</asrwt>
<pdfrwt beam="1">  1       21 0.48612735E-01 0.22091252E+03</pdfrwt>
<pdfrwt beam="2">  1       21 0.26399771E-01 0.22091252E+03</pdfrwt>
<totfact> 0.54416840E+04</totfact>
</mgrwt>
</event>
<event>
 4    1  0.3901757E+000  0.1987499E+03  0.7546771E-02  0.1150798E+00
         21   -1    0    0  503  502  0.00000000000E+00  0.00000000000E+00  0.51577231436E+02  0.51577231436E+02  0.00000000000E+00 0.  1.
         21   -1    0    0  501  503 -0.00000000000E+00 -0.00000000000E+00 -0.82863818359E+03  0.82863818359E+03  0.00000000000E+00 0. -1.
          6    1    1    2  501    0 -0.97532576554E+02  0.77412575933E+01 -0.50965753296E+03  0.54703960684E+03  0.17300000000E+03 0. -1.
         -6    1    1    2    0  502  0.97532576554E+02 -0.77412575933E+01 -0.26740341920E+03  0.33317580818E+03  0.17300000000E+03 0.  1.
<mgrwt>
<rscale>  2 0.19874992E+03</rscale>
<asrwt>0</asrwt>
<pdfrwt beam="1">  1       21 0.79349586E-02 0.19874992E+03</pdfrwt>
<pdfrwt beam="2">  1       21 0.12748280E+00 0.19874992E+03</pdfrwt>
<totfact> 0.55090773E+04</totfact>
</mgrwt>
</event>
<event>
 4    1  0.3901757E+000  0.1954534E+03  0.7546771E-02  0.1153633E+00
         21   -1    0    0  501  502  0.00000000000E+00  0.00000000000E+00  0.10540953898E+03  0.10540953898E+03  0.00000000000E+00 0.  1.
         21   -1    0    0  502  503 -0.00000000000E+00 -0.00000000000E+00 -0.36259827937E+03  0.36259827937E+03  0.00000000000E+00 0. -1.
          6    1    1    2  501    0  0.82839257674E+02 -0.37559399278E+02 -0.12334060897E+03  0.23111676033E+03  0.17300000000E+03 0. -1.
         -6    1    1    2    0  503 -0.82839257674E+02  0.37559399278E+02 -0.13384813141E+03  0.23689105802E+03  0.17300000000E+03 0.  1.
<mgrwt>
<rscale>  2 0.19545345E+03</rscale>
<asrwt>0</asrwt>
<pdfrwt beam="1">  1       21 0.16216852E-01 0.19545345E+03</pdfrwt>
<pdfrwt beam="2">  1       21 0.55784351E-01 0.19545345E+03</pdfrwt>
<totfact> 0.10286412E+05</totfact>
</mgrwt>
</event>
<event>
 4    1  0.3901757E+000  0.1826486E+03  0.7546771E-02  0.1165264E+00
         21   -1    0    0  503  502  0.00000000000E+00  0.00000000000E+00  0.10681063787E+04  0.10681063787E+04  0.00000000000E+00 0.  1.
         21   -1    0    0  501  503 -0.00000000000E+00 -0.00000000000E+00 -0.32068418978E+02  0.32068418978E+02  0.00000000000E+00 0.  1.
          6    1    1    2  501    0  0.51736539094E+02  0.27474712490E+02  0.42925090744E+03  0.46649423452E+03  0.17300000000E+03 0.  1.
         -6    1    1    2    0  502 -0.51736539094E+02 -0.27474712490E+02  0.60678705224E+03  0.63368056311E+03  0.17300000000E+03 0.  1.
<mgrwt>
<rscale>  2 0.18264865E+03</rscale>
<asrwt>0</asrwt>
<pdfrwt beam="1">  1       21 0.16432403E+00 0.18264865E+03</pdfrwt>
<pdfrwt beam="2">  1       21 0.49336037E-02 0.18264865E+03</pdfrwt>
<totfact> 0.64785797E+04</totfact>
</mgrwt>
</event>
<event>
 4    1  0.3901757E+000  0.1843086E+03  0.7546771E-02  0.1163697E+00
         21   -1    0    0  501  502  0.00000000000E+00  0.00000000000E+00  0.33541962934E+02  0.33541962934E+02  0.00000000000E+00 0.  1.
         21   -1    0    0  502  503 -0.00000000000E+00 -0.00000000000E+00 -0.11643543282E+04  0.11643543282E+04  0.00000000000E+00 0.  1.
          6    1    1    2  501    0  0.46535140726E+02 -0.43302838682E+02 -0.78152922312E+03  0.80296798302E+03  0.17300000000E+03 0.  1.
         -6    1    1    2    0  503 -0.46535140726E+02  0.43302838682E+02 -0.34928314210E+03  0.39492830807E+03  0.17300000000E+03 0.  1.
<mgrwt>
<rscale>  2 0.18430859E+03</rscale>
<asrwt>0</asrwt>
<pdfrwt beam="1">  1       21 0.51603029E-02 0.18430859E+03</pdfrwt>
<pdfrwt beam="2">  1       21 0.17913140E+00 0.18430859E+03</pdfrwt>
<totfact> 0.47273311E+04</totfact>
</mgrwt>
</event>
<event>
 4    1  0.3901757E+000  0.2398172E+03  0.7546771E-02  0.1119915E+00
         21   -1    0    0  501  502  0.00000000000E+00  0.00000000000E+00  0.57591016616E+03  0.57591016616E+03  0.00000000000E+00 0. -1.
         21   -1    0    0  502  503 -0.00000000000E+00 -0.00000000000E+00 -0.20108589463E+03  0.20108589463E+03  0.00000000000E+00 0.  1.
          6    1    1    2  501    0  0.93141555860E+02  0.13750609748E+03  0.46304868245E+03  0.52146558716E+03  0.17300000000E+03 0. -1.
         -6    1    1    2    0  503 -0.93141555860E+02 -0.13750609748E+03 -0.88224410921E+02  0.25553047363E+03  0.17300000000E+03 0.  1.
<mgrwt>
<rscale>  2 0.23981717E+03</rscale>
<asrwt>0</asrwt>
<pdfrwt beam="1">  1       21 0.88601563E-01 0.23981717E+03</pdfrwt>
<pdfrwt beam="2">  1       21 0.30936292E-01 0.23981717E+03</pdfrwt>
<totfact> 0.10606746E+04</totfact>
</mgrwt>
</event>
<event>
 4    1  0.3901757E+000  0.2842112E+03  0.7546771E-02  0.1093411E+00
         21   -1    0    0  503  502  0.00000000000E+00  0.00000000000E+00  0.48864030071E+03  0.48864030071E+03  0.00000000000E+00 0. -1.
         21   -1    0    0  501  503 -0.00000000000E+00 -0.00000000000E+00 -0.31898356385E+03  0.31898356385E+03  0.00000000000E+00 0. -1.
          6    1    1    2  501    0  0.20214622588E+03 -0.99919388168E+02 -0.19545536533E+03  0.34493300887E+03  0.17300000000E+03 0. -1.
         -6    1    1    2    0  502 -0.20214622588E+03  0.99919388168E+02  0.36511210219E+03  0.46269085569E+03  0.17300000000E+03 0. -1.
<mgrwt>
<rscale>  2 0.28421116E+03</rscale>
<asrwt>0</asrwt>
<pdfrwt beam="1">  1       21 0.75175430E-01 0.28421116E+03</pdfrwt>
<pdfrwt beam="2">  1       21 0.49074395E-01 0.28421116E+03</pdfrwt>
<totfact> 0.59107214E+03</totfact>
</mgrwt>
</event>
<event>
 4    1  0.3901757E+000  0.1797740E+03  0.7546771E-02  0.1168022E+00
         21   -1    0    0  501  502  0.00000000000E+00  0.00000000000E+00  0.11179184985E+04  0.11179184985E+04  0.00000000000E+00 0. -1.
         21   -1    0    0  502  503 -0.00000000000E+00 -0.00000000000E+00 -0.27399908116E+03  0.27399908116E+03  0.00000000000E+00 0. -1.
          6    1    1    2  501    0  0.20712414940E+02  0.44279565501E+02  0.10801799329E+04  0.10950376119E+04  0.17300000000E+03 0. -1.
         -6    1    1    2    0  503 -0.20712414940E+02 -0.44279565501E+02 -0.23626051555E+03  0.29687996777E+03  0.17300000000E+03 0. -1.
<mgrwt>
<rscale>  2 0.17977398E+03</rscale>
<asrwt>0</asrwt>
<pdfrwt beam="1">  1       21 0.17198746E+00 0.17977398E+03</pdfrwt>
<pdfrwt beam="2">  1       21 0.42153706E-01 0.17977398E+03</pdfrwt>
<totfact> 0.11351002E+03</totfact>
</mgrwt>
</event>
<event>
 4    1  0.3901757E+000  0.2575793E+03  0.7546771E-02  0.1108606E+00
         21   -1    0    0  503  502  0.00000000000E+00  0.00000000000E+00  0.10747107661E+03  0.10747107661E+03  0.00000000000E+00 0.  1.
         21   -1    0    0  501  503 -0.00000000000E+00 -0.00000000000E+00 -0.62037345393E+03  0.62037345393E+03  0.00000000000E+00 0.  1.
          6    1    1    2  501    0  0.17835561519E+00 -0.19083510870E+03 -0.28186480088E+03  0.38183090040E+03  0.17300000000E+03 0.  1.
         -6    1    1    2    0  502 -0.17835561519E+00  0.19083510870E+03 -0.23103757644E+03  0.34601363015E+03  0.17300000000E+03 0.  1.
<mgrwt>
<rscale>  2 0.25757925E+03</rscale>
<asrwt>0</asrwt>
<pdfrwt beam="1">  1       21 0.16534012E-01 0.25757925E+03</pdfrwt>
<pdfrwt beam="2">  1       21 0.95442070E-01 0.25757925E+03</pdfrwt>
<totfact> 0.29099327E+04</totfact>
</mgrwt>
</event>
<event>
 4    1  0.3901757E+000  0.2492249E+03  0.7546771E-02  0.1113796E+00
         21   -1    0    0  501  502  0.00000000000E+00  0.00000000000E+00  0.22052671396E+02  0.22052671396E+02  0.00000000000E+00 0.  1.
         21   -1    0    0  502  503 -0.00000000000E+00 -0.00000000000E+00 -0.30953302997E+04  0.30953302997E+04  0.00000000000E+00 0. -1.
          6    1    1    2  501    0  0.17814162288E+03  0.21204293801E+02 -0.20043914232E+04  0.20198262394E+04  0.17300000000E+03 0. -1.
         -6    1    1    2    0  503 -0.17814162288E+03 -0.21204293801E+02 -0.10688862051E+04  0.10975567317E+04  0.17300000000E+03 0.  1.
<mgrwt>
<rscale>  2 0.24922492E+03</rscale>
<asrwt>0</asrwt>
<pdfrwt beam="1">  1       21 0.33927185E-02 0.24922492E+03</pdfrwt>
<pdfrwt beam="2">  1       21 0.47620469E+00 0.24922492E+03</pdfrwt>
<totfact> 0.13227460E+03</totfact>
</mgrwt>
</event>
<event>
 4    1  0.3901757E+000  0.2645079E+03  0.7546771E-02  0.1104465E+00
         21   -1    0    0  503  502  0.00000000000E+00  0.00000000000E+00  0.76831281067E+03  0.76831281067E+03  0.00000000000E+00 0.  1.
         21   -1    0    0  501  503 -0.00000000000E+00 -0.00000000000E+00 -0.10136057724E+03  0.10136057724E+03  0.00000000000E+00 0. -1.
          6    1    1    2  501    0 -0.10933728702E+03 -0.16757318287E+03  0.19487342042E+03  0.32854233203E+03  0.17300000000E+03 0. -1.
         -6    1    1    2    0  502  0.10933728702E+03  0.16757318287E+03  0.47207881300E+03  0.54113105588E+03  0.17300000000E+03 0.  1.
<mgrwt>
<rscale>  2 0.26450787E+03</rscale>
<asrwt>0</asrwt>
<pdfrwt beam="1">  1       21 0.11820197E+00 0.26450787E+03</pdfrwt>
<pdfrwt beam="2">  1       21 0.15593935E-01 0.26450787E+03</pdfrwt>
<totfact> 0.19238750E+04</totfact>
</mgrwt>
</event>
<event>
 4    1  0.3901757E+000  0.2265086E+03  0.7546771E-02  0.1129122E+00
         21   -1    0    0  501  502  0.00000000000E+00  0.00000000000E+00  0.67973936336E+02  0.67973936336E+02  0.00000000000E+00 0.  1.
         21   -1    0    0  502  503 -0.00000000000E+00 -0.00000000000E+00 -0.79199389058E+03  0.79199389058E+03  0.00000000000E+00 0.  1.
          6    1    1    2  501    0 -0.15607090770E+02 -0.14537383261E+03 -0.45520187699E+03  0.50844358714E+03  0.17300000000E+03 0.  1.
         -6    1    1    2    0  503  0.15607090770E+02  0.14537383261E+03 -0.26881807726E+03  0.35152423978E+03  0.17300000000E+03 0.  1.
<mgrwt>
<rscale>  2 0.22650857E+03</rscale>
<asrwt>0</asrwt>
<pdfrwt beam="1">  1       21 0.10457528E-01 0.22650857E+03</pdfrwt>
<pdfrwt beam="2">  1       21 0.12184522E+00 0.22650857E+03</pdfrwt>
<totfact> 0.37423992E+04</totfact>
</mgrwt>
</event>
<event>
 4    1  0.3901757E+000  0.1761493E+03  0.7546771E-02  0.1171583E+00
         21   -1    0    0  503  502  0.00000000000E+00  0.00000000000E+00  0.10866034969E+04  0.10866034969E+04  0.00000000000E+00 0.  1.
         21   -1    0    0  501  503 -0.00000000000E+00 -0.00000000000E+00 -0.32013935482E+02  0.32013935482E+02  0.00000000000E+00 0.  1.
          6    1    1    2  501    0  0.20643805073E+02 -0.25949824547E+02  0.71112579256E+03  0.73261753523E+03  0.17300000000E+03 0.  1.
         -6    1    1    2    0  502 -0.20643805073E+02  0.25949824547E+02  0.34346376884E+03  0.38599989714E+03  0.17300000000E+03 0.  1.
<mgrwt>
<rscale>  2 0.17614926E+03</rscale>
<asrwt>0</asrwt>
<pdfrwt beam="1">  1       21 0.16716974E+00 0.17614926E+03</pdfrwt>
<pdfrwt beam="2">  1       21 0.49252217E-02 0.17614926E+03</pdfrwt>
<totfact> 0.62239865E+04</totfact>
</mgrwt>
</event>
<event>
 4    1  0.3901757E+000  0.1794268E+03  0.7546771E-02  0.1168359E+00
         21   -1    0    0  503  502  0.00000000000E+00  0.00000000000E+00  0.26772538370E+02  0.26772538370E+02  0.00000000000E+00 0.  1.
         21   -1    0    0  501  503 -0.00000000000E+00 -0.00000000000E+00 -0.17898252885E+04  0.17898252885E+04  0.00000000000E+00 0.  1.
          6    1    1    2  501    0 -0.25032090871E+01 -0.47525718852E+02 -0.14018374440E+04  0.14132735685E+04  0.17300000000E+03 0.  1.
         -6    1    1    2    0  502  0.25032090871E+01  0.47525718852E+02 -0.36121530609E+03  0.40332425834E+03  0.17300000000E+03 0.  1.
<mgrwt>
<rscale>  2 0.17942675E+03</rscale>
<asrwt>0</asrwt>
<pdfrwt beam="1">  1       21 0.41188522E-02 0.17942675E+03</pdfrwt>
<pdfrwt beam="2">  1       21 0.27535773E+00 0.17942675E+03</pdfrwt>
<totfact> 0.17888279E+04</totfact>
</mgrwt>
</event>
<event>
 4    1  0.3901757E+000  0.1784888E+03  0.7546771E-02  0.1169274E+00
         21   -1    0    0  503  502  0.00000000000E+00  0.00000000000E+00  0.12564722799E+04  0.12564722799E+04  0.00000000000E+00 0. -1.
         21   -1    0    0  501  503 -0.00000000000E+00 -0.00000000000E+00 -0.38693769908E+02  0.38693769908E+02  0.00000000000E+00 0.  1.
          6    1    1    2  501    0 -0.25969602397E+02  0.35423714633E+02  0.22867571837E+03  0.29008764879E+03  0.17300000000E+03 0.  1.
         -6    1    1    2    0  502  0.25969602397E+02 -0.35423714633E+02  0.98910279166E+03  0.10050784011E+04  0.17300000000E+03 0. -1.
<mgrwt>
<rscale>  2 0.17848882E+03</rscale>
<asrwt>0</asrwt>
<pdfrwt beam="1">  1       21 0.19330340E+00 0.17848882E+03</pdfrwt>
<pdfrwt beam="2">  1       21 0.59528886E-02 0.17848882E+03</pdfrwt>
<totfact> 0.29953445E+04</totfact>
</mgrwt>
</event>
<event>
 4    1  0.3901757E+000  0.1837491E+03  0.7546771E-02  0.1164223E+00
         21   -1    0    0  503  502  0.00000000000E+00  0.00000000000E+00  0.14650410574E+04  0.14650410574E+04  0.00000000000E+00 0.  1.
         21   -1    0    0  501  503 -0.00000000000E+00 -0.00000000000E+00 -0.24811004939E+02  0.24811004939E+02  0.00000000000E+00 0.  1.
          6    1    1    2  501    0  0.32715257742E+02  0.52577976336E+02  0.52144574409E+03  0.55287376110E+03  0.17300000000E+03 0.  1.
         -6    1    1    2    0  502 -0.32715257742E+02 -0.52577976336E+02  0.91878430841E+03  0.93697830127E+03  0.17300000000E+03 0.  1.
<mgrwt>
<rscale>  2 0.18374910E+03</rscale>
<asrwt>0</asrwt>
<pdfrwt beam="1">  1       21 0.22539086E+00 0.18374910E+03</pdfrwt>
<pdfrwt beam="2">  1       21 0.38170788E-02 0.18374910E+03</pdfrwt>
<totfact> 0.39784745E+04</totfact>
</mgrwt>
</event>
<event>
 4    1  0.3901757E+000  0.2046427E+03  0.7546771E-02  0.1145880E+00
         21   -1    0    0  501  502  0.00000000000E+00  0.00000000000E+00  0.34853813085E+03  0.34853813085E+03  0.00000000000E+00 0. -1.
         21   -1    0    0  502  503 -0.00000000000E+00 -0.00000000000E+00 -0.14967075910E+03  0.14967075910E+03  0.00000000000E+00 0.  1.
          6    1    1    2  501    0 -0.38266726982E+02 -0.10239761843E+03 -0.11187840574E+02  0.20494824330E+03  0.17300000000E+03 0.  1.
         -6    1    1    2    0  503  0.38266726982E+02  0.10239761843E+03  0.21005521232E+03  0.29326064666E+03  0.17300000000E+03 0.  1.
<mgrwt>
<rscale>  2 0.20464265E+03</rscale>
<asrwt>0</asrwt>
<pdfrwt beam="1">  1       21 0.53621251E-01 0.20464265E+03</pdfrwt>
<pdfrwt beam="2">  1       21 0.23026271E-01 0.20464265E+03</pdfrwt>
<totfact> 0.57954798E+04</totfact>
</mgrwt>
</event>
<event>
 4    1  0.3901757E+000  0.1734955E+03  0.7546771E-02  0.1174251E+00
         21   -1    0    0  501  502  0.00000000000E+00  0.00000000000E+00  0.16570505790E+04  0.16570505790E+04  0.00000000000E+00 0. -1.
         21   -1    0    0  502  503 -0.00000000000E+00 -0.00000000000E+00 -0.18302871488E+02  0.18302871488E+02  0.00000000000E+00 0. -1.
          6    1    1    2  501    0  0.73860937473E+01 -0.10822523588E+02  0.74672749057E+03  0.76661765344E+03  0.17300000000E+03 0. -1.
         -6    1    1    2    0  503 -0.73860937473E+01  0.10822523588E+02  0.89202021699E+03  0.90873579709E+03  0.17300000000E+03 0. -1.
<mgrwt>
<rscale>  2 0.17349548E+03</rscale>
<asrwt>0</asrwt>
<pdfrwt beam="1">  1       21 0.25493074E+00 0.17349548E+03</pdfrwt>
<pdfrwt beam="2">  1       21 0.28158277E-02 0.17349548E+03</pdfrwt>
<totfact> 0.44401459E+04</totfact>
</mgrwt>
</event>
<event>
 4    1  0.3901757E+000  0.1905412E+03  0.7546771E-02  0.1157974E+00
         21   -1    0    0  503  502  0.00000000000E+00  0.00000000000E+00  0.61145674949E+02  0.61145674949E+02  0.00000000000E+00 0.  1.
         21   -1    0    0  501  503 -0.00000000000E+00 -0.00000000000E+00 -0.10198911224E+04  0.10198911224E+04  0.00000000000E+00 0.  1.
          6    1    1    2  501    0 -0.23078853303E+02 -0.76448135216E+02 -0.82875784947E+03  0.85037963516E+03  0.17300000000E+03 0.  1.
         -6    1    1    2    0  502  0.23078853303E+02  0.76448135216E+02 -0.12998759803E+03  0.23065716223E+03  0.17300000000E+03 0.  1.
<mgrwt>
<rscale>  2 0.19054121E+03</rscale>
<asrwt>0</asrwt>
<pdfrwt beam="1">  1       21 0.94070273E-02 0.19054121E+03</pdfrwt>
<pdfrwt beam="2">  1       21 0.15690632E+00 0.19054121E+03</pdfrwt>
<totfact> 0.24007766E+04</totfact>
</mgrwt>
</event>
<event>
 4    1  0.3901757E+000  0.1971227E+03  0.7546771E-02  0.1152190E+00
         21   -1    0    0  503  502  0.00000000000E+00  0.00000000000E+00  0.41770698395E+03  0.41770698395E+03  0.00000000000E+00 0. -1.
         21   -1    0    0  501  503 -0.00000000000E+00 -0.00000000000E+00 -0.11287180767E+03  0.11287180767E+03  0.00000000000E+00 0. -1.
          6    1    1    2  501    0 -0.28784045080E+02 -0.89999051239E+02  0.26365947193E+03  0.32920156077E+03  0.17300000000E+03 0.  1.
         -6    1    1    2    0  502  0.28784045080E+02  0.89999051239E+02  0.41175704353E+02  0.20137723085E+03  0.17300000000E+03 0.  1.
<mgrwt>
<rscale>  2 0.19712268E+03</rscale>
<asrwt>0</asrwt>
<pdfrwt beam="1">  1       21 0.64262612E-01 0.19712268E+03</pdfrwt>
<pdfrwt beam="2">  1       21 0.17364894E-01 0.19712268E+03</pdfrwt>
<totfact> 0.66892419E+04</totfact>
</mgrwt>
</event>
<event>
 4    1  0.3901757E+000  0.3316272E+03  0.7546771E-02  0.1070419E+00
         21   -1    0    0  501  502  0.00000000000E+00  0.00000000000E+00  0.29487598811E+03  0.29487598811E+03  0.00000000000E+00 0. -1.
         21   -1    0    0  502  503 -0.00000000000E+00 -0.00000000000E+00 -0.64435383613E+03  0.64435383613E+03  0.00000000000E+00 0.  1.
          6    1    1    2  501    0 -0.12903486498E+03  0.25178882573E+03  0.13003694663E+03  0.35621091594E+03  0.17300000000E+03 0. -1.
         -6    1    1    2    0  503  0.12903486498E+03 -0.25178882573E+03 -0.47951479465E+03  0.58301890830E+03  0.17300000000E+03 0.  1.
<mgrwt>
<rscale>  2 0.33162721E+03</rscale>
<asrwt>0</asrwt>
<pdfrwt beam="1">  1       21 0.45365537E-01 0.33162721E+03</pdfrwt>
<pdfrwt beam="2">  1       21 0.99131358E-01 0.33162721E+03</pdfrwt>
<totfact> 0.35747056E+03</totfact>
</mgrwt>
</event>
<event>
 4    1  0.3901757E+000  0.2945005E+03  0.7546771E-02  0.1088023E+00
         21   -1    0    0  501  502  0.00000000000E+00  0.00000000000E+00  0.22821380129E+03  0.22821380129E+03  0.00000000000E+00 0. -1.
         21   -1    0    0  502  503 -0.00000000000E+00 -0.00000000000E+00 -0.48004118725E+03  0.48004118725E+03  0.00000000000E+00 0. -1.
          6    1    1    2  501    0  0.70039422425E+02 -0.22780697353E+03  0.35716095827E+02  0.29665835128E+03  0.17300000000E+03 0. -1.
         -6    1    1    2    0  503 -0.70039422425E+02  0.22780697353E+03 -0.28754348179E+03  0.41159663726E+03  0.17300000000E+03 0. -1.
<mgrwt>
<rscale>  2 0.29450049E+03</rscale>
<asrwt>0</asrwt>
<pdfrwt beam="1">  1       21 0.35109816E-01 0.29450049E+03</pdfrwt>
<pdfrwt beam="2">  1       21 0.73852490E-01 0.29450049E+03</pdfrwt>
<totfact> 0.12166098E+04</totfact>
</mgrwt>
</event>
<event>
 4    1  0.3901757E+000  0.1825552E+03  0.7546771E-02  0.1165353E+00
         21   -1    0    0  501  502  0.00000000000E+00  0.00000000000E+00  0.50591262467E+02  0.50591262467E+02  0.00000000000E+00 0. -1.
         21   -1    0    0  502  503 -0.00000000000E+00 -0.00000000000E+00 -0.12060474510E+04  0.12060474510E+04  0.00000000000E+00 0. -1.
          6    1    1    2  501    0  0.27562131399E+02  0.51358994987E+02 -0.15446102884E+03  0.23913307359E+03  0.17300000000E+03 0. -1.
         -6    1    1    2    0  503 -0.27562131399E+02 -0.51358994987E+02 -0.10009951597E+04  0.10175056399E+04  0.17300000000E+03 0. -1.
<mgrwt>
<rscale>  2 0.18255524E+03</rscale>
<asrwt>0</asrwt>
<pdfrwt beam="1">  1       21 0.77832718E-02 0.18255524E+03</pdfrwt>
<pdfrwt beam="2">  1       21 0.18554575E+00 0.18255524E+03</pdfrwt>
<totfact> 0.21170373E+04</totfact>
</mgrwt>
</event>
<event>
 4    1  0.3901757E+000  0.1808393E+03  0.7546771E-02  0.1166993E+00
         21   -1    0    0  501  502  0.00000000000E+00  0.00000000000E+00  0.90892181615E+02  0.90892181615E+02  0.00000000000E+00 0. -1.
         21   -1    0    0  502  503 -0.00000000000E+00 -0.00000000000E+00 -0.39394523092E+03  0.39394523092E+03  0.00000000000E+00 0. -1.
          6    1    1    2  501    0 -0.10214861763E+02 -0.51667245527E+02 -0.80155098158E+02  0.19780719760E+03  0.17300000000E+03 0. -1.
         -6    1    1    2    0  503  0.10214861763E+02  0.51667245527E+02 -0.22289795115E+03  0.28703021494E+03  0.17300000000E+03 0. -1.
<mgrwt>
<rscale>  2 0.18083929E+03</rscale>
<asrwt>0</asrwt>
<pdfrwt beam="1">  1       21 0.13983413E-01 0.18083929E+03</pdfrwt>
<pdfrwt beam="2">  1       21 0.60606959E-01 0.18083929E+03</pdfrwt>
<totfact> 0.11348216E+05</totfact>
</mgrwt>
</event>
<event>
 4    1  0.3901757E+000  0.5232575E+03  0.7546771E-02  0.1007881E+00
         21   -1    0    0  501  502  0.00000000000E+00  0.00000000000E+00  0.11356520518E+04  0.11356520518E+04  0.00000000000E+00 0. -1.
         21   -1    0    0  502  503 -0.00000000000E+00 -0.00000000000E+00 -0.25366230440E+03  0.25366230440E+03  0.00000000000E+00 0.  1.
          6    1    1    2  501    0 -0.46336667376E+03 -0.17076529303E+03  0.28636708638E+03  0.59649356058E+03  0.17300000000E+03 0.  1.
         -6    1    1    2    0  503  0.46336667376E+03  0.17076529303E+03  0.59562266105E+03  0.79282079565E+03  0.17300000000E+03 0. -1.
<mgrwt>
<rscale>  2 0.52325755E+03</rscale>
<asrwt>0</asrwt>
<pdfrwt beam="1">  1       21 0.17471570E+00 0.52325755E+03</pdfrwt>
<pdfrwt beam="2">  1       21 0.39024971E-01 0.52325755E+03</pdfrwt>
<totfact> 0.10222713E+03</totfact>
</mgrwt>
</event>
<event>
 4    1  0.3901757E+000  0.2345674E+03  0.7546771E-02  0.1123466E+00
         21   -1    0    0  503  502  0.00000000000E+00  0.00000000000E+00  0.39096729127E+03  0.39096729127E+03  0.00000000000E+00 0.  1.
         21   -1    0    0  501  503 -0.00000000000E+00 -0.00000000000E+00 -0.26255339709E+03  0.26255339709E+03  0.00000000000E+00 0.  1.
          6    1    1    2  501    0 -0.30365302358E+02  0.15546964488E+03 -0.15837050022E+03  0.28302487065E+03  0.17300000000E+03 0.  1.
         -6    1    1    2    0  502  0.30365302358E+02 -0.15546964488E+03  0.28678439440E+03  0.37049581770E+03  0.17300000000E+03 0.  1.
<mgrwt>
<rscale>  2 0.23456739E+03</rscale>
<asrwt>0</asrwt>
<pdfrwt beam="1">  1       21 0.60148814E-01 0.23456739E+03</pdfrwt>
<pdfrwt beam="2">  1       21 0.40392830E-01 0.23456739E+03</pdfrwt>
<totfact> 0.14843573E+04</totfact>
</mgrwt>
</event>
<event>
 4    1  0.3901757E+000  0.1873228E+03  0.7546771E-02  0.1160898E+00
         21   -1    0    0  501  502  0.00000000000E+00  0.00000000000E+00  0.71114765713E+03  0.71114765713E+03  0.00000000000E+00 0.  1.
         21   -1    0    0  502  503 -0.00000000000E+00 -0.00000000000E+00 -0.63248711055E+02  0.63248711055E+02  0.00000000000E+00 0. -1.
          6    1    1    2  501    0  0.70450125520E+02  0.14056790261E+02  0.50550591158E+03  0.53909743106E+03  0.17300000000E+03 0.  1.
         -6    1    1    2    0  503 -0.70450125520E+02 -0.14056790261E+02  0.14239303450E+03  0.23529893713E+03  0.17300000000E+03 0. -1.
<mgrwt>
<rscale>  2 0.18732275E+03</rscale>
<asrwt>0</asrwt>
<pdfrwt beam="1">  1       21 0.10940733E+00 0.18732275E+03</pdfrwt>
<pdfrwt beam="2">  1       21 0.97305715E-02 0.18732275E+03</pdfrwt>
<totfact> 0.56492515E+04</totfact>
</mgrwt>
</event>
<event>
 4    1  0.3901757E+000  0.1775260E+03  0.7546771E-02  0.1170219E+00
         21   -1    0    0  501  502  0.00000000000E+00  0.00000000000E+00  0.19204179762E+03  0.19204179762E+03  0.00000000000E+00 0. -1.
         21   -1    0    0  502  503 -0.00000000000E+00 -0.00000000000E+00 -0.23917756419E+03  0.23917756419E+03  0.00000000000E+00 0. -1.
          6    1    1    2  501    0 -0.27082759525E+02 -0.29206493829E+02  0.97225040575E+02  0.20240603662E+03  0.17300000000E+03 0. -1.
         -6    1    1    2    0  503  0.27082759525E+02  0.29206493829E+02 -0.14436080714E+03  0.22881332519E+03  0.17300000000E+03 0. -1.
<mgrwt>
<rscale>  2 0.17752604E+03</rscale>
<asrwt>0</asrwt>
<pdfrwt beam="1">  1       21 0.29544892E-01 0.17752604E+03</pdfrwt>
<pdfrwt beam="2">  1       21 0.36796548E-01 0.17752604E+03</pdfrwt>
<totfact> 0.78682914E+04</totfact>
</mgrwt>
</event>
<event>
 4    1  0.3901757E+000  0.1924765E+03  0.7546771E-02  0.1156246E+00
         21   -1    0    0  503  502  0.00000000000E+00  0.00000000000E+00  0.87350057879E+02  0.87350057879E+02  0.00000000000E+00 0. -1.
         21   -1    0    0  501  503 -0.00000000000E+00 -0.00000000000E+00 -0.44685213785E+03  0.44685213785E+03  0.00000000000E+00 0. -1.
          6    1    1    2  501    0 -0.54374848867E+02  0.64510352538E+02 -0.23999045293E+03  0.30764041878E+03  0.17300000000E+03 0. -1.
         -6    1    1    2    0  502  0.54374848867E+02 -0.64510352538E+02 -0.11951162704E+03  0.22656177694E+03  0.17300000000E+03 0. -1.
<mgrwt>
<rscale>  2 0.19247652E+03</rscale>
<asrwt>0</asrwt>
<pdfrwt beam="1">  1       21 0.13438470E-01 0.19247652E+03</pdfrwt>
<pdfrwt beam="2">  1       21 0.68746482E-01 0.19247652E+03</pdfrwt>
<totfact> 0.92329210E+04</totfact>
</mgrwt>
</event>
<event>
 4    1  0.3901757E+000  0.1885485E+03  0.7546771E-02  0.1159777E+00
         21   -1    0    0  503  502  0.00000000000E+00  0.00000000000E+00  0.37254518660E+03  0.37254518660E+03  0.00000000000E+00 0. -1.
         21   -1    0    0  501  503 -0.00000000000E+00 -0.00000000000E+00 -0.12876006370E+03  0.12876006370E+03  0.00000000000E+00 0. -1.
          6    1    1    2  501    0  0.74904979547E+02  0.32841839709E+01 -0.56411540330E+01  0.18863288272E+03  0.17300000000E+03 0. -1.
         -6    1    1    2    0  502 -0.74904979547E+02 -0.32841839709E+01  0.24942627692E+03  0.31267236758E+03  0.17300000000E+03 0. -1.
<mgrwt>
<rscale>  2 0.18854851E+03</rscale>
<asrwt>0</asrwt>
<pdfrwt beam="1">  1       21 0.57314644E-01 0.18854851E+03</pdfrwt>
<pdfrwt beam="2">  1       21 0.19809241E-01 0.18854851E+03</pdfrwt>
<totfact> 0.67279004E+04</totfact>
</mgrwt>
</event>
<event>
 4    1  0.3901757E+000  0.2734834E+03  0.7546771E-02  0.1099302E+00
         21   -1    0    0  501  502  0.00000000000E+00  0.00000000000E+00  0.12908938117E+04  0.12908938117E+04  0.00000000000E+00 0. -1.
         21   -1    0    0  502  503 -0.00000000000E+00 -0.00000000000E+00 -0.87467174176E+02  0.87467174176E+02  0.00000000000E+00 0.  1.
          6    1    1    2  501    0  0.20157509965E+03  0.65051232362E+02  0.10021448145E+04  0.10387913230E+04  0.17300000000E+03 0. -1.
         -6    1    1    2    0  503 -0.20157509965E+03 -0.65051232362E+02  0.20128182304E+03  0.33956966283E+03  0.17300000000E+03 0.  1.
<mgrwt>
<rscale>  2 0.27348342E+03</rscale>
<asrwt>0</asrwt>
<pdfrwt beam="1">  1       21 0.19859903E+00 0.27348342E+03</pdfrwt>
<pdfrwt beam="2">  1       21 0.13456489E-01 0.27348342E+03</pdfrwt>
<totfact> 0.61546774E+03</totfact>
</mgrwt>
</event>
<event>
 4    1  0.3901757E+000  0.2605238E+03  0.7546771E-02  0.1106829E+00
         21   -1    0    0  501  502  0.00000000000E+00  0.00000000000E+00  0.68706868383E+03  0.68706868383E+03  0.00000000000E+00 0.  1.
         21   -1    0    0  502  503 -0.00000000000E+00 -0.00000000000E+00 -0.31292349571E+03  0.31292349571E+03  0.00000000000E+00 0. -1.
          6    1    1    2  501    0  0.19415993681E+03  0.15670814607E+02  0.60068546578E+03  0.65474856571E+03  0.17300000000E+03 0.  1.
         -6    1    1    2    0  503 -0.19415993681E+03 -0.15670814607E+02 -0.22654027766E+03  0.34524361384E+03  0.17300000000E+03 0. -1.
<mgrwt>
<rscale>  2 0.26052381E+03</rscale>
<asrwt>0</asrwt>
<pdfrwt beam="1">  1       21 0.10570287E+00 0.26052381E+03</pdfrwt>
<pdfrwt beam="2">  1       21 0.48142076E-01 0.26052381E+03</pdfrwt>
<totfact> 0.28145961E+03</totfact>
</mgrwt>
</event>
<event>
 4    1  0.3901757E+000  0.1945276E+03  0.7546771E-02  0.1154440E+00
         21   -1    0    0  503  502  0.00000000000E+00  0.00000000000E+00  0.24705342366E+03  0.24705342366E+03  0.00000000000E+00 0.  1.
         21   -1    0    0  501  503 -0.00000000000E+00 -0.00000000000E+00 -0.21094484992E+03  0.21094484992E+03  0.00000000000E+00 0.  1.
          6    1    1    2  501    0  0.56845385740E+02 -0.68414824368E+02 -0.10179118705E+03  0.21955052228E+03  0.17300000000E+03 0.  1.
         -6    1    1    2    0  502 -0.56845385740E+02  0.68414824368E+02  0.13789976079E+03  0.23844775130E+03  0.17300000000E+03 0.  1.
<mgrwt>
<rscale>  2 0.19452760E+03</rscale>
<asrwt>0</asrwt>
<pdfrwt beam="1">  1       21 0.38008219E-01 0.19452760E+03</pdfrwt>
<pdfrwt beam="2">  1       21 0.32453054E-01 0.19452760E+03</pdfrwt>
<totfact> 0.60941903E+04</totfact>
</mgrwt>
</event>
<event>
 4    1  0.3901757E+000  0.1767147E+03  0.7546771E-02  0.1171021E+00
         21   -1    0    0  501  502  0.00000000000E+00  0.00000000000E+00  0.42705980888E+03  0.42705980888E+03  0.00000000000E+00 0.  1.
         21   -1    0    0  502  503 -0.00000000000E+00 -0.00000000000E+00 -0.21469250488E+03  0.21469250488E+03  0.00000000000E+00 0. -1.
          6    1    1    2  501    0 -0.27103781405E+02  0.23758389932E+02  0.36674693054E+03  0.40710120009E+03  0.17300000000E+03 0.  1.
         -6    1    1    2    0  503  0.27103781405E+02 -0.23758389932E+02 -0.15437962653E+03  0.23465111367E+03  0.17300000000E+03 0. -1.
<mgrwt>
<rscale>  2 0.17671467E+03</rscale>
<asrwt>0</asrwt>
<pdfrwt beam="1">  1       21 0.65701509E-01 0.17671467E+03</pdfrwt>
<pdfrwt beam="2">  1       21 0.33029616E-01 0.17671467E+03</pdfrwt>
<totfact> 0.18973307E+04</totfact>
</mgrwt>
</event>
<event>
 4    1  0.3901757E+000  0.1943775E+03  0.7546771E-02  0.1154571E+00
         21   -1    0    0  501  502  0.00000000000E+00  0.00000000000E+00  0.19910685984E+04  0.19910685984E+04  0.00000000000E+00 0.  1.
         21   -1    0    0  502  503 -0.00000000000E+00 -0.00000000000E+00 -0.62904373933E+02  0.62904373933E+02  0.00000000000E+00 0. -1.
          6    1    1    2  501    0 -0.23128282101E+02  0.85549470370E+02  0.18222980856E+04  0.18326355180E+04  0.17300000000E+03 0.  1.
         -6    1    1    2    0  503  0.23128282101E+02 -0.85549470370E+02  0.10586613893E+03  0.22133745432E+03  0.17300000000E+03 0. -1.
<mgrwt>
<rscale>  2 0.19437754E+03</rscale>
<asrwt>0</asrwt>
<pdfrwt beam="1">  1       21 0.30631820E+00 0.19437754E+03</pdfrwt>
<pdfrwt beam="2">  1       21 0.96775975E-02 0.19437754E+03</pdfrwt>
<totfact> 0.26931470E+03</totfact>
</mgrwt>
</event>
<event>
 4    1  0.3901757E+000  0.2153177E+03  0.7546771E-02  0.1137423E+00
         21   -1    0    0  501  502  0.00000000000E+00  0.00000000000E+00  0.42932705877E+03  0.42932705877E+03  0.00000000000E+00 0.  1.
         21   -1    0    0  502  503 -0.00000000000E+00 -0.00000000000E+00 -0.13299251402E+03  0.13299251402E+03  0.00000000000E+00 0.  1.
          6    1    1    2  501    0  0.74538278660E+02 -0.10429165105E+03  0.27008258628E+03  0.34540745052E+03  0.17300000000E+03 0.  1.
         -6    1    1    2    0  503 -0.74538278660E+02  0.10429165105E+03  0.26251958463E+02  0.21691212227E+03  0.17300000000E+03 0.  1.
<mgrwt>
<rscale>  2 0.21531768E+03</rscale>
<asrwt>0</asrwt>
<pdfrwt beam="1">  1       21 0.66050316E-01 0.21531768E+03</pdfrwt>
<pdfrwt beam="2">  1       21 0.20460387E-01 0.21531768E+03</pdfrwt>
<totfact> 0.46040559E+04</totfact>
</mgrwt>
</event>
<event>
 4    1  0.3901757E+000  0.2261887E+03  0.7546771E-02  0.1129351E+00
         21   -1    0    0  501  502  0.00000000000E+00  0.00000000000E+00  0.77606301138E+03  0.77606301138E+03  0.00000000000E+00 0. -1.
         21   -1    0    0  502  503 -0.00000000000E+00 -0.00000000000E+00 -0.29398098065E+03  0.29398098065E+03  0.00000000000E+00 0. -1.
          6    1    1    2  501    0  0.14554431363E+03 -0.70129370234E+01  0.71227165476E+03  0.74732338294E+03  0.17300000000E+03 0. -1.
         -6    1    1    2    0  503 -0.14554431363E+03  0.70129370234E+01 -0.23018962404E+03  0.32272060909E+03  0.17300000000E+03 0. -1.
<mgrwt>
<rscale>  2 0.22618870E+03</rscale>
<asrwt>0</asrwt>
<pdfrwt beam="1">  1       21 0.11939431E+00 0.22618870E+03</pdfrwt>
<pdfrwt beam="2">  1       21 0.45227843E-01 0.22618870E+03</pdfrwt>
<totfact> 0.24372740E+03</totfact>
</mgrwt>
</event>
<event>
 4    1  0.3901757E+000  0.2114172E+03  0.7546771E-02  0.1140449E+00
         21   -1    0    0  501  502  0.00000000000E+00  0.00000000000E+00  0.55001126344E+02  0.55001126344E+02  0.00000000000E+00 0. -1.
         21   -1    0    0  502  503 -0.00000000000E+00 -0.00000000000E+00 -0.92320015679E+03  0.92320015679E+03  0.00000000000E+00 0. -1.
          6    1    1    2  501    0  0.11774964378E+03 -0.30054410791E+02 -0.26485709286E+03  0.33889013833E+03  0.17300000000E+03 0. -1.
         -6    1    1    2    0  503 -0.11774964378E+03  0.30054410791E+02 -0.60334193759E+03  0.63931114480E+03  0.17300000000E+03 0. -1.
<mgrwt>
<rscale>  2 0.21141723E+03</rscale>
<asrwt>0</asrwt>
<pdfrwt beam="1">  1       21 0.84617120E-02 0.21141723E+03</pdfrwt>
<pdfrwt beam="2">  1       21 0.14203079E+00 0.21141723E+03</pdfrwt>
<totfact> 0.37104149E+04</totfact>
</mgrwt>
</event>
<event>
 4    1  0.3901757E+000  0.2324896E+03  0.7546771E-02  0.1124900E+00
         21   -1    0    0  501  502  0.00000000000E+00  0.00000000000E+00  0.12212709013E+03  0.12212709013E+03  0.00000000000E+00 0. -1.
         21   -1    0    0  502  503 -0.00000000000E+00 -0.00000000000E+00 -0.85349094428E+03  0.85349094428E+03  0.00000000000E+00 0. -1.
          6    1    1    2  501    0 -0.15316263663E+03  0.25760449273E+02 -0.27210083199E+02  0.23407644613E+03  0.17300000000E+03 0. -1.
         -6    1    1    2    0  503  0.15316263663E+03 -0.25760449273E+02 -0.70415377095E+03  0.74154158828E+03  0.17300000000E+03 0. -1.
<mgrwt>
<rscale>  2 0.23248956E+03</rscale>
<asrwt>0</asrwt>
<pdfrwt beam="1">  1       21 0.18788783E-01 0.23248956E+03</pdfrwt>
<pdfrwt beam="2">  1       21 0.13130630E+00 0.23248956E+03</pdfrwt>
<totfact> 0.10635475E+04</totfact>
</mgrwt>
</event>
<event>
 4    1  0.3901757E+000  0.2433819E+03  0.7546771E-02  0.1117560E+00
         21   -1    0    0  503  502  0.00000000000E+00  0.00000000000E+00  0.13874101781E+03  0.13874101781E+03  0.00000000000E+00 0. -1.
         21   -1    0    0  501  503 -0.00000000000E+00 -0.00000000000E+00 -0.42788132578E+03  0.42788132578E+03  0.00000000000E+00 0.  1.
          6    1    1    2  501    0 -0.13621758193E+03  0.10368466123E+03 -0.15782550243E+03  0.29007521062E+03  0.17300000000E+03 0. -1.
         -6    1    1    2    0  502  0.13621758193E+03 -0.10368466123E+03 -0.13131480554E+03  0.27654713297E+03  0.17300000000E+03 0.  1.
<mgrwt>
<rscale>  2 0.24338188E+03</rscale>
<asrwt>0</asrwt>
<pdfrwt beam="1">  1       21 0.21344772E-01 0.24338188E+03</pdfrwt>
<pdfrwt beam="2">  1       21 0.65827895E-01 0.24338188E+03</pdfrwt>
<totfact> 0.42294436E+04</totfact>
</mgrwt>
</event>
<event>
 4    1  0.3901757E+000  0.2329603E+03  0.7546771E-02  0.1124573E+00
         21   -1    0    0  501  502  0.00000000000E+00  0.00000000000E+00  0.33620109486E+03  0.33620109486E+03  0.00000000000E+00 0.  1.
         21   -1    0    0  502  503 -0.00000000000E+00 -0.00000000000E+00 -0.17441808411E+03  0.17441808411E+03  0.00000000000E+00 0.  1.
          6    1    1    2  501    0  0.15512928556E+03  0.16625669980E+02  0.15058062117E+03  0.27738967467E+03  0.17300000000E+03 0.  1.
         -6    1    1    2    0  503 -0.15512928556E+03 -0.16625669980E+02  0.11202389580E+02  0.23322950430E+03  0.17300000000E+03 0.  1.
<mgrwt>
<rscale>  2 0.23296031E+03</rscale>
<asrwt>0</asrwt>
<pdfrwt beam="1">  1       21 0.51723245E-01 0.23296031E+03</pdfrwt>
<pdfrwt beam="2">  1       21 0.26833551E-01 0.23296031E+03</pdfrwt>
<totfact> 0.46065832E+04</totfact>
</mgrwt>
</event>
<event>
 4    1  0.3901757E+000  0.3130298E+03  0.7546771E-02  0.1078903E+00
         21   -1    0    0  501  502  0.00000000000E+00  0.00000000000E+00  0.49540789093E+03  0.49540789093E+03  0.00000000000E+00 0. -1.
         21   -1    0    0  502  503 -0.00000000000E+00 -0.00000000000E+00 -0.44932904609E+03  0.44932904609E+03  0.00000000000E+00 0.  1.
          6    1    1    2  501    0  0.22278926704E+03 -0.13573365680E+03  0.37646639564E+03  0.48960660754E+03  0.17300000000E+03 0. -1.
         -6    1    1    2    0  503 -0.22278926704E+03  0.13573365680E+03 -0.33038755080E+03  0.45513032949E+03  0.17300000000E+03 0.  1.
<mgrwt>
<rscale>  2 0.31302984E+03</rscale>
<asrwt>0</asrwt>
<pdfrwt beam="1">  1       21 0.76216599E-01 0.31302984E+03</pdfrwt>
<pdfrwt beam="2">  1       21 0.69127546E-01 0.31302984E+03</pdfrwt>
<totfact> 0.26916857E+03</totfact>
</mgrwt>
</event>
<event>
 4    1  0.3901757E+000  0.1796812E+03  0.7546771E-02  0.1168112E+00
         21   -1    0    0  501  502  0.00000000000E+00  0.00000000000E+00  0.20189152508E+03  0.20189152508E+03  0.00000000000E+00 0.  1.
         21   -1    0    0  502  503 -0.00000000000E+00 -0.00000000000E+00 -0.20954114889E+03  0.20954114889E+03  0.00000000000E+00 0.  1.
          6    1    1    2  501    0  0.24114193783E+01 -0.48482149422E+02  0.96288689080E+02  0.20385496168E+03  0.17300000000E+03 0.  1.
         -6    1    1    2    0  503 -0.24114193783E+01  0.48482149422E+02 -0.10393831288E+03  0.20757771229E+03  0.17300000000E+03 0.  1.
<mgrwt>
<rscale>  2 0.17968120E+03</rscale>
<asrwt>0</asrwt>
<pdfrwt beam="1">  1       21 0.31060235E-01 0.17968120E+03</pdfrwt>
<pdfrwt beam="2">  1       21 0.32237100E-01 0.17968120E+03</pdfrwt>
<totfact> 0.92638786E+04</totfact>
</mgrwt>
</event>
<event>
 4    1  0.3901757E+000  0.1995697E+03  0.7546771E-02  0.1150103E+00
         21   -1    0    0  501  502  0.00000000000E+00  0.00000000000E+00  0.18167960055E+04  0.18167960055E+04  0.00000000000E+00 0. -1.
         21   -1    0    0  502  503 -0.00000000000E+00 -0.00000000000E+00 -0.27793287981E+02  0.27793287981E+02  0.00000000000E+00 0. -1.
          6    1    1    2  501    0  0.82566773704E+02  0.55513731976E+02  0.13183994272E+04  0.13334185750E+04  0.17300000000E+03 0. -1.
         -6    1    1    2    0  503 -0.82566773704E+02 -0.55513731976E+02  0.47060329034E+03  0.51117071849E+03  0.17300000000E+03 0. -1.
<mgrwt>
<rscale>  2 0.19956965E+03</rscale>
<asrwt>0</asrwt>
<pdfrwt beam="1">  1       21 0.27950698E+00 0.19956965E+03</pdfrwt>
<pdfrwt beam="2">  1       21 0.42758919E-02 0.19956965E+03</pdfrwt>
<totfact> 0.15588210E+04</totfact>
</mgrwt>
</event>
<event>
 4    1  0.3901757E+000  0.5840129E+03  0.7546771E-02  0.9939141E-01
         21   -1    0    0  501  502  0.00000000000E+00  0.00000000000E+00  0.69465857553E+03  0.69465857553E+03  0.00000000000E+00 0.  1.
         21   -1    0    0  502  503 -0.00000000000E+00 -0.00000000000E+00 -0.54747206241E+03  0.54747206241E+03  0.00000000000E+00 0. -1.
          6    1    1    2  501    0  0.14541560105E+03 -0.53851310752E+03  0.27307721301E+03  0.64470320944E+03  0.17300000000E+03 0.  1.
         -6    1    1    2    0  503 -0.14541560105E+03  0.53851310752E+03 -0.12589069990E+03  0.59742742849E+03  0.17300000000E+03 0. -1.
<mgrwt>
<rscale>  2 0.58401290E+03</rscale>
<asrwt>0</asrwt>
<pdfrwt beam="1">  1       21 0.10687055E+00 0.58401290E+03</pdfrwt>
<pdfrwt beam="2">  1       21 0.84226471E-01 0.58401290E+03</pdfrwt>
<totfact> 0.68752225E+02</totfact>
</mgrwt>
</event>
<event>
 4    1  0.3901757E+000  0.1739972E+03  0.7546771E-02  0.1173742E+00
         21   -1    0    0  501  502  0.00000000000E+00  0.00000000000E+00  0.26321446637E+03  0.26321446637E+03  0.00000000000E+00 0. -1.
         21   -1    0    0  502  503 -0.00000000000E+00 -0.00000000000E+00 -0.14873239324E+03  0.14873239324E+03  0.00000000000E+00 0. -1.
          6    1    1    2  501    0  0.12355291990E+02 -0.13906312217E+02  0.15530298032E+03  0.23322532979E+03  0.17300000000E+03 0. -1.
         -6    1    1    2    0  503 -0.12355291990E+02  0.13906312217E+02 -0.40820907186E+02  0.17872152983E+03  0.17300000000E+03 0. -1.
<mgrwt>
<rscale>  2 0.17399724E+03</rscale>
<asrwt>0</asrwt>
<pdfrwt beam="1">  1       21 0.40494533E-01 0.17399724E+03</pdfrwt>
<pdfrwt beam="2">  1       21 0.22881907E-01 0.17399724E+03</pdfrwt>
<totfact> 0.10604060E+05</totfact>
</mgrwt>
</event>
<event>
 4    1  0.3901757E+000  0.1743619E+03  0.7546771E-02  0.1173374E+00
         21   -1    0    0  501  502  0.00000000000E+00  0.00000000000E+00  0.10339750380E+04  0.10339750380E+04  0.00000000000E+00 0.  1.
         21   -1    0    0  502  503 -0.00000000000E+00 -0.00000000000E+00 -0.20704192313E+03  0.20704192313E+03  0.00000000000E+00 0.  1.
          6    1    1    2  501    0  0.60183270388E+01  0.20900847612E+02  0.98822786669E+03  0.10034920937E+04  0.17300000000E+03 0.  1.
         -6    1    1    2    0  503 -0.60183270388E+01 -0.20900847612E+02 -0.16129475178E+03  0.23752486742E+03  0.17300000000E+03 0.  1.
<mgrwt>
<rscale>  2 0.17436188E+03</rscale>
<asrwt>0</asrwt>
<pdfrwt beam="1">  1       21 0.15907308E+00 0.17436188E+03</pdfrwt>
<pdfrwt beam="2">  1       21 0.31852604E-01 0.17436188E+03</pdfrwt>
<totfact> 0.24670629E+03</totfact>
</mgrwt>
</event>
<event>
 4    1  0.3901757E+000  0.1944389E+03  0.7546771E-02  0.1154518E+00
         21   -1    0    0  503  502  0.00000000000E+00  0.00000000000E+00  0.20466165477E+03  0.20466165477E+03  0.00000000000E+00 0.  1.
         21   -1    0    0  501  503 -0.00000000000E+00 -0.00000000000E+00 -0.21463239890E+03  0.21463239890E+03  0.00000000000E+00 0. -1.
          6    1    1    2  501    0 -0.44516770134E+02  0.76783839763E+02 -0.83241260330E+02  0.21150793908E+03  0.17300000000E+03 0. -1.
         -6    1    1    2    0  502  0.44516770134E+02 -0.76783839763E+02  0.73270516204E+02  0.20778611459E+03  0.17300000000E+03 0.  1.
<mgrwt>
<rscale>  2 0.19443894E+03</rscale>
<asrwt>0</asrwt>
<pdfrwt beam="1">  1       21 0.31486409E-01 0.19443894E+03</pdfrwt>
<pdfrwt beam="2">  1       21 0.33020369E-01 0.19443894E+03</pdfrwt>
<totfact> 0.85547623E+04</totfact>
</mgrwt>
</event>
<event>
 4    1  0.3901757E+000  0.1761438E+03  0.7546771E-02  0.1171588E+00
         21   -1    0    0  501  502  0.00000000000E+00  0.00000000000E+00  0.49059341140E+03  0.49059341140E+03  0.00000000000E+00 0. -1.
         21   -1    0    0  502  503 -0.00000000000E+00 -0.00000000000E+00 -0.65122789936E+02  0.65122789936E+02  0.00000000000E+00 0. -1.
          6    1    1    2  501    0 -0.14881583285E+02  0.29600383145E+02  0.16552894058E+03  0.24171568914E+03  0.17300000000E+03 0. -1.
         -6    1    1    2    0  503  0.14881583285E+02 -0.29600383145E+02  0.25994168088E+03  0.31400051220E+03  0.17300000000E+03 0. -1.
<mgrwt>
<rscale>  2 0.17614382E+03</rscale>
<asrwt>0</asrwt>
<pdfrwt beam="1">  1       21 0.75475907E-01 0.17614382E+03</pdfrwt>
<pdfrwt beam="2">  1       21 0.10018891E-01 0.17614382E+03</pdfrwt>
<totfact> 0.12754176E+05</totfact>
</mgrwt>
</event>
<event>
 4    1  0.3901757E+000  0.1869652E+03  0.7546771E-02  0.1161227E+00
         21   -1    0    0  503  502  0.00000000000E+00  0.00000000000E+00  0.12306736835E+03  0.12306736835E+03  0.00000000000E+00 0. -1.
         21   -1    0    0  501  503 -0.00000000000E+00 -0.00000000000E+00 -0.11465371156E+04  0.11465371156E+04  0.00000000000E+00 0. -1.
          6    1    1    2  501    0  0.67119947999E+02  0.22845029347E+02 -0.10623185950E+04  0.10786458085E+04  0.17300000000E+03 0. -1.
         -6    1    1    2    0  502 -0.67119947999E+02 -0.22845029347E+02  0.38848847742E+02  0.19095867552E+03  0.17300000000E+03 0. -1.
<mgrwt>
<rscale>  2 0.18696519E+03</rscale>
<asrwt>0</asrwt>
<pdfrwt beam="1">  1       21 0.18933441E-01 0.18696519E+03</pdfrwt>
<pdfrwt beam="2">  1       21 0.17639032E+00 0.18696519E+03</pdfrwt>
<totfact> 0.49492553E+03</totfact>
</mgrwt>
</event>
<event>
 4    1  0.3901757E+000  0.2230782E+03  0.7546771E-02  0.1131609E+00
         21   -1    0    0  501  502  0.00000000000E+00  0.00000000000E+00  0.67791738401E+02  0.67791738401E+02  0.00000000000E+00 0. -1.
         21   -1    0    0  502  503 -0.00000000000E+00 -0.00000000000E+00 -0.89262923454E+03  0.89262923454E+03  0.00000000000E+00 0. -1.
          6    1    1    2  501    0  0.13222440086E+03 -0.48493060125E+02 -0.61481017210E+03  0.65403013446E+03  0.17300000000E+03 0. -1.
         -6    1    1    2    0  503 -0.13222440086E+03  0.48493060125E+02 -0.21002732404E+03  0.30639083849E+03  0.17300000000E+03 0. -1.
<mgrwt>
<rscale>  2 0.22307817E+03</rscale>
<asrwt>0</asrwt>
<pdfrwt beam="1">  1       21 0.10429499E-01 0.22307817E+03</pdfrwt>
<pdfrwt beam="2">  1       21 0.13732757E+00 0.22307817E+03</pdfrwt>
<totfact> 0.27817934E+04</totfact>
</mgrwt>
</event>
<event>
 4    1  0.3901757E+000  0.1855364E+03  0.7546771E-02  0.1162550E+00
         21   -1    0    0  501  502  0.00000000000E+00  0.00000000000E+00  0.31025545487E+03  0.31025545487E+03  0.00000000000E+00 0. -1.
         21   -1    0    0  502  503 -0.00000000000E+00 -0.00000000000E+00 -0.14997129006E+03  0.14997129006E+03  0.00000000000E+00 0. -1.
          6    1    1    2  501    0 -0.65207335373E+02  0.15580777299E+02 -0.37231997849E+02  0.18923524743E+03  0.17300000000E+03 0. -1.
         -6    1    1    2    0  503  0.65207335373E+02 -0.15580777299E+02  0.19751616265E+03  0.27099149750E+03  0.17300000000E+03 0. -1.
<mgrwt>
<rscale>  2 0.18553640E+03</rscale>
<asrwt>0</asrwt>
<pdfrwt beam="1">  1       21 0.47731608E-01 0.18553640E+03</pdfrwt>
<pdfrwt beam="2">  1       21 0.23072506E-01 0.18553640E+03</pdfrwt>
<totfact> 0.74255945E+04</totfact>
</mgrwt>
</event>
<event>
 4    1  0.3901757E+000  0.3151686E+03  0.7546771E-02  0.1077895E+00
         21   -1    0    0  501  502  0.00000000000E+00  0.00000000000E+00  0.58106659423E+03  0.58106659423E+03  0.00000000000E+00 0.  1.
         21   -1    0    0  502  503 -0.00000000000E+00 -0.00000000000E+00 -0.27567726417E+03  0.27567726417E+03  0.00000000000E+00 0. -1.
          6    1    1    2  501    0  0.14670202149E+02 -0.26303432042E+03  0.41672740312E+03  0.52248731760E+03  0.17300000000E+03 0.  1.
         -6    1    1    2    0  503 -0.14670202149E+02  0.26303432042E+03 -0.11133807306E+03  0.33425654079E+03  0.17300000000E+03 0. -1.
<mgrwt>
<rscale>  2 0.31516864E+03</rscale>
<asrwt>0</asrwt>
<pdfrwt beam="1">  1       21 0.89394861E-01 0.31516864E+03</pdfrwt>
<pdfrwt beam="2">  1       21 0.42411887E-01 0.31516864E+03</pdfrwt>
<totfact> 0.52937856E+03</totfact>
</mgrwt>
</event>
<event>
 4    1  0.3901757E+000  0.1893065E+03  0.7546771E-02  0.1159088E+00
         21   -1    0    0  501  502  0.00000000000E+00  0.00000000000E+00  0.84630962025E+03  0.84630962025E+03  0.00000000000E+00 0.  1.
         21   -1    0    0  502  503 -0.00000000000E+00 -0.00000000000E+00 -0.42507115801E+02  0.42507115801E+02  0.00000000000E+00 0.  1.
          6    1    1    2  501    0  0.49454499753E+02  0.58840483210E+02  0.42934939206E+03  0.46923112692E+03  0.17300000000E+03 0.  1.
         -6    1    1    2    0  503 -0.49454499753E+02 -0.58840483210E+02  0.37445311239E+03  0.41958560913E+03  0.17300000000E+03 0.  1.
<mgrwt>
<rscale>  2 0.18930650E+03</rscale>
<asrwt>0</asrwt>
<pdfrwt beam="1">  1       21 0.13020147E+00 0.18930650E+03</pdfrwt>
<pdfrwt beam="2">  1       21 0.65395569E-02 0.18930650E+03</pdfrwt>
<totfact> 0.73354212E+04</totfact>
</mgrwt>
</event>
<event>
 4    1  0.3901757E+000  0.1779245E+03  0.7546771E-02  0.1169827E+00
         21   -1    0    0  503  502  0.00000000000E+00  0.00000000000E+00  0.36149338530E+03  0.36149338530E+03  0.00000000000E+00 0. -1.
         21   -1    0    0  501  503 -0.00000000000E+00 -0.00000000000E+00 -0.11703570606E+03  0.11703570606E+03  0.00000000000E+00 0. -1.
          6    1    1    2  501    0  0.30685581068E+02  0.28045164495E+02  0.21811161938E+01  0.17793789199E+03  0.17300000000E+03 0. -1.
         -6    1    1    2    0  502 -0.30685581068E+02 -0.28045164495E+02  0.24227656305E+03  0.30059119937E+03  0.17300000000E+03 0. -1.
<mgrwt>
<rscale>  2 0.17792452E+03</rscale>
<asrwt>0</asrwt>
<pdfrwt beam="1">  1       21 0.55614367E-01 0.17792452E+03</pdfrwt>
<pdfrwt beam="2">  1       21 0.18005493E-01 0.17792452E+03</pdfrwt>
<totfact> 0.85997128E+04</totfact>
</mgrwt>
</event>
<event>
 4    1  0.3901757E+000  0.1775799E+03  0.7546771E-02  0.1170166E+00
         21   -1    0    0  503  502  0.00000000000E+00  0.00000000000E+00  0.10098583085E+04  0.10098583085E+04  0.00000000000E+00 0. -1.
         21   -1    0    0  501  503 -0.00000000000E+00 -0.00000000000E+00 -0.68412490280E+02  0.68412490280E+02  0.00000000000E+00 0. -1.
          6    1    1    2  501    0 -0.35870842631E+02 -0.17858105709E+02  0.73240279561E+02  0.19209051991E+03  0.17300000000E+03 0. -1.
         -6    1    1    2    0  502  0.35870842631E+02  0.17858105709E+02  0.86820553863E+03  0.88618027883E+03  0.17300000000E+03 0. -1.
<mgrwt>
<rscale>  2 0.17757992E+03</rscale>
<asrwt>0</asrwt>
<pdfrwt beam="1">  1       21 0.15536281E+00 0.17757992E+03</pdfrwt>
<pdfrwt beam="2">  1       21 0.10524999E-01 0.17757992E+03</pdfrwt>
<totfact> 0.20398612E+04</totfact>
</mgrwt>
</event>
<event>
 4    1  0.3901757E+000  0.2097833E+03  0.7546771E-02  0.1141738E+00
         21   -1    0    0  501  502  0.00000000000E+00  0.00000000000E+00  0.77845975055E+02  0.77845975055E+02  0.00000000000E+00 0.  1.
         21   -1    0    0  502  503 -0.00000000000E+00 -0.00000000000E+00 -0.83648074599E+03  0.83648074599E+03  0.00000000000E+00 0.  1.
          6    1    1    2  501    0  0.10889600056E+03 -0.47135002936E+02 -0.11903492094E+03  0.24120190680E+03  0.17300000000E+03 0.  1.
         -6    1    1    2    0  503 -0.10889600056E+03  0.47135002936E+02 -0.63959985000E+03  0.67312481425E+03  0.17300000000E+03 0.  1.
<mgrwt>
<rscale>  2 0.20978333E+03</rscale>
<asrwt>0</asrwt>
<pdfrwt beam="1">  1       21 0.11976305E-01 0.20978333E+03</pdfrwt>
<pdfrwt beam="2">  1       21 0.12868933E+00 0.20978333E+03</pdfrwt>
<totfact> 0.25842070E+04</totfact>
</mgrwt>
</event>
<event>
 4    1  0.3901757E+000  0.3899627E+03  0.7546771E-02  0.1047312E+00
         21   -1    0    0  501  502  0.00000000000E+00  0.00000000000E+00  0.81616992566E+03  0.81616992566E+03  0.00000000000E+00 0.  1.
         21   -1    0    0  502  503 -0.00000000000E+00 -0.00000000000E+00 -0.19645188937E+03  0.19645188937E+03  0.00000000000E+00 0. -1.
          6    1    1    2  501    0  0.29442976100E+03 -0.18828970678E+03  0.42482749887E+03  0.57667087809E+03  0.17300000000E+03 0.  1.
         -6    1    1    2    0  503 -0.29442976100E+03  0.18828970678E+03  0.19489053742E+03  0.43595093694E+03  0.17300000000E+03 0. -1.
<mgrwt>
<rscale>  2 0.38996269E+03</rscale>
<asrwt>0</asrwt>
<pdfrwt beam="1">  1       21 0.12556460E+00 0.38996269E+03</pdfrwt>
<pdfrwt beam="2">  1       21 0.30223368E-01 0.38996269E+03</pdfrwt>
<totfact> 0.44224628E+03</totfact>
</mgrwt>
</event>
<event>
 4    1  0.3901757E+000  0.1800356E+03  0.7546771E-02  0.1167769E+00
         21   -1    0    0  503  502  0.00000000000E+00  0.00000000000E+00  0.19009261328E+03  0.19009261328E+03  0.00000000000E+00 0.  1.
         21   -1    0    0  501  503 -0.00000000000E+00 -0.00000000000E+00 -0.19557529929E+03  0.19557529929E+03  0.00000000000E+00 0.  1.
          6    1    1    2  501    0 -0.15861174417E+01  0.49812532675E+02  0.66291827741E+02  0.19185257519E+03  0.17300000000E+03 0.  1.
         -6    1    1    2    0  502  0.15861174417E+01 -0.49812532675E+02 -0.71774513747E+02  0.19381533738E+03  0.17300000000E+03 0.  1.
<mgrwt>
<rscale>  2 0.18003556E+03</rscale>
<asrwt>0</asrwt>
<pdfrwt beam="1">  1       21 0.29245017E-01 0.18003556E+03</pdfrwt>
<pdfrwt beam="2">  1       21 0.30088508E-01 0.18003556E+03</pdfrwt>
<totfact> 0.11917344E+05</totfact>
</mgrwt>
</event>
<event>
 4    1  0.3901757E+000  0.2365983E+03  0.7546771E-02  0.1122080E+00
         21   -1    0    0  503  502  0.00000000000E+00  0.00000000000E+00  0.13542888882E+03  0.13542888882E+03  0.00000000000E+00 0.  1.
         21   -1    0    0  501  503 -0.00000000000E+00 -0.00000000000E+00 -0.15550918729E+04  0.15550918729E+04  0.00000000000E+00 0.  1.
          6    1    1    2  501    0 -0.68760990601E+02 -0.14601941787E+03 -0.14340965895E+04  0.14534826357E+04  0.17300000000E+03 0.  1.
         -6    1    1    2    0  502  0.68760990601E+02  0.14601941787E+03  0.14433605427E+02  0.23703812603E+03  0.17300000000E+03 0.  1.
<mgrwt>
<rscale>  2 0.23659828E+03</rscale>
<asrwt>0</asrwt>
<pdfrwt beam="1">  1       21 0.20835215E-01 0.23659828E+03</pdfrwt>
<pdfrwt beam="2">  1       21 0.23924489E+00 0.23659828E+03</pdfrwt>
<totfact> 0.15712334E+03</totfact>
</mgrwt>
</event>
<event>
 4    1  0.3901757E+000  0.2365793E+03  0.7546771E-02  0.1122093E+00
         21   -1    0    0  503  502  0.00000000000E+00  0.00000000000E+00  0.19948196652E+03  0.19948196652E+03  0.00000000000E+00 0.  1.
         21   -1    0    0  501  503 -0.00000000000E+00 -0.00000000000E+00 -0.39974033891E+03  0.39974033891E+03  0.00000000000E+00 0.  1.
          6    1    1    2  501    0 -0.16053985946E+03  0.16361815783E+02 -0.26371401548E+03  0.35428073254E+03  0.17300000000E+03 0.  1.
         -6    1    1    2    0  502  0.16053985946E+03 -0.16361815783E+02  0.63455643082E+02  0.24494157289E+03  0.17300000000E+03 0.  1.
<mgrwt>
<rscale>  2 0.23657928E+03</rscale>
<asrwt>0</asrwt>
<pdfrwt beam="1">  1       21 0.30689534E-01 0.23657928E+03</pdfrwt>
<pdfrwt beam="2">  1       21 0.61498513E-01 0.23657928E+03</pdfrwt>
<totfact> 0.24461127E+04</totfact>
</mgrwt>
</event>
<event>
 4    1  0.3901757E+000  0.3014249E+03  0.7546771E-02  0.1084530E+00
         21   -1    0    0  503  502  0.00000000000E+00  0.00000000000E+00  0.98524058411E+02  0.98524058411E+02  0.00000000000E+00 0. -1.
         21   -1    0    0  501  503 -0.00000000000E+00 -0.00000000000E+00 -0.10515880558E+04  0.10515880558E+04  0.00000000000E+00 0.  1.
          6    1    1    2  501    0 -0.10061055649E+03  0.22540074462E+03 -0.27480364999E+03  0.40788972260E+03  0.17300000000E+03 0. -1.
         -6    1    1    2    0  502  0.10061055649E+03 -0.22540074462E+03 -0.67826034736E+03  0.74222239157E+03  0.17300000000E+03 0. -1.
<mgrwt>
<rscale>  2 0.30142492E+03</rscale>
<asrwt>0</asrwt>
<pdfrwt beam="1">  1       21 0.15157547E-01 0.30142492E+03</pdfrwt>
<pdfrwt beam="2">  1       21 0.16178278E+00 0.30142492E+03</pdfrwt>
<totfact> 0.87682548E+03</totfact>
</mgrwt>
</event>
<event>
 4    1  0.3901757E+000  0.2108332E+03  0.7546771E-02  0.1140908E+00
         21   -1    0    0  501  502  0.00000000000E+00  0.00000000000E+00  0.12234984299E+03  0.12234984299E+03  0.00000000000E+00 0. -1.
         21   -1    0    0  502  503 -0.00000000000E+00 -0.00000000000E+00 -0.55125402238E+03  0.55125402238E+03  0.00000000000E+00 0.  1.
          6    1    1    2  501    0 -0.12003565425E+03 -0.10633015488E+02 -0.17792195503E+02  0.21158256434E+03  0.17300000000E+03 0. -1.
         -6    1    1    2    0  503  0.12003565425E+03  0.10633015488E+02 -0.41111198388E+03  0.46202130103E+03  0.17300000000E+03 0.  1.
<mgrwt>
<rscale>  2 0.21083316E+03</rscale>
<asrwt>0</asrwt>
<pdfrwt beam="1">  1       21 0.18823053E-01 0.21083316E+03</pdfrwt>
<pdfrwt beam="2">  1       21 0.84808310E-01 0.21083316E+03</pdfrwt>
<totfact> 0.30816364E+04</totfact>
</mgrwt>
</event>
<event>
 4    1  0.3901757E+000  0.1780721E+03  0.7546771E-02  0.1169682E+00
         21   -1    0    0  503  502  0.00000000000E+00  0.00000000000E+00  0.13602140191E+03  0.13602140191E+03  0.00000000000E+00 0.  1.
         21   -1    0    0  501  503 -0.00000000000E+00 -0.00000000000E+00 -0.41814872091E+03  0.41814872091E+03  0.00000000000E+00 0.  1.
          6    1    1    2  501    0  0.27485131946E+02 -0.32019493149E+02 -0.32538010914E+03  0.37092033625E+03  0.17300000000E+03 0.  1.
         -6    1    1    2    0  502 -0.27485131946E+02  0.32019493149E+02  0.43252790147E+02  0.18324978656E+03  0.17300000000E+03 0.  1.
<mgrwt>
<rscale>  2 0.17807212E+03</rscale>
<asrwt>0</asrwt>
<pdfrwt beam="1">  1       21 0.20926369E-01 0.17807212E+03</pdfrwt>
<pdfrwt beam="2">  1       21 0.64330573E-01 0.17807212E+03</pdfrwt>
<totfact> 0.47608509E+04</totfact>
</mgrwt>
</event>
<event>
 4    1  0.3901757E+000  0.1885294E+03  0.7546771E-02  0.1159794E+00
         21   -1    0    0  501  502  0.00000000000E+00  0.00000000000E+00  0.42178882979E+02  0.42178882979E+02  0.00000000000E+00 0.  1.
         21   -1    0    0  502  503 -0.00000000000E+00 -0.00000000000E+00 -0.11606951500E+04  0.11606951500E+04  0.00000000000E+00 0.  1.
          6    1    1    2  501    0  0.36665061461E+02 -0.65345295448E+02 -0.87407242210E+03  0.89417332405E+03  0.17300000000E+03 0.  1.
         -6    1    1    2    0  503 -0.36665061461E+02  0.65345295448E+02 -0.24444384489E+03  0.30870070890E+03  0.17300000000E+03 0.  1.
<mgrwt>
<rscale>  2 0.18852940E+03</rscale>
<asrwt>0</asrwt>
<pdfrwt beam="1">  1       21 0.64890584E-02 0.18852940E+03</pdfrwt>
<pdfrwt beam="2">  1       21 0.17856850E+00 0.18852940E+03</pdfrwt>
<totfact> 0.32166050E+04</totfact>
</mgrwt>
</event>
<event>
 4    1  0.3901757E+000  0.1936684E+03  0.7546771E-02  0.1155194E+00
         21   -1    0    0  503  502  0.00000000000E+00  0.00000000000E+00  0.28545443745E+03  0.28545443745E+03  0.00000000000E+00 0. -1.
         21   -1    0    0  501  503 -0.00000000000E+00 -0.00000000000E+00 -0.13278474762E+03  0.13278474762E+03  0.00000000000E+00 0. -1.
          6    1    1    2  501    0 -0.60634863610E+02  0.62464900956E+02  0.54945454299E+02  0.20131183146E+03  0.17300000000E+03 0. -1.
         -6    1    1    2    0  502  0.60634863610E+02 -0.62464900956E+02  0.97724235530E+02  0.21692735362E+03  0.17300000000E+03 0. -1.
<mgrwt>
<rscale>  2 0.19366840E+03</rscale>
<asrwt>0</asrwt>
<pdfrwt beam="1">  1       21 0.43916067E-01 0.19366840E+03</pdfrwt>
<pdfrwt beam="2">  1       21 0.20428423E-01 0.19366840E+03</pdfrwt>
<totfact> 0.11048542E+05</totfact>
</mgrwt>
</event>
<event>
 4    1  0.3901757E+000  0.1893692E+03  0.7546771E-02  0.1159032E+00
         21   -1    0    0  503  502  0.00000000000E+00  0.00000000000E+00  0.27870190347E+03  0.27870190347E+03  0.00000000000E+00 0. -1.
         21   -1    0    0  501  503 -0.00000000000E+00 -0.00000000000E+00 -0.12965603590E+03  0.12965603590E+03  0.00000000000E+00 0. -1.
          6    1    1    2  501    0  0.68525580801E+02  0.35155794893E+02  0.56720757358E+02  0.19768138368E+03  0.17300000000E+03 0. -1.
         -6    1    1    2    0  502 -0.68525580801E+02 -0.35155794893E+02  0.92325110217E+02  0.21067655569E+03  0.17300000000E+03 0. -1.
<mgrwt>
<rscale>  2 0.18936918E+03</rscale>
<asrwt>0</asrwt>
<pdfrwt beam="1">  1       21 0.42877216E-01 0.18936918E+03</pdfrwt>
<pdfrwt beam="2">  1       21 0.19947082E-01 0.18936918E+03</pdfrwt>
<totfact> 0.12149486E+05</totfact>
</mgrwt>
</event>
<event>
 4    1  0.3901757E+000  0.2001241E+03  0.7546771E-02  0.1149634E+00
         21   -1    0    0  503  502  0.00000000000E+00  0.00000000000E+00  0.63884387238E+03  0.63884387238E+03  0.00000000000E+00 0.  1.
         21   -1    0    0  501  503 -0.00000000000E+00 -0.00000000000E+00 -0.95976047307E+02  0.95976047307E+02  0.00000000000E+00 0. -1.
          6    1    1    2  501    0  0.69376739445E+02 -0.72852758889E+02  0.55064854634E+02  0.20756154429E+03  0.17300000000E+03 0. -1.
         -6    1    1    2    0  502 -0.69376739445E+02  0.72852758889E+02  0.48780297044E+03  0.52725837539E+03  0.17300000000E+03 0.  1.
<mgrwt>
<rscale>  2 0.20012410E+03</rscale>
<asrwt>0</asrwt>
<pdfrwt beam="1">  1       21 0.98283670E-01 0.20012410E+03</pdfrwt>
<pdfrwt beam="2">  1       21 0.14765546E-01 0.20012410E+03</pdfrwt>
<totfact> 0.34382598E+04</totfact>
</mgrwt>
</event>
<event>
 4    1  0.3901757E+000  0.2782878E+03  0.7546771E-02  0.1096628E+00
         21   -1    0    0  503  502  0.00000000000E+00  0.00000000000E+00  0.16569732384E+03  0.16569732384E+03  0.00000000000E+00 0.  1.
         21   -1    0    0  501  503 -0.00000000000E+00 -0.00000000000E+00 -0.79336975962E+03  0.79336975962E+03  0.00000000000E+00 0. -1.
          6    1    1    2  501    0  0.17840164835E+03  0.12525165443E+03 -0.62122010466E+03  0.68070444651E+03  0.17300000000E+03 0. -1.
         -6    1    1    2    0  502 -0.17840164835E+03 -0.12525165443E+03 -0.64523311245E+01  0.27836263695E+03  0.17300000000E+03 0.  1.
<mgrwt>
<rscale>  2 0.27828785E+03</rscale>
<asrwt>0</asrwt>
<pdfrwt beam="1">  1       21 0.25491896E-01 0.27828785E+03</pdfrwt>
<pdfrwt beam="2">  1       21 0.12205689E+00 0.27828785E+03</pdfrwt>
<totfact> 0.69860021E+03</totfact>
</mgrwt>
</event>
<event>
 4    1  0.3901757E+000  0.1899819E+03  0.7546771E-02  0.1158478E+00
         21   -1    0    0  501  502  0.00000000000E+00  0.00000000000E+00  0.81685094707E+03  0.81685094707E+03  0.00000000000E+00 0. -1.
         21   -1    0    0  502  503 -0.00000000000E+00 -0.00000000000E+00 -0.44628409082E+02  0.44628409082E+02  0.00000000000E+00 0.  1.
          6    1    1    2  501    0 -0.50393508539E+02  0.60204693757E+02  0.34320898387E+03  0.39228244603E+03  0.17300000000E+03 0. -1.
         -6    1    1    2    0  503  0.50393508539E+02 -0.60204693757E+02  0.42901355412E+03  0.46919691013E+03  0.17300000000E+03 0. -1.
<mgrwt>
<rscale>  2 0.18998187E+03</rscale>
<asrwt>0</asrwt>
<pdfrwt beam="1">  1       21 0.12566937E+00 0.18998187E+03</pdfrwt>
<pdfrwt beam="2">  1       21 0.68659097E-02 0.18998187E+03</pdfrwt>
<totfact> 0.73711163E+04</totfact>
</mgrwt>
</event>
<event>
 4    1  0.3901757E+000  0.2331234E+03  0.7546771E-02  0.1124460E+00
         21   -1    0    0  501  502  0.00000000000E+00  0.00000000000E+00  0.39185212113E+03  0.39185212113E+03  0.00000000000E+00 0.  1.
         21   -1    0    0  502  503 -0.00000000000E+00 -0.00000000000E+00 -0.13873037179E+03  0.13873037179E+03  0.00000000000E+00 0. -1.
          6    1    1    2  501    0 -0.15626044723E+03  0.43207138140E+00  0.13100807347E+03  0.26741284443E+03  0.17300000000E+03 0. -1.
         -6    1    1    2    0  503  0.15626044723E+03 -0.43207138140E+00  0.12211367587E+03  0.26316964849E+03  0.17300000000E+03 0. -1.
<mgrwt>
<rscale>  2 0.23312339E+03</rscale>
<asrwt>0</asrwt>
<pdfrwt beam="1">  1       21 0.60284941E-01 0.23312339E+03</pdfrwt>
<pdfrwt beam="2">  1       21 0.21343134E-01 0.23312339E+03</pdfrwt>
<totfact> 0.51449710E+04</totfact>
</mgrwt>
</event>
<event>
 4    1  0.3901757E+000  0.1778995E+03  0.7546771E-02  0.1169852E+00
         21   -1    0    0  503  502  0.00000000000E+00  0.00000000000E+00  0.40718505607E+03  0.40718505607E+03  0.00000000000E+00 0.  1.
         21   -1    0    0  501  503 -0.00000000000E+00 -0.00000000000E+00 -0.25800150073E+03  0.25800150073E+03  0.00000000000E+00 0.  1.
          6    1    1    2  501    0 -0.39069716930E+02  0.13884401227E+02 -0.20342603301E+03  0.27024131861E+03  0.17300000000E+03 0.  1.
         -6    1    1    2    0  502  0.39069716930E+02 -0.13884401227E+02  0.35260958835E+03  0.39494523820E+03  0.17300000000E+03 0.  1.
<mgrwt>
<rscale>  2 0.17789946E+03</rscale>
<asrwt>0</asrwt>
<pdfrwt beam="1">  1       21 0.62643855E-01 0.17789946E+03</pdfrwt>
<pdfrwt beam="2">  1       21 0.39692539E-01 0.17789946E+03</pdfrwt>
<totfact> 0.14584550E+04</totfact>
</mgrwt>
</event>
<event>
 4    1  0.3901757E+000  0.2172778E+03  0.7546771E-02  0.1135929E+00
         21   -1    0    0  503  502  0.00000000000E+00  0.00000000000E+00  0.76096760041E+03  0.76096760041E+03  0.00000000000E+00 0. -1.
         21   -1    0    0  501  503 -0.00000000000E+00 -0.00000000000E+00 -0.66169309246E+02  0.66169309246E+02  0.00000000000E+00 0. -1.
          6    1    1    2  501    0  0.63546844935E+01  0.13130217099E+03  0.24407252064E+03  0.32677367925E+03  0.17300000000E+03 0. -1.
         -6    1    1    2    0  502 -0.63546844935E+01 -0.13130217099E+03  0.45072577052E+03  0.50036323040E+03  0.17300000000E+03 0. -1.
<mgrwt>
<rscale>  2 0.21727780E+03</rscale>
<asrwt>0</asrwt>
<pdfrwt beam="1">  1       21 0.11707193E+00 0.21727780E+03</pdfrwt>
<pdfrwt beam="2">  1       21 0.10179894E-01 0.21727780E+03</pdfrwt>
<totfact> 0.43555598E+04</totfact>
</mgrwt>
</event>
<event>
 4    1  0.3901757E+000  0.2541693E+03  0.7546771E-02  0.1110698E+00
         21   -1    0    0  501  502  0.00000000000E+00  0.00000000000E+00  0.63526151033E+02  0.63526151033E+02  0.00000000000E+00 0.  1.
         21   -1    0    0  502  503 -0.00000000000E+00 -0.00000000000E+00 -0.18545034927E+04  0.18545034927E+04  0.00000000000E+00 0.  1.
          6    1    1    2  501    0 -0.14684097831E+03 -0.11450226403E+03 -0.25099100101E+03  0.35720935593E+03  0.17300000000E+03 0.  1.
         -6    1    1    2    0  503  0.14684097831E+03  0.11450226403E+03 -0.15399863407E+04  0.15608202878E+04  0.17300000000E+03 0.  1.
<mgrwt>
<rscale>  2 0.25416932E+03</rscale>
<asrwt>0</asrwt>
<pdfrwt beam="1">  1       21 0.97732561E-02 0.25416932E+03</pdfrwt>
<pdfrwt beam="2">  1       21 0.28530817E+00 0.25416932E+03</pdfrwt>
<totfact> 0.32903299E+03</totfact>
</mgrwt>
</event>
<event>
 4    1  0.3901757E+000  0.2955889E+03  0.7546771E-02  0.1087467E+00
         21   -1    0    0  503  502  0.00000000000E+00  0.00000000000E+00  0.64449753092E+03  0.64449753092E+03  0.00000000000E+00 0. -1.
         21   -1    0    0  501  503 -0.00000000000E+00 -0.00000000000E+00 -0.25425338864E+03  0.25425338864E+03  0.00000000000E+00 0.  1.
          6    1    1    2  501    0 -0.18227641337E+03 -0.15562487558E+03 -0.11190444065E+03  0.31606233025E+03  0.17300000000E+03 0.  1.
         -6    1    1    2    0  502  0.18227641337E+03  0.15562487558E+03  0.50214858293E+03  0.58268858931E+03  0.17300000000E+03 0. -1.
<mgrwt>
<rscale>  2 0.29558889E+03</rscale>
<asrwt>0</asrwt>
<pdfrwt beam="1">  1       21 0.99153466E-01 0.29558889E+03</pdfrwt>
<pdfrwt beam="2">  1       21 0.39115906E-01 0.29558889E+03</pdfrwt>
<totfact> 0.49368429E+03</totfact>
</mgrwt>
</event>
<event>
 4    1  0.3901757E+000  0.2832276E+03  0.7546771E-02  0.1093939E+00
         21   -1    0    0  503  502  0.00000000000E+00  0.00000000000E+00  0.45283558067E+03  0.45283558067E+03  0.00000000000E+00 0. -1.
         21   -1    0    0  501  503 -0.00000000000E+00 -0.00000000000E+00 -0.18815020402E+03  0.18815020402E+03  0.00000000000E+00 0. -1.
          6    1    1    2  501    0 -0.21020298376E+03 -0.78125277944E+02  0.54833663599E+02  0.28848671390E+03  0.17300000000E+03 0. -1.
         -6    1    1    2    0  502  0.21020298376E+03  0.78125277944E+02  0.20985171305E+03  0.35249907078E+03  0.17300000000E+03 0. -1.
<mgrwt>
<rscale>  2 0.28322756E+03</rscale>
<asrwt>0</asrwt>
<pdfrwt beam="1">  1       21 0.69667012E-01 0.28322756E+03</pdfrwt>
<pdfrwt beam="2">  1       21 0.28946185E-01 0.28322756E+03</pdfrwt>
<totfact> 0.20423734E+04</totfact>
</mgrwt>
</event>
<event>
 4    1  0.3901757E+000  0.2007825E+03  0.7546771E-02  0.1149080E+00
         21   -1    0    0  503  502  0.00000000000E+00  0.00000000000E+00  0.23680999722E+04  0.23680999722E+04  0.00000000000E+00 0.  1.
         21   -1    0    0  501  503 -0.00000000000E+00 -0.00000000000E+00 -0.18330358613E+02  0.18330358613E+02  0.00000000000E+00 0. -1.
          6    1    1    2  501    0  0.79561383138E+02  0.63675792098E+02  0.14934722236E+04  0.15069083923E+04  0.17300000000E+03 0.  1.
         -6    1    1    2    0  502 -0.79561383138E+02 -0.63675792098E+02  0.85629738998E+03  0.87952193848E+03  0.17300000000E+03 0. -1.
<mgrwt>
<rscale>  2 0.20078252E+03</rscale>
<asrwt>0</asrwt>
<pdfrwt beam="1">  1       21 0.36432283E+00 0.20078252E+03</pdfrwt>
<pdfrwt beam="2">  1       21 0.28200570E-02 0.20078252E+03</pdfrwt>
<totfact> 0.99776769E+03</totfact>
</mgrwt>
</event>
<event>
 4    1  0.3901757E+000  0.1823711E+03  0.7546771E-02  0.1165528E+00
         21   -1    0    0  503  502  0.00000000000E+00  0.00000000000E+00  0.75785144742E+02  0.75785144742E+02  0.00000000000E+00 0. -1.
         21   -1    0    0  501  503 -0.00000000000E+00 -0.00000000000E+00 -0.15307666314E+04  0.15307666314E+04  0.00000000000E+00 0. -1.
          6    1    1    2  501    0  0.37626727660E+02  0.43754352948E+02 -0.14059169376E+04  0.14176958945E+04  0.17300000000E+03 0. -1.
         -6    1    1    2    0  502 -0.37626727660E+02 -0.43754352948E+02 -0.49064549075E+02  0.18885588159E+03  0.17300000000E+03 0. -1.
<mgrwt>
<rscale>  2 0.18237109E+03</rscale>
<asrwt>0</asrwt>
<pdfrwt beam="1">  1       21 0.11659253E-01 0.18237109E+03</pdfrwt>
<pdfrwt beam="2">  1       21 0.23550255E+00 0.18237109E+03</pdfrwt>
<totfact> 0.50600076E+03</totfact>
</mgrwt>
</event>
<event>
 4    1  0.3901757E+000  0.2720109E+03  0.7546771E-02  0.1100134E+00
         21   -1    0    0  501  502  0.00000000000E+00  0.00000000000E+00  0.52503034833E+03  0.52503034833E+03  0.00000000000E+00 0. -1.
         21   -1    0    0  502  503 -0.00000000000E+00 -0.00000000000E+00 -0.21408931617E+03  0.21408931617E+03  0.00000000000E+00 0.  1.
          6    1    1    2  501    0 -0.20984533400E+03  0.50873431741E+01  0.37151176401E+03  0.46044645298E+03  0.17300000000E+03 0. -1.
         -6    1    1    2    0  503  0.20984533400E+03 -0.50873431741E+01 -0.60570731844E+02  0.27867321152E+03  0.17300000000E+03 0.  1.
<mgrwt>
<rscale>  2 0.27201093E+03</rscale>
<asrwt>0</asrwt>
<pdfrwt beam="1">  1       21 0.80773899E-01 0.27201093E+03</pdfrwt>
<pdfrwt beam="2">  1       21 0.32936818E-01 0.27201093E+03</pdfrwt>
<totfact> 0.11399381E+04</totfact>
</mgrwt>
</event>
<event>
 4    1  0.3901757E+000  0.2424289E+03  0.7546771E-02  0.1118185E+00
         21   -1    0    0  503  502  0.00000000000E+00  0.00000000000E+00  0.36064425455E+02  0.36064425455E+02  0.00000000000E+00 0.  1.
         21   -1    0    0  501  503 -0.00000000000E+00 -0.00000000000E+00 -0.18638743487E+04  0.18638743487E+04  0.00000000000E+00 0.  1.
          6    1    1    2  501    0 -0.14750591148E+03 -0.84171159858E+02 -0.57713521611E+03  0.62598469290E+03  0.17300000000E+03 0.  1.
         -6    1    1    2    0  502  0.14750591148E+03  0.84171159858E+02 -0.12506747071E+04  0.12739540812E+04  0.17300000000E+03 0.  1.
<mgrwt>
<rscale>  2 0.24242891E+03</rscale>
<asrwt>0</asrwt>
<pdfrwt beam="1">  1       21 0.55483722E-02 0.24242891E+03</pdfrwt>
<pdfrwt beam="2">  1       21 0.28674995E+00 0.24242891E+03</pdfrwt>
<totfact> 0.87435799E+03</totfact>
</mgrwt>
</event>
<event>
 4    1  0.3901757E+000  0.3545127E+03  0.7546771E-02  0.1060778E+00
         21   -1    0    0  503  502  0.00000000000E+00  0.00000000000E+00  0.11226489201E+03  0.11226489201E+03  0.00000000000E+00 0.  1.
         21   -1    0    0  501  503 -0.00000000000E+00 -0.00000000000E+00 -0.11875298695E+04  0.11875298695E+04  0.00000000000E+00 0.  1.
          6    1    1    2  501    0  0.12436745662E+03  0.28334257116E+03 -0.38206872854E+03  0.52120609189E+03  0.17300000000E+03 0.  1.
         -6    1    1    2    0  502 -0.12436745662E+03 -0.28334257116E+03 -0.69319624894E+03  0.77858866961E+03  0.17300000000E+03 0.  1.
<mgrwt>
<rscale>  2 0.35451273E+03</rscale>
<asrwt>0</asrwt>
<pdfrwt beam="1">  1       21 0.17271521E-01 0.35451273E+03</pdfrwt>
<pdfrwt beam="2">  1       21 0.18269691E+00 0.35451273E+03</pdfrwt>
<totfact> 0.47512149E+03</totfact>
</mgrwt>
</event>
<event>
 4    1  0.3901757E+000  0.1838021E+03  0.7546771E-02  0.1164173E+00
         21   -1    0    0  503  502  0.00000000000E+00  0.00000000000E+00  0.72652798812E+02  0.72652798812E+02  0.00000000000E+00 0. -1.
         21   -1    0    0  501  503 -0.00000000000E+00 -0.00000000000E+00 -0.52053753546E+03  0.52053753546E+03  0.00000000000E+00 0.  1.
          6    1    1    2  501    0  0.62078602469E+02 -0.67531739995E+00 -0.32082585903E+03  0.36974645470E+03  0.17300000000E+03 0. -1.
         -6    1    1    2    0  502 -0.62078602469E+02  0.67531739995E+00 -0.12705887762E+03  0.22344387957E+03  0.17300000000E+03 0. -1.
<mgrwt>
<rscale>  2 0.18380209E+03</rscale>
<asrwt>0</asrwt>
<pdfrwt beam="1">  1       21 0.11177354E-01 0.18380209E+03</pdfrwt>
<pdfrwt beam="2">  1       21 0.80082695E-01 0.18380209E+03</pdfrwt>
<totfact> 0.91726498E+04</totfact>
</mgrwt>
</event>
<event>
 4    1  0.3901757E+000  0.2489973E+03  0.7546771E-02  0.1113940E+00
         21   -1    0    0  503  502  0.00000000000E+00  0.00000000000E+00  0.70327669764E+03  0.70327669764E+03  0.00000000000E+00 0.  1.
         21   -1    0    0  501  503 -0.00000000000E+00 -0.00000000000E+00 -0.15049113635E+03  0.15049113635E+03  0.00000000000E+00 0. -1.
          6    1    1    2  501    0  0.13960096773E+03  0.11217061797E+03  0.16585470777E+01  0.24900286847E+03  0.17300000000E+03 0. -1.
         -6    1    1    2    0  502 -0.13960096773E+03 -0.11217061797E+03  0.55112701421E+03  0.60476496552E+03  0.17300000000E+03 0.  1.
<mgrwt>
<rscale>  2 0.24899734E+03</rscale>
<asrwt>0</asrwt>
<pdfrwt beam="1">  1       21 0.10819641E+00 0.24899734E+03</pdfrwt>
<pdfrwt beam="2">  1       21 0.23152483E-01 0.24899734E+03</pdfrwt>
<totfact> 0.11498598E+04</totfact>
</mgrwt>
</event>
<event>
 4    1  0.3901757E+000  0.3781015E+03  0.7546771E-02  0.1051638E+00
         21   -1    0    0  503  502  0.00000000000E+00  0.00000000000E+00  0.12803142539E+03  0.12803142539E+03  0.00000000000E+00 0. -1.
         21   -1    0    0  501  503 -0.00000000000E+00 -0.00000000000E+00 -0.13484760063E+04  0.13484760063E+04  0.00000000000E+00 0.  1.
          6    1    1    2  501    0 -0.16220954737E+03  0.29448224507E+03 -0.91635221831E+03  0.99129315438E+03  0.17300000000E+03 0.  1.
         -6    1    1    2    0  502  0.16220954737E+03 -0.29448224507E+03 -0.30409236262E+03  0.48521427732E+03  0.17300000000E+03 0.  1.
<mgrwt>
<rscale>  2 0.37810148E+03</rscale>
<asrwt>0</asrwt>
<pdfrwt beam="1">  1       21 0.19697141E-01 0.37810148E+03</pdfrwt>
<pdfrwt beam="2">  1       21 0.20745786E+00 0.37810148E+03</pdfrwt>
<totfact> 0.25031649E+03</totfact>
</mgrwt>
</event>
<event>
 4    1  0.3901757E+000  0.2476766E+03  0.7546771E-02  0.1114782E+00
         21   -1    0    0  503  502  0.00000000000E+00  0.00000000000E+00  0.46832074000E+03  0.46832074000E+03  0.00000000000E+00 0. -1.
         21   -1    0    0  501  503 -0.00000000000E+00 -0.00000000000E+00 -0.13717520216E+03  0.13717520216E+03  0.00000000000E+00 0.  1.
          6    1    1    2  501    0  0.14141744305E+03 -0.10684477703E+03  0.10126804830E+03  0.26757973986E+03  0.17300000000E+03 0.  1.
         -6    1    1    2    0  502 -0.14141744305E+03  0.10684477703E+03  0.22987748954E+03  0.33791620230E+03  0.17300000000E+03 0. -1.
<mgrwt>
<rscale>  2 0.24767660E+03</rscale>
<asrwt>0</asrwt>
<pdfrwt beam="1">  1       21 0.72049344E-01 0.24767660E+03</pdfrwt>
<pdfrwt beam="2">  1       21 0.21103878E-01 0.24767660E+03</pdfrwt>
<totfact> 0.35319916E+04</totfact>
</mgrwt>
</event>
<event>
 4    1  0.3901757E+000  0.1765800E+03  0.7546771E-02  0.1171155E+00
         21   -1    0    0  503  502  0.00000000000E+00  0.00000000000E+00  0.71633854442E+03  0.71633854442E+03  0.00000000000E+00 0. -1.
         21   -1    0    0  501  503 -0.00000000000E+00 -0.00000000000E+00 -0.27182830353E+03  0.27182830353E+03  0.00000000000E+00 0. -1.
          6    1    1    2  501    0 -0.15230162574E+02  0.31930320901E+02 -0.23054503165E+03  0.29039888922E+03  0.17300000000E+03 0. -1.
         -6    1    1    2    0  502  0.15230162574E+02 -0.31930320901E+02  0.67505527253E+03  0.69776795872E+03  0.17300000000E+03 0. -1.
<mgrwt>
<rscale>  2 0.17658002E+03</rscale>
<asrwt>0</asrwt>
<pdfrwt beam="1">  1       21 0.11020593E+00 0.17658002E+03</pdfrwt>
<pdfrwt beam="2">  1       21 0.41819739E-01 0.17658002E+03</pdfrwt>
<totfact> 0.36286573E+03</totfact>
</mgrwt>
</event>
<event>
 4    1  0.3901757E+000  0.1859422E+03  0.7546771E-02  0.1162173E+00
         21   -1    0    0  501  502  0.00000000000E+00  0.00000000000E+00  0.26155283072E+03  0.26155283072E+03  0.00000000000E+00 0. -1.
         21   -1    0    0  502  503 -0.00000000000E+00 -0.00000000000E+00 -0.15051675421E+03  0.15051675421E+03  0.00000000000E+00 0. -1.
          6    1    1    2  501    0 -0.47656061806E+02 -0.48727835748E+02  0.12741300083E+03  0.22540757526E+03  0.17300000000E+03 0. -1.
         -6    1    1    2    0  503  0.47656061806E+02  0.48727835748E+02 -0.16376924324E+02  0.18666200967E+03  0.17300000000E+03 0. -1.
<mgrwt>
<rscale>  2 0.18594220E+03</rscale>
<asrwt>0</asrwt>
<pdfrwt beam="1">  1       21 0.40238897E-01 0.18594220E+03</pdfrwt>
<pdfrwt beam="2">  1       21 0.23156424E-01 0.18594220E+03</pdfrwt>
<totfact> 0.10454039E+05</totfact>
</mgrwt>
</event>
<event>
 4    1  0.3901757E+000  0.1874546E+03  0.7546771E-02  0.1160777E+00
         21   -1    0    0  501  502  0.00000000000E+00  0.00000000000E+00  0.69741683097E+02  0.69741683097E+02  0.00000000000E+00 0. -1.
         21   -1    0    0  502  503 -0.00000000000E+00 -0.00000000000E+00 -0.55863988835E+03  0.55863988835E+03  0.00000000000E+00 0. -1.
          6    1    1    2  501    0 -0.41319557070E+02 -0.59185365816E+02 -0.14605132744E+03  0.23763460095E+03  0.17300000000E+03 0. -1.
         -6    1    1    2    0  503  0.41319557070E+02  0.59185365816E+02 -0.34284687781E+03  0.39074697049E+03  0.17300000000E+03 0. -1.
<mgrwt>
<rscale>  2 0.18745456E+03</rscale>
<asrwt>0</asrwt>
<pdfrwt beam="1">  1       21 0.10729490E-01 0.18745456E+03</pdfrwt>
<pdfrwt beam="2">  1       21 0.85944594E-01 0.18745456E+03</pdfrwt>
<totfact> 0.83872067E+04</totfact>
</mgrwt>
</event>
<event>
 4    1  0.3901757E+000  0.1956500E+03  0.7546771E-02  0.1153462E+00
         21   -1    0    0  503  502  0.00000000000E+00  0.00000000000E+00  0.10054303571E+03  0.10054303571E+03  0.00000000000E+00 0.  1.
         21   -1    0    0  501  503 -0.00000000000E+00 -0.00000000000E+00 -0.59612488077E+03  0.59612488077E+03  0.00000000000E+00 0. -1.
          6    1    1    2  501    0 -0.88983933031E+02 -0.20778947412E+02 -0.45717967612E+03  0.49728478888E+03  0.17300000000E+03 0. -1.
         -6    1    1    2    0  502  0.88983933031E+02  0.20778947412E+02 -0.38402168937E+02  0.19938312760E+03  0.17300000000E+03 0.  1.
<mgrwt>
<rscale>  2 0.19564996E+03</rscale>
<asrwt>0</asrwt>
<pdfrwt beam="1">  1       21 0.15468160E-01 0.19564996E+03</pdfrwt>
<pdfrwt beam="2">  1       21 0.91711519E-01 0.19564996E+03</pdfrwt>
<totfact> 0.37241768E+04</totfact>
</mgrwt>
</event>
<event>
 4    1  0.3901757E+000  0.2133009E+03  0.7546771E-02  0.1138978E+00
         21   -1    0    0  503  502  0.00000000000E+00  0.00000000000E+00  0.12490282941E+03  0.12490282941E+03  0.00000000000E+00 0. -1.
         21   -1    0    0  501  503 -0.00000000000E+00 -0.00000000000E+00 -0.42653289588E+03  0.42653289588E+03  0.00000000000E+00 0.  1.
          6    1    1    2  501    0 -0.12467110050E+03  0.50378532487E+01 -0.45465227253E+02  0.21809252659E+03  0.17300000000E+03 0. -1.
         -6    1    1    2    0  502  0.12467110050E+03 -0.50378532487E+01 -0.25616483922E+03  0.33334319870E+03  0.17300000000E+03 0.  1.
<mgrwt>
<rscale>  2 0.21330087E+03</rscale>
<asrwt>0</asrwt>
<pdfrwt beam="1">  1       21 0.19215820E-01 0.21330087E+03</pdfrwt>
<pdfrwt beam="2">  1       21 0.65620444E-01 0.21330087E+03</pdfrwt>
<totfact> 0.52571411E+04</totfact>
</mgrwt>
</event>
<event>
 4    1  0.3901757E+000  0.1806093E+03  0.7546771E-02  0.1167215E+00
         21   -1    0    0  501  502  0.00000000000E+00  0.00000000000E+00  0.10993082214E+03  0.10993082214E+03  0.00000000000E+00 0.  1.
         21   -1    0    0  502  503 -0.00000000000E+00 -0.00000000000E+00 -0.35947685522E+03  0.35947685522E+03  0.00000000000E+00 0.  1.
          6    1    1    2  501    0  0.40435136854E+02 -0.32492071429E+02 -0.26715271977E+02  0.18257448002E+03  0.17300000000E+03 0.  1.
         -6    1    1    2    0  503 -0.40435136854E+02  0.32492071429E+02 -0.22283076110E+03  0.28683319733E+03  0.17300000000E+03 0.  1.
<mgrwt>
<rscale>  2 0.18060934E+03</rscale>
<asrwt>0</asrwt>
<pdfrwt beam="1">  1       21 0.16912434E-01 0.18060934E+03</pdfrwt>
<pdfrwt beam="2">  1       21 0.55304132E-01 0.18060934E+03</pdfrwt>
<totfact> 0.97547607E+04</totfact>
</mgrwt>
</event>
<event>
 4    1  0.3901757E+000  0.2649585E+03  0.7546771E-02  0.1104200E+00
         21   -1    0    0  503  502  0.00000000000E+00  0.00000000000E+00  0.89062516363E+03  0.89062516363E+03  0.00000000000E+00 0. -1.
         21   -1    0    0  501  503 -0.00000000000E+00 -0.00000000000E+00 -0.92256240865E+02  0.92256240865E+02  0.00000000000E+00 0.  1.
          6    1    1    2  501    0  0.10257062415E+03  0.17249138757E+03  0.21166744015E+03  0.33912551798E+03  0.17300000000E+03 0.  1.
         -6    1    1    2    0  502 -0.10257062415E+03 -0.17249138757E+03  0.58670148261E+03  0.64375588652E+03  0.17300000000E+03 0. -1.
<mgrwt>
<rscale>  2 0.26495851E+03</rscale>
<asrwt>0</asrwt>
<pdfrwt beam="1">  1       21 0.13701925E+00 0.26495851E+03</pdfrwt>
<pdfrwt beam="2">  1       21 0.14193268E-01 0.26495851E+03</pdfrwt>
<totfact> 0.15706748E+04</totfact>
</mgrwt>
</event>
<event>
 4    1  0.3901757E+000  0.2779794E+03  0.7546771E-02  0.1096798E+00
         21   -1    0    0  503  502  0.00000000000E+00  0.00000000000E+00  0.12064839352E+03  0.12064839352E+03  0.00000000000E+00 0. -1.
         21   -1    0    0  501  503 -0.00000000000E+00 -0.00000000000E+00 -0.64773551375E+03  0.64773551375E+03  0.00000000000E+00 0. -1.
          6    1    1    2  501    0  0.21040139084E+03  0.55450762041E+02 -0.22287390407E+03  0.35629385259E+03  0.17300000000E+03 0. -1.
         -6    1    1    2    0  502 -0.21040139084E+03 -0.55450762041E+02 -0.30421321615E+03  0.41209005468E+03  0.17300000000E+03 0. -1.
<mgrwt>
<rscale>  2 0.27797937E+03</rscale>
<asrwt>0</asrwt>
<pdfrwt beam="1">  1       21 0.18561291E-01 0.27797937E+03</pdfrwt>
<pdfrwt beam="2">  1       21 0.99651618E-01 0.27797937E+03</pdfrwt>
<totfact> 0.20989817E+04</totfact>
</mgrwt>
</event>
<event>
 4    1  0.3901757E+000  0.1874290E+03  0.7546771E-02  0.1160801E+00
         21   -1    0    0  501  502  0.00000000000E+00  0.00000000000E+00  0.21928576730E+04  0.21928576730E+04  0.00000000000E+00 0. -1.
         21   -1    0    0  502  503 -0.00000000000E+00 -0.00000000000E+00 -0.40366736797E+02  0.40366736797E+02  0.00000000000E+00 0.  1.
          6    1    1    2  501    0 -0.27764832900E+02  0.66556327142E+02  0.19434284036E+04  0.19524455410E+04  0.17300000000E+03 0. -1.
         -6    1    1    2    0  503  0.27764832900E+02 -0.66556327142E+02  0.20906253261E+03  0.28077886881E+03  0.17300000000E+03 0.  1.
<mgrwt>
<rscale>  2 0.18742900E+03</rscale>
<asrwt>0</asrwt>
<pdfrwt beam="1">  1       21 0.33736263E+00 0.18742900E+03</pdfrwt>
<pdfrwt beam="2">  1       21 0.62102689E-02 0.18742900E+03</pdfrwt>
<totfact> 0.38823906E+03</totfact>
</mgrwt>
</event>
<event>
 4    1  0.3901757E+000  0.1938582E+03  0.7546771E-02  0.1155027E+00
         21   -1    0    0  501  502  0.00000000000E+00  0.00000000000E+00  0.55199827735E+02  0.55199827735E+02  0.00000000000E+00 0.  1.
         21   -1    0    0  502  503 -0.00000000000E+00 -0.00000000000E+00 -0.89090015671E+03  0.89090015671E+03  0.00000000000E+00 0.  1.
          6    1    1    2  501    0  0.12481408348E+02  0.86580763684E+02 -0.18813613503E+03  0.27014111034E+03  0.17300000000E+03 0.  1.
         -6    1    1    2    0  503 -0.12481408348E+02 -0.86580763684E+02 -0.64756419395E+03  0.67595887410E+03  0.17300000000E+03 0.  1.
<mgrwt>
<rscale>  2 0.19385823E+03</rscale>
<asrwt>0</asrwt>
<pdfrwt beam="1">  1       21 0.84922809E-02 0.19385823E+03</pdfrwt>
<pdfrwt beam="2">  1       21 0.13706157E+00 0.19385823E+03</pdfrwt>
<totfact> 0.40841189E+04</totfact>
</mgrwt>
</event>
<event>
 4    1  0.3901757E+000  0.2154473E+03  0.7546771E-02  0.1137324E+00
         21   -1    0    0  503  502  0.00000000000E+00  0.00000000000E+00  0.17943223536E+03  0.17943223536E+03  0.00000000000E+00 0. -1.
         21   -1    0    0  501  503 -0.00000000000E+00 -0.00000000000E+00 -0.37490310428E+03  0.37490310428E+03  0.00000000000E+00 0. -1.
          6    1    1    2  501    0  0.12328695473E+03  0.35900741324E+02 -0.25205052620E+03  0.33158257522E+03  0.17300000000E+03 0. -1.
         -6    1    1    2    0  502 -0.12328695473E+03 -0.35900741324E+02  0.56579657280E+02  0.22275276441E+03  0.17300000000E+03 0. -1.
<mgrwt>
<rscale>  2 0.21544729E+03</rscale>
<asrwt>0</asrwt>
<pdfrwt beam="1">  1       21 0.27604960E-01 0.21544729E+03</pdfrwt>
<pdfrwt beam="2">  1       21 0.57677400E-01 0.21544729E+03</pdfrwt>
<totfact> 0.34891471E+04</totfact>
</mgrwt>
</event>
<event>
 4    1  0.3901757E+000  0.2296622E+03  0.7546771E-02  0.1126878E+00
         21   -1    0    0  503  502  0.00000000000E+00  0.00000000000E+00  0.23318343093E+03  0.23318343093E+03  0.00000000000E+00 0.  1.
         21   -1    0    0  501  503 -0.00000000000E+00 -0.00000000000E+00 -0.24299776447E+03  0.24299776447E+03  0.00000000000E+00 0. -1.
          6    1    1    2  501    0 -0.11444488375E+03 -0.98580350900E+02 -0.67517075063E+02  0.23938101935E+03  0.17300000000E+03 0.  1.
         -6    1    1    2    0  502  0.11444488375E+03  0.98580350900E+02  0.57702741518E+02  0.23680017605E+03  0.17300000000E+03 0. -1.
<mgrwt>
<rscale>  2 0.22966218E+03</rscale>
<asrwt>0</asrwt>
<pdfrwt beam="1">  1       21 0.35874374E-01 0.22966218E+03</pdfrwt>
<pdfrwt beam="2">  1       21 0.37384272E-01 0.22966218E+03</pdfrwt>
<totfact> 0.50829817E+04</totfact>
</mgrwt>
</event>
<event>
 4    1  0.3901757E+000  0.1998288E+03  0.7546771E-02  0.1149884E+00
         21   -1    0    0  503  502  0.00000000000E+00  0.00000000000E+00  0.21973109935E+03  0.21973109935E+03  0.00000000000E+00 0. -1.
         21   -1    0    0  501  503 -0.00000000000E+00 -0.00000000000E+00 -0.18189029729E+03  0.18189029729E+03  0.00000000000E+00 0. -1.
          6    1    1    2  501    0 -0.18713413102E+02 -0.98246445938E+02  0.24896694257E+02  0.20137378517E+03  0.17300000000E+03 0.  1.
         -6    1    1    2    0  502  0.18713413102E+02  0.98246445938E+02  0.12944107805E+02  0.20024761146E+03  0.17300000000E+03 0.  1.
<mgrwt>
<rscale>  2 0.19982882E+03</rscale>
<asrwt>0</asrwt>
<pdfrwt beam="1">  1       21 0.33804785E-01 0.19982882E+03</pdfrwt>
<pdfrwt beam="2">  1       21 0.27983122E-01 0.19982882E+03</pdfrwt>
<totfact> 0.10253333E+05</totfact>
</mgrwt>
</event>
<event>
 4    1  0.3901757E+000  0.1968771E+03  0.7546771E-02  0.1152401E+00
         21   -1    0    0  503  502  0.00000000000E+00  0.00000000000E+00  0.68034980037E+03  0.68034980037E+03  0.00000000000E+00 0.  1.
         21   -1    0    0  501  503 -0.00000000000E+00 -0.00000000000E+00 -0.64544813639E+02  0.64544813639E+02  0.00000000000E+00 0. -1.
          6    1    1    2  501    0 -0.31151179747E+02 -0.88663432114E+02  0.18032473644E+03  0.26697867099E+03  0.17300000000E+03 0. -1.
         -6    1    1    2    0  502  0.31151179747E+02  0.88663432114E+02  0.43548025029E+03  0.47791594301E+03  0.17300000000E+03 0. -1.
<mgrwt>
<rscale>  2 0.19687712E+03</rscale>
<asrwt>0</asrwt>
<pdfrwt beam="1">  1       21 0.10466920E+00 0.19687712E+03</pdfrwt>
<pdfrwt beam="2">  1       21 0.99299718E-02 0.19687712E+03</pdfrwt>
<totfact> 0.60356796E+04</totfact>
</mgrwt>
</event>
<event>
 4    1  0.3901757E+000  0.1925433E+03  0.7546771E-02  0.1156187E+00
         21   -1    0    0  501  502  0.00000000000E+00  0.00000000000E+00  0.11083556554E+04  0.11083556554E+04  0.00000000000E+00 0.  1.
         21   -1    0    0  502  503 -0.00000000000E+00 -0.00000000000E+00 -0.20162503889E+03  0.20162503889E+03  0.00000000000E+00 0.  1.
          6    1    1    2  501    0 -0.70192008505E+02 -0.47084996366E+02  0.10515637517E+04  0.10690459480E+04  0.17300000000E+03 0.  1.
         -6    1    1    2    0  503  0.70192008505E+02  0.47084996366E+02 -0.14483313519E+03  0.24093474633E+03  0.17300000000E+03 0.  1.
<mgrwt>
<rscale>  2 0.19254328E+03</rscale>
<asrwt>0</asrwt>
<pdfrwt beam="1">  1       21 0.17051625E+00 0.19254328E+03</pdfrwt>
<pdfrwt beam="2">  1       21 0.31019237E-01 0.19254328E+03</pdfrwt>
<totfact> 0.21128257E+03</totfact>
</mgrwt>
</event>
<event>
 4    1  0.3901757E+000  0.2206151E+03  0.7546771E-02  0.1133425E+00
         21   -1    0    0  501  502  0.00000000000E+00  0.00000000000E+00  0.33588225354E+03  0.33588225354E+03  0.00000000000E+00 0. -1.
         21   -1    0    0  502  503 -0.00000000000E+00 -0.00000000000E+00 -0.14551035180E+03  0.14551035180E+03  0.00000000000E+00 0.  1.
          6    1    1    2  501    0  0.93164709963E+02  0.10031132627E+03  0.79661420285E+02  0.23455695948E+03  0.17300000000E+03 0. -1.
         -6    1    1    2    0  503 -0.93164709963E+02 -0.10031132627E+03  0.11071048146E+03  0.24683564586E+03  0.17300000000E+03 0. -1.
<mgrwt>
<rscale>  2 0.22061511E+03</rscale>
<asrwt>0</asrwt>
<pdfrwt beam="1">  1       21 0.51674193E-01 0.22061511E+03</pdfrwt>
<pdfrwt beam="2">  1       21 0.22386208E-01 0.22061511E+03</pdfrwt>
<totfact> 0.65624687E+04</totfact>
</mgrwt>
</event>
<event>
 4    1  0.3901757E+000  0.1908500E+03  0.7546771E-02  0.1157697E+00
         21   -1    0    0  503  502  0.00000000000E+00  0.00000000000E+00  0.12510071060E+03  0.12510071060E+03  0.00000000000E+00 0. -1.
         21   -1    0    0  501  503 -0.00000000000E+00 -0.00000000000E+00 -0.29340654773E+03  0.29340654773E+03  0.00000000000E+00 0. -1.
          6    1    1    2  501    0 -0.38523819346E+02  0.70785888243E+02 -0.10248265147E+03  0.21662506892E+03  0.17300000000E+03 0. -1.
         -6    1    1    2    0  502  0.38523819346E+02 -0.70785888243E+02 -0.65823185661E+02  0.20188218941E+03  0.17300000000E+03 0. -1.
<mgrwt>
<rscale>  2 0.19085001E+03</rscale>
<asrwt>0</asrwt>
<pdfrwt beam="1">  1       21 0.19246263E-01 0.19085001E+03</pdfrwt>
<pdfrwt beam="2">  1       21 0.45139469E-01 0.19085001E+03</pdfrwt>
<totfact> 0.11683977E+05</totfact>
</mgrwt>
</event>
<event>
 4    1  0.3901757E+000  0.2016632E+03  0.7546771E-02  0.1148343E+00
         21   -1    0    0  503  502  0.00000000000E+00  0.00000000000E+00  0.60431863250E+03  0.60431863250E+03  0.00000000000E+00 0.  1.
         21   -1    0    0  501  503 -0.00000000000E+00 -0.00000000000E+00 -0.34248378314E+03  0.34248378314E+03  0.00000000000E+00 0.  1.
          6    1    1    2  501    0 -0.77412316064E+02 -0.68894031406E+02 -0.29343252554E+03  0.35604873442E+03  0.17300000000E+03 0.  1.
         -6    1    1    2    0  502  0.77412316064E+02  0.68894031406E+02  0.55526737490E+03  0.59075368122E+03  0.17300000000E+03 0.  1.
<mgrwt>
<rscale>  2 0.20166322E+03</rscale>
<asrwt>0</asrwt>
<pdfrwt beam="1">  1       21 0.92972097E-01 0.20166322E+03</pdfrwt>
<pdfrwt beam="2">  1       21 0.52689813E-01 0.20166322E+03</pdfrwt>
<totfact> 0.33015127E+03</totfact>
</mgrwt>
</event>
<event>
 4    1  0.3901757E+000  0.1766241E+03  0.7546771E-02  0.1171111E+00
         21   -1    0    0  503  502  0.00000000000E+00  0.00000000000E+00  0.53691459279E+02  0.53691459279E+02  0.00000000000E+00 0. -1.
         21   -1    0    0  501  503 -0.00000000000E+00 -0.00000000000E+00 -0.61392917871E+03  0.61392917871E+03  0.00000000000E+00 0. -1.
          6    1    1    2  501    0  0.20207153722E+02  0.29304373543E+02 -0.35739879197E+03  0.39866022108E+03  0.17300000000E+03 0. -1.
         -6    1    1    2    0  502 -0.20207153722E+02 -0.29304373543E+02 -0.20283892746E+03  0.26896041691E+03  0.17300000000E+03 0. -1.
<mgrwt>
<rscale>  2 0.17662411E+03</rscale>
<asrwt>0</asrwt>
<pdfrwt beam="1">  1       21 0.82602239E-02 0.17662411E+03</pdfrwt>
<pdfrwt beam="2">  1       21 0.94450650E-01 0.17662411E+03</pdfrwt>
<totfact> 0.10725414E+05</totfact>
</mgrwt>
</event>
<event>
 4    1  0.3901757E+000  0.2145154E+03  0.7546771E-02  0.1138039E+00
         21   -1    0    0  501  502  0.00000000000E+00  0.00000000000E+00  0.98060263720E+02  0.98060263720E+02  0.00000000000E+00 0.  1.
         21   -1    0    0  502  503 -0.00000000000E+00 -0.00000000000E+00 -0.10139194859E+04  0.10139194859E+04  0.00000000000E+00 0.  1.
          6    1    1    2  501    0 -0.12667851232E+03  0.63568017496E+01 -0.50433722268E+02  0.22036427740E+03  0.17300000000E+03 0.  1.
         -6    1    1    2    0  503  0.12667851232E+03 -0.63568017496E+01 -0.86542549995E+03  0.89161547227E+03  0.17300000000E+03 0.  1.
<mgrwt>
<rscale>  2 0.21451539E+03</rscale>
<asrwt>0</asrwt>
<pdfrwt beam="1">  1       21 0.15086195E-01 0.21451539E+03</pdfrwt>
<pdfrwt beam="2">  1       21 0.15598760E+00 0.21451539E+03</pdfrwt>
<totfact> 0.10292190E+04</totfact>
</mgrwt>
</event>
<event>
 4    1  0.3901757E+000  0.2382687E+03  0.7546771E-02  0.1120952E+00
         21   -1    0    0  503  502  0.00000000000E+00  0.00000000000E+00  0.91101467567E+03  0.91101467567E+03  0.00000000000E+00 0. -1.
         21   -1    0    0  501  503 -0.00000000000E+00 -0.00000000000E+00 -0.62342019171E+02  0.62342019171E+02  0.00000000000E+00 0. -1.
          6    1    1    2  501    0  0.13315022664E+00  0.16383816015E+03  0.41464223172E+03  0.47822603523E+03  0.17300000000E+03 0. -1.
         -6    1    1    2    0  502 -0.13315022664E+00 -0.16383816015E+03  0.43403042478E+03  0.49513065961E+03  0.17300000000E+03 0. -1.
<mgrwt>
<rscale>  2 0.23826867E+03</rscale>
<asrwt>0</asrwt>
<pdfrwt beam="1">  1       21 0.14015609E+00 0.23826867E+03</pdfrwt>
<pdfrwt beam="2">  1       21 0.95910805E-02 0.23826867E+03</pdfrwt>
<totfact> 0.30363726E+04</totfact>
</mgrwt>
</event>
<event>
 4    1  0.3901757E+000  0.1904061E+03  0.7546771E-02  0.1158096E+00
         21   -1    0    0  501  502  0.00000000000E+00  0.00000000000E+00  0.98003147642E+03  0.98003147642E+03  0.00000000000E+00 0. -1.
         21   -1    0    0  502  503 -0.00000000000E+00 -0.00000000000E+00 -0.77224380311E+02  0.77224380311E+02  0.00000000000E+00 0. -1.
          6    1    1    2  501    0  0.59860466874E+02 -0.52365969328E+02  0.83295616910E+03  0.85444160121E+03  0.17300000000E+03 0. -1.
         -6    1    1    2    0  503 -0.59860466874E+02  0.52365969328E+02  0.69850927008E+02  0.20281425552E+03  0.17300000000E+03 0. -1.
<mgrwt>
<rscale>  2 0.19040607E+03</rscale>
<asrwt>0</asrwt>
<pdfrwt beam="1">  1       21 0.15077406E+00 0.19040607E+03</pdfrwt>
<pdfrwt beam="2">  1       21 0.11880675E-01 0.19040607E+03</pdfrwt>
<totfact> 0.17643526E+04</totfact>
</mgrwt>
</event>
<event>
 4    1  0.3901757E+000  0.2286320E+03  0.7546771E-02  0.1127606E+00
         21   -1    0    0  501  502  0.00000000000E+00  0.00000000000E+00  0.43490222328E+02  0.43490222328E+02  0.00000000000E+00 0. -1.
         21   -1    0    0  502  503 -0.00000000000E+00 -0.00000000000E+00 -0.14165466955E+04  0.14165466955E+04  0.00000000000E+00 0. -1.
          6    1    1    2  501    0 -0.93114328454E+02 -0.11693303549E+03 -0.97067362124E+03  0.99723612646E+03  0.17300000000E+03 0. -1.
         -6    1    1    2    0  503  0.93114328454E+02  0.11693303549E+03 -0.40238285189E+03  0.46280079132E+03  0.17300000000E+03 0. -1.
<mgrwt>
<rscale>  2 0.22863205E+03</rscale>
<asrwt>0</asrwt>
<pdfrwt beam="1">  1       21 0.66908036E-02 0.22863205E+03</pdfrwt>
<pdfrwt beam="2">  1       21 0.21793026E+00 0.22863205E+03</pdfrwt>
<totfact> 0.16472759E+04</totfact>
</mgrwt>
</event>
<event>
 4    1  0.3901757E+000  0.2213075E+03  0.7546771E-02  0.1132912E+00
         21   -1    0    0  503  502  0.00000000000E+00  0.00000000000E+00  0.10303710764E+03  0.10303710764E+03  0.00000000000E+00 0.  1.
         21   -1    0    0  501  503 -0.00000000000E+00 -0.00000000000E+00 -0.82404385896E+03  0.82404385896E+03  0.00000000000E+00 0.  1.
          6    1    1    2  501    0  0.78656813044E+02 -0.11340677070E+03 -0.66204337171E+03  0.69805330449E+03  0.17300000000E+03 0.  1.
         -6    1    1    2    0  502 -0.78656813044E+02  0.11340677070E+03 -0.58963379596E+02  0.22902766211E+03  0.17300000000E+03 0.  1.
<mgrwt>
<rscale>  2 0.22130746E+03</rscale>
<asrwt>0</asrwt>
<pdfrwt beam="1">  1       21 0.15851862E-01 0.22130746E+03</pdfrwt>
<pdfrwt beam="2">  1       21 0.12677599E+00 0.22130746E+03</pdfrwt>
<totfact> 0.16029919E+04</totfact>
</mgrwt>
</event>
<event>
 4    1  0.3901757E+000  0.2161855E+03  0.7546771E-02  0.1136759E+00
         21   -1    0    0  503  502  0.00000000000E+00  0.00000000000E+00  0.93110364721E+02  0.93110364721E+02  0.00000000000E+00 0. -1.
         21   -1    0    0  501  503 -0.00000000000E+00 -0.00000000000E+00 -0.66402635156E+03  0.66402635156E+03  0.00000000000E+00 0. -1.
          6    1    1    2  501    0 -0.12218803877E+03  0.43327258642E+02 -0.47249167274E+03  0.51960037430E+03  0.17300000000E+03 0. -1.
         -6    1    1    2    0  502  0.12218803877E+03 -0.43327258642E+02 -0.98424314101E+02  0.23753634199E+03  0.17300000000E+03 0. -1.
<mgrwt>
<rscale>  2 0.21618549E+03</rscale>
<asrwt>0</asrwt>
<pdfrwt beam="1">  1       21 0.14324672E-01 0.21618549E+03</pdfrwt>
<pdfrwt beam="2">  1       21 0.10215790E+00 0.21618549E+03</pdfrwt>
<totfact> 0.32851268E+04</totfact>
</mgrwt>
</event>
<event>
 4    1  0.3901757E+000  0.2941411E+03  0.7546771E-02  0.1088207E+00
         21   -1    0    0  501  502  0.00000000000E+00  0.00000000000E+00  0.54263056277E+03  0.54263056277E+03  0.00000000000E+00 0.  1.
         21   -1    0    0  502  503 -0.00000000000E+00 -0.00000000000E+00 -0.16336856631E+03  0.16336856631E+03  0.00000000000E+00 0. -1.
          6    1    1    2  501    0  0.22272276617E+03  0.83573536998E+02  0.24434623324E+03  0.38239253177E+03  0.17300000000E+03 0. -1.
         -6    1    1    2    0  503 -0.22272276617E+03 -0.83573536998E+02  0.13491576322E+03  0.32360659731E+03  0.17300000000E+03 0.  1.
<mgrwt>
<rscale>  2 0.29414107E+03</rscale>
<asrwt>0</asrwt>
<pdfrwt beam="1">  1       21 0.83481624E-01 0.29414107E+03</pdfrwt>
<pdfrwt beam="2">  1       21 0.25133626E-01 0.29414107E+03</pdfrwt>
<totfact> 0.17761451E+04</totfact>
</mgrwt>
</event>
<event>
 4    1  0.3901757E+000  0.1899606E+03  0.7546771E-02  0.1158497E+00
         21   -1    0    0  503  502  0.00000000000E+00  0.00000000000E+00  0.32921631080E+02  0.32921631080E+02  0.00000000000E+00 0. -1.
         21   -1    0    0  501  503 -0.00000000000E+00 -0.00000000000E+00 -0.11142373013E+04  0.11142373013E+04  0.00000000000E+00 0. -1.
          6    1    1    2  501    0  0.78005260881E+02  0.84396404091E+01 -0.46745651737E+03  0.50457967051E+03  0.17300000000E+03 0. -1.
         -6    1    1    2    0  502 -0.78005260881E+02 -0.84396404091E+01 -0.61385915286E+03  0.64257926188E+03  0.17300000000E+03 0. -1.
<mgrwt>
<rscale>  2 0.18996065E+03</rscale>
<asrwt>0</asrwt>
<pdfrwt beam="1">  1       21 0.50648665E-02 0.18996065E+03</pdfrwt>
<pdfrwt beam="2">  1       21 0.17142112E+00 0.18996065E+03</pdfrwt>
<totfact> 0.54969197E+04</totfact>
</mgrwt>
</event>
<event>
 4    1  0.3901757E+000  0.2186074E+03  0.7546771E-02  0.1134926E+00
         21   -1    0    0  501  502  0.00000000000E+00  0.00000000000E+00  0.24800429877E+03  0.24800429877E+03  0.00000000000E+00 0.  1.
         21   -1    0    0  502  503 -0.00000000000E+00 -0.00000000000E+00 -0.54957592272E+03  0.54957592272E+03  0.00000000000E+00 0.  1.
          6    1    1    2  501    0 -0.13066683001E+03  0.28042327934E+02  0.17057446075E+03  0.27728115565E+03  0.17300000000E+03 0.  1.
         -6    1    1    2    0  503  0.13066683001E+03 -0.28042327934E+02 -0.47214608469E+03  0.52029906584E+03  0.17300000000E+03 0.  1.
<mgrwt>
<rscale>  2 0.21860739E+03</rscale>
<asrwt>0</asrwt>
<pdfrwt beam="1">  1       21 0.38154508E-01 0.21860739E+03</pdfrwt>
<pdfrwt beam="2">  1       21 0.84550142E-01 0.21860739E+03</pdfrwt>
<totfact> 0.78893031E+03</totfact>
</mgrwt>
</event>
<event>
 4    1  0.3901757E+000  0.1840819E+03  0.7546771E-02  0.1163910E+00
         21   -1    0    0  503  502  0.00000000000E+00  0.00000000000E+00  0.63297514560E+03  0.63297514560E+03  0.00000000000E+00 0. -1.
         21   -1    0    0  501  503 -0.00000000000E+00 -0.00000000000E+00 -0.16017103232E+03  0.16017103232E+03  0.00000000000E+00 0. -1.
          6    1    1    2  501    0  0.59845561960E+02  0.19381996939E+02 -0.87179524457E+02  0.20368216067E+03  0.17300000000E+03 0. -1.
         -6    1    1    2    0  502 -0.59845561960E+02 -0.19381996939E+02  0.55998363774E+03  0.58946401725E+03  0.17300000000E+03 0. -1.
<mgrwt>
<rscale>  2 0.18408192E+03</rscale>
<asrwt>0</asrwt>
<pdfrwt beam="1">  1       21 0.97380791E-01 0.18408192E+03</pdfrwt>
<pdfrwt beam="2">  1       21 0.24641698E-01 0.18408192E+03</pdfrwt>
<totfact> 0.13686339E+04</totfact>
</mgrwt>
</event>
<event>
 4    1  0.3901757E+000  0.1909595E+03  0.7546771E-02  0.1157599E+00
         21   -1    0    0  503  502  0.00000000000E+00  0.00000000000E+00  0.13828529674E+02  0.13828529674E+02  0.00000000000E+00 0. -1.
         21   -1    0    0  501  503 -0.00000000000E+00 -0.00000000000E+00 -0.26404558460E+04  0.26404558460E+04  0.00000000000E+00 0. -1.
          6    1    1    2  501    0  0.76449522670E+02  0.26305723555E+02 -0.13614827996E+04  0.13748094174E+04  0.17300000000E+03 0. -1.
         -6    1    1    2    0  502 -0.76449522670E+02 -0.26305723555E+02 -0.12651445167E+04  0.12794749582E+04  0.17300000000E+03 0. -1.
<mgrwt>
<rscale>  2 0.19095947E+03</rscale>
<asrwt>0</asrwt>
<pdfrwt beam="1">  1       21 0.21274681E-02 0.19095947E+03</pdfrwt>
<pdfrwt beam="2">  1       21 0.40622359E+00 0.19095947E+03</pdfrwt>
<totfact> 0.88857127E+03</totfact>
</mgrwt>
</event>
<event>
 4    1  0.3901757E+000  0.1813911E+03  0.7546771E-02  0.1166464E+00
         21   -1    0    0  501  502  0.00000000000E+00  0.00000000000E+00  0.45615369775E+03  0.45615369775E+03  0.00000000000E+00 0. -1.
         21   -1    0    0  502  503 -0.00000000000E+00 -0.00000000000E+00 -0.13455667536E+03  0.13455667536E+03  0.00000000000E+00 0. -1.
          6    1    1    2  501    0 -0.38134947271E+02  0.38980089830E+02  0.36197367834E+03  0.40487981601E+03  0.17300000000E+03 0. -1.
         -6    1    1    2    0  503  0.38134947271E+02 -0.38980089830E+02 -0.40376655946E+02  0.18583055710E+03  0.17300000000E+03 0. -1.
<mgrwt>
<rscale>  2 0.18139107E+03</rscale>
<asrwt>0</asrwt>
<pdfrwt beam="1">  1       21 0.70177491E-01 0.18139107E+03</pdfrwt>
<pdfrwt beam="2">  1       21 0.20701027E-01 0.18139107E+03</pdfrwt>
<totfact> 0.40105877E+04</totfact>
</mgrwt>
</event>
<event>
 4    1  0.3901757E+000  0.2656590E+03  0.7546771E-02  0.1103790E+00
         21   -1    0    0  503  502  0.00000000000E+00  0.00000000000E+00  0.18903001012E+03  0.18903001012E+03  0.00000000000E+00 0. -1.
         21   -1    0    0  501  503 -0.00000000000E+00 -0.00000000000E+00 -0.46458862368E+03  0.46458862368E+03  0.00000000000E+00 0. -1.
          6    1    1    2  501    0 -0.77458691433E+02  0.18613400130E+03 -0.28260478146E+03  0.38786618546E+03  0.17300000000E+03 0. -1.
         -6    1    1    2    0  502  0.77458691433E+02 -0.18613400130E+03  0.70461679062E+01  0.26575244834E+03  0.17300000000E+03 0. -1.
<mgrwt>
<rscale>  2 0.26565902E+03</rscale>
<asrwt>0</asrwt>
<pdfrwt beam="1">  1       21 0.29081540E-01 0.26565902E+03</pdfrwt>
<pdfrwt beam="2">  1       21 0.71475173E-01 0.26565902E+03</pdfrwt>
<totfact> 0.19263894E+04</totfact>
</mgrwt>
</event>
<event>
 4    1  0.3901757E+000  0.1800375E+03  0.7546771E-02  0.1167767E+00
         21   -1    0    0  501  502  0.00000000000E+00  0.00000000000E+00  0.49658730664E+03  0.49658730664E+03  0.00000000000E+00 0. -1.
         21   -1    0    0  502  503 -0.00000000000E+00 -0.00000000000E+00 -0.31947491398E+03  0.31947491398E+03  0.00000000000E+00 0. -1.
          6    1    1    2  501    0  0.54170272474E+01 -0.49549514770E+02  0.45252547263E+03  0.48702443674E+03  0.17300000000E+03 0. -1.
         -6    1    1    2    0  503 -0.54170272474E+01  0.49549514770E+02 -0.27541307997E+03  0.32903778387E+03  0.17300000000E+03 0. -1.
<mgrwt>
<rscale>  2 0.18003749E+03</rscale>
<asrwt>0</asrwt>
<pdfrwt beam="1">  1       21 0.76398048E-01 0.18003749E+03</pdfrwt>
<pdfrwt beam="2">  1       21 0.49149987E-01 0.18003749E+03</pdfrwt>
<totfact> 0.60830043E+03</totfact>
</mgrwt>
</event>
<event>
 4    1  0.3901757E+000  0.1757158E+03  0.7546771E-02  0.1172015E+00
         21   -1    0    0  503  502  0.00000000000E+00  0.00000000000E+00  0.10316770755E+03  0.10316770755E+03  0.00000000000E+00 0. -1.
         21   -1    0    0  501  503 -0.00000000000E+00 -0.00000000000E+00 -0.35651290180E+03  0.35651290180E+03  0.00000000000E+00 0. -1.
          6    1    1    2  501    0 -0.30704140292E+02 -0.20725736553E+01 -0.21876231483E+03  0.28059399527E+03  0.17300000000E+03 0. -1.
         -6    1    1    2    0  502  0.30704140292E+02  0.20725736553E+01 -0.34582879426E+02  0.17908661408E+03  0.17300000000E+03 0. -1.
<mgrwt>
<rscale>  2 0.17571579E+03</rscale>
<asrwt>0</asrwt>
<pdfrwt beam="1">  1       21 0.15871955E-01 0.17571579E+03</pdfrwt>
<pdfrwt beam="2">  1       21 0.54848139E-01 0.17571579E+03</pdfrwt>
<totfact> 0.11171455E+05</totfact>
</mgrwt>
</event>
<event>
 4    1  0.3901757E+000  0.1939557E+03  0.7546771E-02  0.1154941E+00
         21   -1    0    0  501  502  0.00000000000E+00  0.00000000000E+00  0.16526444613E+04  0.16526444613E+04  0.00000000000E+00 0. -1.
         21   -1    0    0  502  503 -0.00000000000E+00 -0.00000000000E+00 -0.23663722796E+02  0.23663722796E+02  0.00000000000E+00 0.  1.
          6    1    1    2  501    0 -0.85553350622E+02  0.19247247832E+02  0.97803023714E+03  0.99707671576E+03  0.17300000000E+03 0. -1.
         -6    1    1    2    0  503  0.85553350622E+02 -0.19247247832E+02  0.65095050138E+03  0.67923146835E+03  0.17300000000E+03 0.  1.
<mgrwt>
<rscale>  2 0.19395575E+03</rscale>
<asrwt>0</asrwt>
<pdfrwt beam="1">  1       21 0.25425290E+00 0.19395575E+03</pdfrwt>
<pdfrwt beam="2">  1       21 0.36405740E-02 0.19395575E+03</pdfrwt>
<totfact> 0.28764745E+04</totfact>
</mgrwt>
</event>
<event>
 4    1  0.3901757E+000  0.1860918E+03  0.7546771E-02  0.1162034E+00
         21   -1    0    0  503  502  0.00000000000E+00  0.00000000000E+00  0.22939678466E+03  0.22939678466E+03  0.00000000000E+00 0. -1.
         21   -1    0    0  501  503 -0.00000000000E+00 -0.00000000000E+00 -0.45122309247E+03  0.45122309247E+03  0.00000000000E+00 0. -1.
          6    1    1    2  501    0 -0.50749769201E+02  0.46104318107E+02 -0.38851903485E+03  0.43078670786E+03  0.17300000000E+03 0. -1.
         -6    1    1    2    0  502  0.50749769201E+02 -0.46104318107E+02  0.16669272704E+03  0.24983316927E+03  0.17300000000E+03 0. -1.
<mgrwt>
<rscale>  2 0.18609177E+03</rscale>
<asrwt>0</asrwt>
<pdfrwt beam="1">  1       21 0.35291813E-01 0.18609177E+03</pdfrwt>
<pdfrwt beam="2">  1       21 0.69418937E-01 0.18609177E+03</pdfrwt>
<totfact> 0.14669876E+04</totfact>
</mgrwt>
</event>
<event>
 4    1  0.3901757E+000  0.1903932E+03  0.7546771E-02  0.1158107E+00
         21   -1    0    0  501  502  0.00000000000E+00  0.00000000000E+00  0.20642743915E+03  0.20642743915E+03  0.00000000000E+00 0. -1.
         21   -1    0    0  502  503 -0.00000000000E+00 -0.00000000000E+00 -0.21434759702E+03  0.21434759702E+03  0.00000000000E+00 0. -1.
          6    1    1    2  501    0 -0.37198757516E+02 -0.70262526091E+02  0.85485379073E+02  0.20870390549E+03  0.17300000000E+03 0. -1.
         -6    1    1    2    0  503  0.37198757516E+02  0.70262526091E+02 -0.93405536949E+02  0.21207113068E+03  0.17300000000E+03 0. -1.
<mgrwt>
<rscale>  2 0.19039320E+03</rscale>
<asrwt>0</asrwt>
<pdfrwt beam="1">  1       21 0.31758067E-01 0.19039320E+03</pdfrwt>
<pdfrwt beam="2">  1       21 0.32976554E-01 0.19039320E+03</pdfrwt>
<totfact> 0.84475956E+04</totfact>
</mgrwt>
</event>
<event>
 4    1  0.3901757E+000  0.1730572E+03  0.7546771E-02  0.1174697E+00
         21   -1    0    0  501  502  0.00000000000E+00  0.00000000000E+00  0.86817422200E+02  0.86817422200E+02  0.00000000000E+00 0. -1.
         21   -1    0    0  502  503 -0.00000000000E+00 -0.00000000000E+00 -0.44929836644E+03  0.44929836644E+03  0.00000000000E+00 0. -1.
          6    1    1    2  501    0  0.15988783862E+01 -0.41523747266E+01 -0.52065924383E+02  0.18071983596E+03  0.17300000000E+03 0. -1.
         -6    1    1    2    0  503 -0.15988783862E+01  0.41523747266E+01 -0.31041501985E+03  0.35539595267E+03  0.17300000000E+03 0. -1.
<mgrwt>
<rscale>  2 0.17305721E+03</rscale>
<asrwt>0</asrwt>
<pdfrwt beam="1">  1       21 0.13356526E-01 0.17305721E+03</pdfrwt>
<pdfrwt beam="2">  1       21 0.69122827E-01 0.17305721E+03</pdfrwt>
<totfact> 0.92958835E+04</totfact>
</mgrwt>
</event>
<event>
 4    1  0.3901757E+000  0.1984932E+03  0.7546771E-02  0.1151017E+00
         21   -1    0    0  503  502  0.00000000000E+00  0.00000000000E+00  0.30598765322E+03  0.30598765322E+03  0.00000000000E+00 0. -1.
         21   -1    0    0  501  503 -0.00000000000E+00 -0.00000000000E+00 -0.52207709958E+03  0.52207709958E+03  0.00000000000E+00 0. -1.
          6    1    1    2  501    0 -0.59731867182E+02  0.76828791633E+02 -0.46741101040E+03  0.50781159087E+03  0.17300000000E+03 0. -1.
         -6    1    1    2    0  502  0.59731867182E+02 -0.76828791633E+02  0.25132156403E+03  0.32025316194E+03  0.17300000000E+03 0. -1.
<mgrwt>
<rscale>  2 0.19849322E+03</rscale>
<asrwt>0</asrwt>
<pdfrwt beam="1">  1       21 0.47075024E-01 0.19849322E+03</pdfrwt>
<pdfrwt beam="2">  1       21 0.80319553E-01 0.19849322E+03</pdfrwt>
<totfact> 0.58598400E+03</totfact>
</mgrwt>
</event>
<event>
 4    1  0.3901757E+000  0.2289578E+03  0.7546771E-02  0.1127375E+00
         21   -1    0    0  501  502  0.00000000000E+00  0.00000000000E+00  0.12332173898E+03  0.12332173898E+03  0.00000000000E+00 0. -1.
         21   -1    0    0  502  503 -0.00000000000E+00 -0.00000000000E+00 -0.82060513804E+03  0.82060513804E+03  0.00000000000E+00 0.  1.
          6    1    1    2  501    0  0.51633754395E+02 -0.14080702714E+03 -0.20978230600E+02  0.22991683201E+03  0.17300000000E+03 0. -1.
         -6    1    1    2    0  503 -0.51633754395E+02  0.14080702714E+03 -0.67630516846E+03  0.71401004500E+03  0.17300000000E+03 0.  1.
<mgrwt>
<rscale>  2 0.22895778E+03</rscale>
<asrwt>0</asrwt>
<pdfrwt beam="1">  1       21 0.18972576E-01 0.22895778E+03</pdfrwt>
<pdfrwt beam="2">  1       21 0.12624694E+00 0.22895778E+03</pdfrwt>
<totfact> 0.11563098E+04</totfact>
</mgrwt>
</event>
<event>
 4    1  0.3901757E+000  0.1758908E+03  0.7546771E-02  0.1171840E+00
         21   -1    0    0  503  502  0.00000000000E+00  0.00000000000E+00  0.17433906663E+03  0.17433906663E+03  0.00000000000E+00 0. -1.
         21   -1    0    0  501  503 -0.00000000000E+00 -0.00000000000E+00 -0.30170532497E+03  0.30170532497E+03  0.00000000000E+00 0. -1.
          6    1    1    2  501    0 -0.31676856365E+02  0.22724874226E+01 -0.21642997345E+03  0.27888980053E+03  0.17300000000E+03 0. -1.
         -6    1    1    2    0  502  0.31676856365E+02 -0.22724874226E+01  0.89063715115E+02  0.19715459107E+03  0.17300000000E+03 0. -1.
<mgrwt>
<rscale>  2 0.17589084E+03</rscale>
<asrwt>0</asrwt>
<pdfrwt beam="1">  1       21 0.26821395E-01 0.17589084E+03</pdfrwt>
<pdfrwt beam="2">  1       21 0.46416204E-01 0.17589084E+03</pdfrwt>
<totfact> 0.59298165E+04</totfact>
</mgrwt>
</event>
<event>
 4    1  0.3901757E+000  0.1781751E+03  0.7546771E-02  0.1169581E+00
         21   -1    0    0  503  502  0.00000000000E+00  0.00000000000E+00  0.52588597431E+03  0.52588597431E+03  0.00000000000E+00 0. -1.
         21   -1    0    0  501  503 -0.00000000000E+00 -0.00000000000E+00 -0.77595660071E+02  0.77595660071E+02  0.00000000000E+00 0. -1.
          6    1    1    2  501    0 -0.71172405625E+01 -0.42032165705E+02  0.36632443921E+03  0.40735727910E+03  0.17300000000E+03 0.  1.
         -6    1    1    2    0  502  0.71172405625E+01  0.42032165705E+02  0.81965875025E+02  0.19612435528E+03  0.17300000000E+03 0.  1.
<mgrwt>
<rscale>  2 0.17817508E+03</rscale>
<asrwt>0</asrwt>
<pdfrwt beam="1">  1       21 0.80905532E-01 0.17817508E+03</pdfrwt>
<pdfrwt beam="2">  1       21 0.11937794E-01 0.17817508E+03</pdfrwt>
<totfact> 0.79904189E+04</totfact>
</mgrwt>
</event>
<event>
 4    1  0.3901757E+000  0.2170250E+03  0.7546771E-02  0.1136121E+00
         21   -1    0    0  503  502  0.00000000000E+00  0.00000000000E+00  0.41117590041E+02  0.41117590041E+02  0.00000000000E+00 0. -1.
         21   -1    0    0  501  503 -0.00000000000E+00 -0.00000000000E+00 -0.12447378624E+04  0.12447378624E+04  0.00000000000E+00 0.  1.
          6    1    1    2  501    0  0.11493075763E+01 -0.13103261694E+03 -0.78335315847E+03  0.81286040530E+03  0.17300000000E+03 0.  1.
         -6    1    1    2    0  502 -0.11493075763E+01  0.13103261694E+03 -0.42026711390E+03  0.47299504716E+03  0.17300000000E+03 0. -1.
<mgrwt>
<rscale>  2 0.21702504E+03</rscale>
<asrwt>0</asrwt>
<pdfrwt beam="1">  1       21 0.63257833E-02 0.21702504E+03</pdfrwt>
<pdfrwt beam="2">  1       21 0.19149813E+00 0.21702504E+03</pdfrwt>
<totfact> 0.27001811E+04</totfact>
</mgrwt>
</event>
<event>
 4    1  0.3901757E+000  0.2244049E+03  0.7546771E-02  0.1130641E+00
         21   -1    0    0  501  502  0.00000000000E+00  0.00000000000E+00  0.47293865073E+03  0.47293865073E+03  0.00000000000E+00 0. -1.
         21   -1    0    0  502  503 -0.00000000000E+00 -0.00000000000E+00 -0.22472674892E+03  0.22472674892E+03  0.00000000000E+00 0.  1.
          6    1    1    2  501    0  0.76377725126E+02  0.12080978108E+03  0.37714531533E+03  0.43885777762E+03  0.17300000000E+03 0. -1.
         -6    1    1    2    0  503 -0.76377725126E+02 -0.12080978108E+03 -0.12893341352E+03  0.25880762203E+03  0.17300000000E+03 0.  1.
<mgrwt>
<rscale>  2 0.22440490E+03</rscale>
<asrwt>0</asrwt>
<pdfrwt beam="1">  1       21 0.72759792E-01 0.22440490E+03</pdfrwt>
<pdfrwt beam="2">  1       21 0.34573346E-01 0.22440490E+03</pdfrwt>
<totfact> 0.13444393E+04</totfact>
</mgrwt>
</event>
<event>
 4    1  0.3901757E+000  0.2165682E+03  0.7546771E-02  0.1136468E+00
         21   -1    0    0  501  502  0.00000000000E+00  0.00000000000E+00  0.42419844431E+02  0.42419844431E+02  0.00000000000E+00 0.  1.
         21   -1    0    0  502  503 -0.00000000000E+00 -0.00000000000E+00 -0.11565649690E+04  0.11565649690E+04  0.00000000000E+00 0.  1.
          6    1    1    2  501    0 -0.79901930775E+02  0.10290035149E+03 -0.68284667412E+03  0.71636679238E+03  0.17300000000E+03 0.  1.
         -6    1    1    2    0  503  0.79901930775E+02 -0.10290035149E+03 -0.43129845048E+03  0.48261802107E+03  0.17300000000E+03 0.  1.
<mgrwt>
<rscale>  2 0.21656824E+03</rscale>
<asrwt>0</asrwt>
<pdfrwt beam="1">  1       21 0.65261308E-02 0.21656824E+03</pdfrwt>
<pdfrwt beam="2">  1       21 0.17793305E+00 0.21656824E+03</pdfrwt>
<totfact> 0.31591359E+04</totfact>
</mgrwt>
</event>
<event>
 4    1  0.3901757E+000  0.2788129E+03  0.7546771E-02  0.1096339E+00
         21   -1    0    0  503  502  0.00000000000E+00  0.00000000000E+00  0.13367935012E+04  0.13367935012E+04  0.00000000000E+00 0.  1.
         21   -1    0    0  501  503 -0.00000000000E+00 -0.00000000000E+00 -0.62560885573E+02  0.62560885573E+02  0.00000000000E+00 0. -1.
          6    1    1    2  501    0  0.17224075034E+03  0.13468761311E+03  0.45136482273E+03  0.53053447805E+03  0.17300000000E+03 0. -1.
         -6    1    1    2    0  502 -0.17224075034E+03 -0.13468761311E+03  0.82286779287E+03  0.86881990870E+03  0.17300000000E+03 0.  1.
<mgrwt>
<rscale>  2 0.27881289E+03</rscale>
<asrwt>0</asrwt>
<pdfrwt beam="1">  1       21 0.20566052E+00 0.27881289E+03</pdfrwt>
<pdfrwt beam="2">  1       21 0.96247526E-02 0.27881289E+03</pdfrwt>
<totfact> 0.10080287E+04</totfact>
</mgrwt>
</event>
<event>
 4    1  0.3901757E+000  0.2256889E+03  0.7546771E-02  0.1129711E+00
         21   -1    0    0  501  502  0.00000000000E+00  0.00000000000E+00  0.74087904755E+02  0.74087904755E+02  0.00000000000E+00 0.  1.
         21   -1    0    0  502  503 -0.00000000000E+00 -0.00000000000E+00 -0.21799876610E+04  0.21799876610E+04  0.00000000000E+00 0.  1.
          6    1    1    2  501    0  0.10543476628E+03 -0.99448492836E+02 -0.12041149068E+03  0.25580152415E+03  0.17300000000E+03 0.  1.
         -6    1    1    2    0  503 -0.10543476628E+03  0.99448492836E+02 -0.19854882656E+04  0.19982740416E+04  0.17300000000E+03 0.  1.
<mgrwt>
<rscale>  2 0.22568893E+03</rscale>
<asrwt>0</asrwt>
<pdfrwt beam="1">  1       21 0.11398138E-01 0.22568893E+03</pdfrwt>
<pdfrwt beam="2">  1       21 0.33538276E+00 0.22568893E+03</pdfrwt>
<totfact> 0.13128227E+03</totfact>
</mgrwt>
</event>
<event>
 4    1  0.3901757E+000  0.2086220E+03  0.7546771E-02  0.1142662E+00
         21   -1    0    0  501  502  0.00000000000E+00  0.00000000000E+00  0.15862195513E+03  0.15862195513E+03  0.00000000000E+00 0.  1.
         21   -1    0    0  502  503 -0.00000000000E+00 -0.00000000000E+00 -0.27889723307E+03  0.27889723307E+03  0.00000000000E+00 0.  1.
          6    1    1    2  501    0  0.10486488243E+03  0.50965680927E+02 -0.32305653613E+02  0.21110850161E+03  0.17300000000E+03 0.  1.
         -6    1    1    2    0  503 -0.10486488243E+03 -0.50965680927E+02 -0.87969624328E+02  0.22641068659E+03  0.17300000000E+03 0.  1.
<mgrwt>
<rscale>  2 0.20862201E+03</rscale>
<asrwt>0</asrwt>
<pdfrwt beam="1">  1       21 0.24403378E-01 0.20862201E+03</pdfrwt>
<pdfrwt beam="2">  1       21 0.42907267E-01 0.20862201E+03</pdfrwt>
<totfact> 0.82293271E+04</totfact>
</mgrwt>
</event>
<event>
 4    1  0.3901757E+000  0.2367327E+03  0.7546771E-02  0.1121989E+00
         21   -1    0    0  503  502  0.00000000000E+00  0.00000000000E+00  0.58240121720E+02  0.58240121720E+02  0.00000000000E+00 0.  1.
         21   -1    0    0  501  503 -0.00000000000E+00 -0.00000000000E+00 -0.14547959396E+04  0.14547959396E+04  0.00000000000E+00 0. -1.
          6    1    1    2  501    0 -0.11608673456E+03  0.11241557809E+03 -0.25809285354E+03  0.35022037803E+03  0.17300000000E+03 0.  1.
         -6    1    1    2    0  502  0.11608673456E+03 -0.11241557809E+03 -0.11384629643E+04  0.11628156833E+04  0.17300000000E+03 0. -1.
<mgrwt>
<rscale>  2 0.23673274E+03</rscale>
<asrwt>0</asrwt>
<pdfrwt beam="1">  1       21 0.89600191E-02 0.23673274E+03</pdfrwt>
<pdfrwt beam="2">  1       21 0.22381475E+00 0.23673274E+03</pdfrwt>
<totfact> 0.90459210E+03</totfact>
</mgrwt>
</event>
<event>
 4    1  0.3901757E+000  0.1743442E+03  0.7546771E-02  0.1173392E+00
         21   -1    0    0  501  502  0.00000000000E+00  0.00000000000E+00  0.51652351993E+03  0.51652351993E+03  0.00000000000E+00 0.  1.
         21   -1    0    0  502  503 -0.00000000000E+00 -0.00000000000E+00 -0.11245558793E+04  0.11245558793E+04  0.00000000000E+00 0.  1.
          6    1    1    2  501    0 -0.17953102036E+02  0.12024820615E+02  0.49476596788E+03  0.52458485792E+03  0.17300000000E+03 0.  1.
         -6    1    1    2    0  503  0.17953102036E+02 -0.12024820615E+02 -0.11027983272E+04  0.11164945413E+04  0.17300000000E+03 0.  1.
<mgrwt>
<rscale>  2 0.17434423E+03</rscale>
<asrwt>0</asrwt>
<pdfrwt beam="1">  1       21 0.79465159E-01 0.17434423E+03</pdfrwt>
<pdfrwt beam="2">  1       21 0.17300859E+00 0.17434423E+03</pdfrwt>
<totfact> 0.29076645E+02</totfact>
</mgrwt>
</event>
<event>
 4    1  0.3901757E+000  0.2331907E+03  0.7546771E-02  0.1124414E+00
         21   -1    0    0  503  502  0.00000000000E+00  0.00000000000E+00  0.34123540751E+03  0.34123540751E+03  0.00000000000E+00 0. -1.
         21   -1    0    0  501  503 -0.00000000000E+00 -0.00000000000E+00 -0.17293654322E+03  0.17293654322E+03  0.00000000000E+00 0.  1.
          6    1    1    2  501    0 -0.15406611124E+03  0.26693367293E+02  0.12106081555E+02  0.23350473164E+03  0.17300000000E+03 0.  1.
         -6    1    1    2    0  502  0.15406611124E+03 -0.26693367293E+02  0.15619278273E+03  0.28066721908E+03  0.17300000000E+03 0. -1.
<mgrwt>
<rscale>  2 0.23319070E+03</rscale>
<asrwt>0</asrwt>
<pdfrwt beam="1">  1       21 0.52497755E-01 0.23319070E+03</pdfrwt>
<pdfrwt beam="2">  1       21 0.26605622E-01 0.23319070E+03</pdfrwt>
<totfact> 0.45381914E+04</totfact>
</mgrwt>
</event>
<event>
 4    1  0.3901757E+000  0.2399543E+03  0.7546771E-02  0.1119823E+00
         21   -1    0    0  501  502  0.00000000000E+00  0.00000000000E+00  0.63054823939E+03  0.63054823939E+03  0.00000000000E+00 0. -1.
         21   -1    0    0  502  503 -0.00000000000E+00 -0.00000000000E+00 -0.10819141632E+03  0.10819141632E+03  0.00000000000E+00 0.  1.
          6    1    1    2  501    0 -0.13111044121E+03  0.10226986994E+03  0.40706456537E+03  0.47252474483E+03  0.17300000000E+03 0. -1.
         -6    1    1    2    0  503  0.13111044121E+03 -0.10226986994E+03  0.11529225770E+03  0.26621491089E+03  0.17300000000E+03 0.  1.
<mgrwt>
<rscale>  2 0.23995432E+03</rscale>
<asrwt>0</asrwt>
<pdfrwt beam="1">  1       21 0.97007420E-01 0.23995432E+03</pdfrwt>
<pdfrwt beam="2">  1       21 0.16644834E-01 0.23995432E+03</pdfrwt>
<totfact> 0.27884842E+04</totfact>
</mgrwt>
</event>
<event>
 4    1  0.3901757E+000  0.1762520E+03  0.7546771E-02  0.1171481E+00
         21   -1    0    0  501  502  0.00000000000E+00  0.00000000000E+00  0.74545733608E+02  0.74545733608E+02  0.00000000000E+00 0.  1.
         21   -1    0    0  502  503 -0.00000000000E+00 -0.00000000000E+00 -0.10235974061E+04  0.10235974061E+04  0.00000000000E+00 0.  1.
          6    1    1    2  501    0 -0.30907960508E+02  0.13433201050E+02 -0.51745684489E+02  0.18369095997E+03  0.17300000000E+03 0.  1.
         -6    1    1    2    0  503  0.30907960508E+02 -0.13433201050E+02 -0.89730598798E+03  0.91445217971E+03  0.17300000000E+03 0.  1.
<mgrwt>
<rscale>  2 0.17625196E+03</rscale>
<asrwt>0</asrwt>
<pdfrwt beam="1">  1       21 0.11468576E-01 0.17625196E+03</pdfrwt>
<pdfrwt beam="2">  1       21 0.15747651E+00 0.17625196E+03</pdfrwt>
<totfact> 0.16912224E+04</totfact>
</mgrwt>
</event>
<event>
 4    1  0.3901757E+000  0.2386973E+03  0.7546771E-02  0.1120664E+00
         21   -1    0    0  501  502  0.00000000000E+00  0.00000000000E+00  0.20316603324E+03  0.20316603324E+03  0.00000000000E+00 0.  1.
         21   -1    0    0  502  503 -0.00000000000E+00 -0.00000000000E+00 -0.30690005530E+03  0.30690005530E+03  0.00000000000E+00 0. -1.
          6    1    1    2  501    0 -0.71419380427E+02 -0.14814416393E+03 -0.12674800117E+03  0.27026186747E+03  0.17300000000E+03 0. -1.
         -6    1    1    2    0  503  0.71419380427E+02  0.14814416393E+03  0.23013979109E+02  0.23980422107E+03  0.17300000000E+03 0.  1.
<mgrwt>
<rscale>  2 0.23869734E+03</rscale>
<asrwt>0</asrwt>
<pdfrwt beam="1">  1       21 0.31256313E-01 0.23869734E+03</pdfrwt>
<pdfrwt beam="2">  1       21 0.47215393E-01 0.23869734E+03</pdfrwt>
<totfact> 0.41296077E+04</totfact>
</mgrwt>
</event>
<event>
 4    1  0.3901757E+000  0.1924927E+03  0.7546771E-02  0.1156232E+00
         21   -1    0    0  501  502  0.00000000000E+00  0.00000000000E+00  0.26346757959E+03  0.26346757959E+03  0.00000000000E+00 0.  1.
         21   -1    0    0  502  503 -0.00000000000E+00 -0.00000000000E+00 -0.14524788016E+03  0.14524788016E+03  0.00000000000E+00 0.  1.
          6    1    1    2  501    0 -0.36234622668E+02  0.76233156900E+02  0.22701508192E+02  0.19382672820E+03  0.17300000000E+03 0. -1.
         -6    1    1    2    0  503  0.36234622668E+02 -0.76233156900E+02  0.95518191230E+02  0.21488873155E+03  0.17300000000E+03 0. -1.
<mgrwt>
<rscale>  2 0.19249271E+03</rscale>
<asrwt>0</asrwt>
<pdfrwt beam="1">  1       21 0.40533474E-01 0.19249271E+03</pdfrwt>
<pdfrwt beam="2">  1       21 0.22345828E-01 0.19249271E+03</pdfrwt>
<totfact> 0.10992993E+05</totfact>
</mgrwt>
</event>
<event>
 4    1  0.3901757E+000  0.1868442E+03  0.7546771E-02  0.1161339E+00
         21   -1    0    0  503  502  0.00000000000E+00  0.00000000000E+00  0.11216953420E+03  0.11216953420E+03  0.00000000000E+00 0. -1.
         21   -1    0    0  501  503 -0.00000000000E+00 -0.00000000000E+00 -0.33689625170E+03  0.33689625170E+03  0.00000000000E+00 0. -1.
          6    1    1    2  501    0  0.40222632130E+02  0.57999107023E+02 -0.17433536782E+03  0.25554564567E+03  0.17300000000E+03 0. -1.
         -6    1    1    2    0  502 -0.40222632130E+02 -0.57999107023E+02 -0.50391349676E+02  0.19352014023E+03  0.17300000000E+03 0. -1.
<mgrwt>
<rscale>  2 0.18684420E+03</rscale>
<asrwt>0</asrwt>
<pdfrwt beam="1">  1       21 0.17256851E-01 0.18684420E+03</pdfrwt>
<pdfrwt beam="2">  1       21 0.51830193E-01 0.18684420E+03</pdfrwt>
<totfact> 0.10749437E+05</totfact>
</mgrwt>
</event>
<event>
 4    1  0.3901757E+000  0.3047324E+03  0.7546771E-02  0.1082899E+00
         21   -1    0    0  501  502  0.00000000000E+00  0.00000000000E+00  0.12656542339E+03  0.12656542339E+03  0.00000000000E+00 0. -1.
         21   -1    0    0  502  503 -0.00000000000E+00 -0.00000000000E+00 -0.11022831833E+04  0.11022831833E+04  0.00000000000E+00 0.  1.
          6    1    1    2  501    0 -0.24349672859E+03  0.60350392721E+02 -0.13256645935E+03  0.33231866165E+03  0.17300000000E+03 0.  1.
         -6    1    1    2    0  503  0.24349672859E+03 -0.60350392721E+02 -0.84315130058E+03  0.89652994507E+03  0.17300000000E+03 0.  1.
<mgrwt>
<rscale>  2 0.30473239E+03</rscale>
<asrwt>0</asrwt>
<pdfrwt beam="1">  1       21 0.19471604E-01 0.30473239E+03</pdfrwt>
<pdfrwt beam="2">  1       21 0.16958203E+00 0.30473239E+03</pdfrwt>
<totfact> 0.48183321E+03</totfact>
</mgrwt>
</event>
<event>
 4    1  0.3901757E+000  0.1762358E+03  0.7546771E-02  0.1171497E+00
         21   -1    0    0  503  502  0.00000000000E+00  0.00000000000E+00  0.10975707014E+03  0.10975707014E+03  0.00000000000E+00 0. -1.
         21   -1    0    0  501  503 -0.00000000000E+00 -0.00000000000E+00 -0.57792118234E+03  0.57792118234E+03  0.00000000000E+00 0. -1.
          6    1    1    2  501    0 -0.20788198498E+02 -0.26418219925E+02 -0.47971611823E+03  0.51106420891E+03  0.17300000000E+03 0. -1.
         -6    1    1    2    0  502  0.20788198498E+02  0.26418219925E+02  0.11552006025E+02  0.17661404356E+03  0.17300000000E+03 0. -1.
<mgrwt>
<rscale>  2 0.17623584E+03</rscale>
<asrwt>0</asrwt>
<pdfrwt beam="1">  1       21 0.16885704E-01 0.17623584E+03</pdfrwt>
<pdfrwt beam="2">  1       21 0.88910949E-01 0.17623584E+03</pdfrwt>
<totfact> 0.34437191E+04</totfact>
</mgrwt>
</event>
<event>
 4    1  0.3901757E+000  0.1750330E+03  0.7546771E-02  0.1172699E+00
         21   -1    0    0  503  502  0.00000000000E+00  0.00000000000E+00  0.10623050491E+04  0.10623050491E+04  0.00000000000E+00 0. -1.
         21   -1    0    0  501  503 -0.00000000000E+00 -0.00000000000E+00 -0.31440411933E+02  0.31440411933E+02  0.00000000000E+00 0. -1.
          6    1    1    2  501    0 -0.18409256369E+01  0.26536132079E+02  0.67271777378E+03  0.69511564395E+03  0.17300000000E+03 0. -1.
         -6    1    1    2    0  502  0.18409256369E+01 -0.26536132079E+02  0.35814686343E+03  0.39862981712E+03  0.17300000000E+03 0. -1.
<mgrwt>
<rscale>  2 0.17503301E+03</rscale>
<asrwt>0</asrwt>
<pdfrwt beam="1">  1       21 0.16343152E+00 0.17503301E+03</pdfrwt>
<pdfrwt beam="2">  1       21 0.48369873E-02 0.17503301E+03</pdfrwt>
<totfact> 0.68277909E+04</totfact>
</mgrwt>
</event>
<event>
 4    1  0.3901757E+000  0.2606702E+03  0.7546771E-02  0.1106741E+00
         21   -1    0    0  501  502  0.00000000000E+00  0.00000000000E+00  0.10548935557E+04  0.10548935557E+04  0.00000000000E+00 0.  1.
         21   -1    0    0  502  503 -0.00000000000E+00 -0.00000000000E+00 -0.76842362198E+02  0.76842362198E+02  0.00000000000E+00 0. -1.
          6    1    1    2  501    0  0.18427619107E+03 -0.63735606333E+02  0.71660753356E+03  0.76254527687E+03  0.17300000000E+03 0.  1.
         -6    1    1    2    0  503 -0.18427619107E+03  0.63735606333E+02  0.26144365997E+03  0.36919064107E+03  0.17300000000E+03 0. -1.
<mgrwt>
<rscale>  2 0.26067018E+03</rscale>
<asrwt>0</asrwt>
<pdfrwt beam="1">  1       21 0.16229131E+00 0.26067018E+03</pdfrwt>
<pdfrwt beam="2">  1       21 0.11821903E-01 0.26067018E+03</pdfrwt>
<totfact> 0.13967368E+04</totfact>
</mgrwt>
</event>
<event>
 4    1  0.3901757E+000  0.2445905E+03  0.7546771E-02  0.1116772E+00
         21   -1    0    0  501  502  0.00000000000E+00  0.00000000000E+00  0.47489581122E+03  0.47489581122E+03  0.00000000000E+00 0. -1.
         21   -1    0    0  502  503 -0.00000000000E+00 -0.00000000000E+00 -0.13956406298E+03  0.13956406298E+03  0.00000000000E+00 0. -1.
          6    1    1    2  501    0  0.17143253193E+03  0.22503750639E+02  0.26353686881E+03  0.35955001463E+03  0.17300000000E+03 0. -1.
         -6    1    1    2    0  503 -0.17143253193E+03 -0.22503750639E+02  0.71794879424E+02  0.25490985957E+03  0.17300000000E+03 0. -1.
<mgrwt>
<rscale>  2 0.24459054E+03</rscale>
<asrwt>0</asrwt>
<pdfrwt beam="1">  1       21 0.73060893E-01 0.24459054E+03</pdfrwt>
<pdfrwt beam="2">  1       21 0.21471395E-01 0.24459054E+03</pdfrwt>
<totfact> 0.33183102E+04</totfact>
</mgrwt>
</event>
<event>
 4    1  0.3901757E+000  0.1894569E+03  0.7546771E-02  0.1158952E+00
         21   -1    0    0  503  502  0.00000000000E+00  0.00000000000E+00  0.88538070128E+02  0.88538070128E+02  0.00000000000E+00 0.  1.
         21   -1    0    0  501  503 -0.00000000000E+00 -0.00000000000E+00 -0.81633862975E+03  0.81633862975E+03  0.00000000000E+00 0.  1.
          6    1    1    2  501    0 -0.68677626509E+02 -0.35331543853E+02 -0.68490331187E+03  0.71062400816E+03  0.17300000000E+03 0.  1.
         -6    1    1    2    0  502  0.68677626509E+02  0.35331543853E+02 -0.42897247757E+02  0.19425269172E+03  0.17300000000E+03 0.  1.
<mgrwt>
<rscale>  2 0.18945695E+03</rscale>
<asrwt>0</asrwt>
<pdfrwt beam="1">  1       21 0.13621242E-01 0.18945695E+03</pdfrwt>
<pdfrwt beam="2">  1       21 0.12559056E+00 0.18945695E+03</pdfrwt>
<totfact> 0.22072274E+04</totfact>
</mgrwt>
</event>
<event>
 4    1  0.3901757E+000  0.1890165E+03  0.7546771E-02  0.1159351E+00
         21   -1    0    0  503  502  0.00000000000E+00  0.00000000000E+00  0.11223185397E+04  0.11223185397E+04  0.00000000000E+00 0. -1.
         21   -1    0    0  501  503 -0.00000000000E+00 -0.00000000000E+00 -0.68901667516E+02  0.68901667516E+02  0.00000000000E+00 0. -1.
          6    1    1    2  501    0  0.26799307939E+02 -0.71274275036E+02  0.89842400917E+02  0.20928182480E+03  0.17300000000E+03 0. -1.
         -6    1    1    2    0  502 -0.26799307939E+02  0.71274275036E+02  0.96357447126E+03  0.98193838241E+03  0.17300000000E+03 0. -1.
<mgrwt>
<rscale>  2 0.18901647E+03</rscale>
<asrwt>0</asrwt>
<pdfrwt beam="1">  1       21 0.17266438E+00 0.18901647E+03</pdfrwt>
<pdfrwt beam="2">  1       21 0.10600257E-01 0.18901647E+03</pdfrwt>
<totfact> 0.15001939E+04</totfact>
</mgrwt>
</event>
<event>
 4    1  0.3901757E+000  0.1791868E+03  0.7546771E-02  0.1168592E+00
         21   -1    0    0  501  502  0.00000000000E+00  0.00000000000E+00  0.47002151735E+03  0.47002151735E+03  0.00000000000E+00 0.  1.
         21   -1    0    0  502  503 -0.00000000000E+00 -0.00000000000E+00 -0.74648194157E+02  0.74648194157E+02  0.00000000000E+00 0.  1.
          6    1    1    2  501    0  0.45739221836E+02  0.93185985081E+01  0.27703214185E+03  0.32993138727E+03  0.17300000000E+03 0.  1.
         -6    1    1    2    0  503 -0.45739221836E+02 -0.93185985081E+01  0.11834118135E+03  0.21473832424E+03  0.17300000000E+03 0.  1.
<mgrwt>
<rscale>  2 0.17918681E+03</rscale>
<asrwt>0</asrwt>
<pdfrwt beam="1">  1       21 0.72311001E-01 0.17918681E+03</pdfrwt>
<pdfrwt beam="2">  1       21 0.11484338E-01 0.17918681E+03</pdfrwt>
<totfact> 0.11001367E+05</totfact>
</mgrwt>
</event>
<event>
 4    1  0.3901757E+000  0.3108817E+03  0.7546771E-02  0.1079924E+00
         21   -1    0    0  501  502  0.00000000000E+00  0.00000000000E+00  0.28797840642E+03  0.28797840642E+03  0.00000000000E+00 0. -1.
         21   -1    0    0  502  503 -0.00000000000E+00 -0.00000000000E+00 -0.78764750441E+03  0.78764750441E+03  0.00000000000E+00 0.  1.
          6    1    1    2  501    0 -0.21155230474E+03 -0.14820264351E+03  0.15759663363E+03  0.34854569301E+03  0.17300000000E+03 0. -1.
         -6    1    1    2    0  503  0.21155230474E+03  0.14820264351E+03 -0.65726573162E+03  0.72708021782E+03  0.17300000000E+03 0.  1.
<mgrwt>
<rscale>  2 0.31088165E+03</rscale>
<asrwt>0</asrwt>
<pdfrwt beam="1">  1       21 0.44304370E-01 0.31088165E+03</pdfrwt>
<pdfrwt beam="2">  1       21 0.12117654E+00 0.31088165E+03</pdfrwt>
<totfact> 0.23170635E+03</totfact>
</mgrwt>
</event>
<event>
 4    1  0.3901757E+000  0.2353004E+03  0.7546771E-02  0.1122964E+00
         21   -1    0    0  503  502  0.00000000000E+00  0.00000000000E+00  0.15120314943E+03  0.15120314943E+03  0.00000000000E+00 0. -1.
         21   -1    0    0  501  503 -0.00000000000E+00 -0.00000000000E+00 -0.43880243149E+03  0.43880243149E+03  0.00000000000E+00 0.  1.
          6    1    1    2  501    0  0.38598722536E+02  0.15474946503E+03 -0.26381944882E+03  0.35350666173E+03  0.17300000000E+03 0.  1.
         -6    1    1    2    0  502 -0.38598722536E+02 -0.15474946503E+03 -0.23779833244E+02  0.23649891919E+03  0.17300000000E+03 0. -1.
<mgrwt>
<rscale>  2 0.23530036E+03</rscale>
<asrwt>0</asrwt>
<pdfrwt beam="1">  1       21 0.23262023E-01 0.23530036E+03</pdfrwt>
<pdfrwt beam="2">  1       21 0.67508065E-01 0.23530036E+03</pdfrwt>
<totfact> 0.34111853E+04</totfact>
</mgrwt>
</event>
<event>
 4    1  0.3901757E+000  0.2449314E+03  0.7546771E-02  0.1116551E+00
         21   -1    0    0  503  502  0.00000000000E+00  0.00000000000E+00  0.55696300135E+02  0.55696300135E+02  0.00000000000E+00 0. -1.
         21   -1    0    0  501  503 -0.00000000000E+00 -0.00000000000E+00 -0.10780145545E+04  0.10780145545E+04  0.00000000000E+00 0. -1.
          6    1    1    2  501    0  0.17310399969E+03  0.98678286635E+01 -0.52752592574E+03  0.58161410839E+03  0.17300000000E+03 0. -1.
         -6    1    1    2    0  502 -0.17310399969E+03 -0.98678286635E+01 -0.49479232864E+03  0.55209674626E+03  0.17300000000E+03 0. -1.
<mgrwt>
<rscale>  2 0.24493136E+03</rscale>
<asrwt>0</asrwt>
<pdfrwt beam="1">  1       21 0.85686616E-02 0.24493136E+03</pdfrwt>
<pdfrwt beam="2">  1       21 0.16584839E+00 0.24493136E+03</pdfrwt>
<totfact> 0.23528846E+04</totfact>
</mgrwt>
</event>
<event>
 4    1  0.3901757E+000  0.1818126E+03  0.7546771E-02  0.1166060E+00
         21   -1    0    0  503  502  0.00000000000E+00  0.00000000000E+00  0.10153916990E+04  0.10153916990E+04  0.00000000000E+00 0. -1.
         21   -1    0    0  501  503 -0.00000000000E+00 -0.00000000000E+00 -0.69814817529E+02  0.69814817529E+02  0.00000000000E+00 0. -1.
          6    1    1    2  501    0 -0.55313129516E+02  0.82019473364E+01  0.76391346449E+02  0.19720915813E+03  0.17300000000E+03 0. -1.
         -6    1    1    2    0  502  0.55313129516E+02 -0.82019473364E+01  0.86918553502E+03  0.88799735840E+03  0.17300000000E+03 0. -1.
<mgrwt>
<rscale>  2 0.18181258E+03</rscale>
<asrwt>0</asrwt>
<pdfrwt beam="1">  1       21 0.15621410E+00 0.18181258E+03</pdfrwt>
<pdfrwt beam="2">  1       21 0.10740742E-01 0.18181258E+03</pdfrwt>
<totfact> 0.19336132E+04</totfact>
</mgrwt>
</event>
<event>
 4    1  0.3901757E+000  0.1737994E+03  0.7546771E-02  0.1173943E+00
         21   -1    0    0  503  502  0.00000000000E+00  0.00000000000E+00  0.13545452050E+03  0.13545452050E+03  0.00000000000E+00 0. -1.
         21   -1    0    0  501  503 -0.00000000000E+00 -0.00000000000E+00 -0.22665066544E+03  0.22665066544E+03  0.00000000000E+00 0. -1.
          6    1    1    2  501    0 -0.55181430277E+01  0.15709010367E+02 -0.68579214788E+02  0.18684039074E+03  0.17300000000E+03 0. -1.
         -6    1    1    2    0  502  0.55181430277E+01 -0.15709010367E+02 -0.22616930152E+02  0.17526479521E+03  0.17300000000E+03 0. -1.
<mgrwt>
<rscale>  2 0.17379938E+03</rscale>
<asrwt>0</asrwt>
<pdfrwt beam="1">  1       21 0.20839157E-01 0.17379938E+03</pdfrwt>
<pdfrwt beam="2">  1       21 0.34869333E-01 0.17379938E+03</pdfrwt>
<totfact> 0.17044002E+05</totfact>
</mgrwt>
</event>
<event>
 4    1  0.3901757E+000  0.2324614E+03  0.7546771E-02  0.1124919E+00
         21   -1    0    0  503  502  0.00000000000E+00  0.00000000000E+00  0.29590136947E+02  0.29590136947E+02  0.00000000000E+00 0. -1.
         21   -1    0    0  501  503 -0.00000000000E+00 -0.00000000000E+00 -0.18282228562E+04  0.18282228562E+04  0.00000000000E+00 0.  1.
          6    1    1    2  501    0 -0.25702656568E+02  0.15312964438E+03 -0.93000618438E+03  0.95861870289E+03  0.17300000000E+03 0. -1.
         -6    1    1    2    0  502  0.25702656568E+02 -0.15312964438E+03 -0.86862653482E+03  0.89919429021E+03  0.17300000000E+03 0. -1.
<mgrwt>
<rscale>  2 0.23246143E+03</rscale>
<asrwt>0</asrwt>
<pdfrwt beam="1">  1       21 0.45523289E-02 0.23246143E+03</pdfrwt>
<pdfrwt beam="2">  1       21 0.28126505E+00 0.23246143E+03</pdfrwt>
<totfact> 0.13293996E+04</totfact>
</mgrwt>
</event>
<event>
 4    1  0.3901757E+000  0.2262774E+03  0.7546771E-02  0.1129288E+00
         21   -1    0    0  503  502  0.00000000000E+00  0.00000000000E+00  0.18978254578E+04  0.18978254578E+04  0.00000000000E+00 0. -1.
         21   -1    0    0  501  503 -0.00000000000E+00 -0.00000000000E+00 -0.36697334688E+02  0.36697334688E+02  0.00000000000E+00 0. -1.
          6    1    1    2  501    0 -0.69188361086E+02 -0.12839562602E+03  0.43280161269E+03  0.48838376513E+03  0.17300000000E+03 0. -1.
         -6    1    1    2    0  502  0.69188361086E+02  0.12839562602E+03  0.14283265104E+04  0.14461390274E+04  0.17300000000E+03 0. -1.
<mgrwt>
<rscale>  2 0.22627741E+03</rscale>
<asrwt>0</asrwt>
<pdfrwt beam="1">  1       21 0.29197307E+00 0.22627741E+03</pdfrwt>
<pdfrwt beam="2">  1       21 0.56457453E-02 0.22627741E+03</pdfrwt>
<totfact> 0.80277129E+03</totfact>
</mgrwt>
</event>
<event>
 4    1  0.3901757E+000  0.1752277E+03  0.7546771E-02  0.1172503E+00
         21   -1    0    0  503  502  0.00000000000E+00  0.00000000000E+00  0.81862192609E+02  0.81862192609E+02  0.00000000000E+00 0.  1.
         21   -1    0    0  501  503 -0.00000000000E+00 -0.00000000000E+00 -0.10334480246E+04  0.10334480246E+04  0.00000000000E+00 0.  1.
          6    1    1    2  501    0  0.17320817061E+02  0.21811689710E+02 -0.92089146273E+03  0.93741444764E+03  0.17300000000E+03 0.  1.
         -6    1    1    2    0  502 -0.17320817061E+02 -0.21811689710E+02 -0.30694369210E+02  0.17789576952E+03  0.17300000000E+03 0.  1.
<mgrwt>
<rscale>  2 0.17522774E+03</rscale>
<asrwt>0</asrwt>
<pdfrwt beam="1">  1       21 0.12594183E-01 0.17522774E+03</pdfrwt>
<pdfrwt beam="2">  1       21 0.15899201E+00 0.17522774E+03</pdfrwt>
<totfact> 0.13957564E+04</totfact>
</mgrwt>
</event>
<event>
 4    1  0.3901757E+000  0.2370944E+03  0.7546771E-02  0.1121744E+00
         21   -1    0    0  501  502  0.00000000000E+00  0.00000000000E+00  0.37378527384E+02  0.37378527384E+02  0.00000000000E+00 0.  1.
         21   -1    0    0  502  503 -0.00000000000E+00 -0.00000000000E+00 -0.16306938162E+04  0.16306938162E+04  0.00000000000E+00 0. -1.
          6    1    1    2  501    0 -0.15920846687E+03  0.30617048912E+02 -0.56409507481E+03  0.61189622734E+03  0.17300000000E+03 0. -1.
         -6    1    1    2    0  503  0.15920846687E+03 -0.30617048912E+02 -0.10292202140E+04  0.10561761163E+04  0.17300000000E+03 0. -1.
<mgrwt>
<rscale>  2 0.23709437E+03</rscale>
<asrwt>0</asrwt>
<pdfrwt beam="1">  1       21 0.57505419E-02 0.23709437E+03</pdfrwt>
<pdfrwt beam="2">  1       21 0.25087601E+00 0.23709437E+03</pdfrwt>
<totfact> 0.13415276E+04</totfact>
</mgrwt>
</event>
<event>
 4    1  0.3901757E+000  0.1919813E+03  0.7546771E-02  0.1156686E+00
         21   -1    0    0  501  502  0.00000000000E+00  0.00000000000E+00  0.87156637012E+02  0.87156637012E+02  0.00000000000E+00 0. -1.
         21   -1    0    0  502  503 -0.00000000000E+00 -0.00000000000E+00 -0.56888228571E+03  0.56888228571E+03  0.00000000000E+00 0. -1.
          6    1    1    2  501    0 -0.73596812820E+02  0.38875722291E+02 -0.74686941530E+02  0.20599745599E+03  0.17300000000E+03 0. -1.
         -6    1    1    2    0  503  0.73596812820E+02 -0.38875722291E+02 -0.40703870717E+03  0.45004146673E+03  0.17300000000E+03 0. -1.
<mgrwt>
<rscale>  2 0.19198128E+03</rscale>
<asrwt>0</asrwt>
<pdfrwt beam="1">  1       21 0.13408713E-01 0.19198128E+03</pdfrwt>
<pdfrwt beam="2">  1       21 0.87520353E-01 0.19198128E+03</pdfrwt>
<totfact> 0.53887090E+04</totfact>
</mgrwt>
</event>
<event>
 4    1  0.3901757E+000  0.2223961E+03  0.7546771E-02  0.1132109E+00
         21   -1    0    0  501  502  0.00000000000E+00  0.00000000000E+00  0.31465541926E+03  0.31465541926E+03  0.00000000000E+00 0.  1.
         21   -1    0    0  502  503 -0.00000000000E+00 -0.00000000000E+00 -0.19468561320E+03  0.19468561320E+03  0.00000000000E+00 0. -1.
          6    1    1    2  501    0 -0.87450267742E+02  0.10901135149E+03  0.17175204345E+03  0.28099606494E+03  0.17300000000E+03 0.  1.
         -6    1    1    2    0  503  0.87450267742E+02 -0.10901135149E+03 -0.51782237399E+02  0.22834496752E+03  0.17300000000E+03 0. -1.
<mgrwt>
<rscale>  2 0.22239610E+03</rscale>
<asrwt>0</asrwt>
<pdfrwt beam="1">  1       21 0.48408526E-01 0.22239610E+03</pdfrwt>
<pdfrwt beam="2">  1       21 0.29951633E-01 0.22239610E+03</pdfrwt>
<totfact> 0.42937885E+04</totfact>
</mgrwt>
</event>
<event>
 4    1  0.3901757E+000  0.2541576E+03  0.7546771E-02  0.1110705E+00
         21   -1    0    0  503  502  0.00000000000E+00  0.00000000000E+00  0.71567476216E+02  0.71567476216E+02  0.00000000000E+00 0. -1.
         21   -1    0    0  501  503 -0.00000000000E+00 -0.00000000000E+00 -0.93869177168E+03  0.93869177168E+03  0.00000000000E+00 0.  1.
          6    1    1    2  501    0 -0.30728561240E+02  0.18363779837E+03 -0.33450043461E+03  0.42010311380E+03  0.17300000000E+03 0. -1.
         -6    1    1    2    0  502  0.30728561240E+02 -0.18363779837E+03 -0.53262386085E+03  0.59015613410E+03  0.17300000000E+03 0.  1.
<mgrwt>
<rscale>  2 0.25415760E+03</rscale>
<asrwt>0</asrwt>
<pdfrwt beam="1">  1       21 0.11010381E-01 0.25415760E+03</pdfrwt>
<pdfrwt beam="2">  1       21 0.14441412E+00 0.25415760E+03</pdfrwt>
<totfact> 0.21781886E+04</totfact>
</mgrwt>
</event>
<event>
 4    1  0.3901757E+000  0.1734044E+03  0.7546771E-02  0.1174343E+00
         21   -1    0    0  503  502  0.00000000000E+00  0.00000000000E+00  0.95701766428E+03  0.95701766428E+03  0.00000000000E+00 0.  1.
         21   -1    0    0  501  503 -0.00000000000E+00 -0.00000000000E+00 -0.98013451369E+02  0.98013451369E+02  0.00000000000E+00 0.  1.
          6    1    1    2  501    0 -0.10624769628E+02  0.52170272596E+01 -0.53179105742E+01  0.17348597429E+03  0.17300000000E+03 0.  1.
         -6    1    1    2    0  502  0.10624769628E+02 -0.52170272596E+01  0.86432212348E+03  0.88154514135E+03  0.17300000000E+03 0.  1.
<mgrwt>
<rscale>  2 0.17340445E+03</rscale>
<asrwt>0</asrwt>
<pdfrwt beam="1">  1       21 0.14723348E+00 0.17340445E+03</pdfrwt>
<pdfrwt beam="2">  1       21 0.15078993E-01 0.17340445E+03</pdfrwt>
<totfact> 0.12372157E+04</totfact>
</mgrwt>
</event>
<event>
 4    1  0.3901757E+000  0.1812015E+03  0.7546771E-02  0.1166645E+00
         21   -1    0    0  501  502  0.00000000000E+00  0.00000000000E+00  0.48744646000E+02  0.48744646000E+02  0.00000000000E+00 0. -1.
         21   -1    0    0  502  503 -0.00000000000E+00 -0.00000000000E+00 -0.81054126880E+03  0.81054126880E+03  0.00000000000E+00 0. -1.
          6    1    1    2  501    0 -0.44564981871E+02 -0.30314182020E+02 -0.20429431703E+03  0.27307536544E+03  0.17300000000E+03 0. -1.
         -6    1    1    2    0  503  0.44564981871E+02  0.30314182020E+02 -0.55750230577E+03  0.58621054936E+03  0.17300000000E+03 0. -1.
<mgrwt>
<rscale>  2 0.18120151E+03</rscale>
<asrwt>0</asrwt>
<pdfrwt beam="1">  1       21 0.74991770E-02 0.18120151E+03</pdfrwt>
<pdfrwt beam="2">  1       21 0.12469865E+00 0.18120151E+03</pdfrwt>
<totfact> 0.64800799E+04</totfact>
</mgrwt>
</event>
<event>
 4    1  0.3901757E+000  0.2282627E+03  0.7546771E-02  0.1127869E+00
         21   -1    0    0  503  502  0.00000000000E+00  0.00000000000E+00  0.23383725154E+02  0.23383725154E+02  0.00000000000E+00 0. -1.
         21   -1    0    0  501  503 -0.00000000000E+00 -0.00000000000E+00 -0.22318847280E+04  0.22318847280E+04  0.00000000000E+00 0. -1.
          6    1    1    2  501    0 -0.61448019402E+02  0.13564291912E+03 -0.10584975869E+04  0.10828300892E+04  0.17300000000E+03 0. -1.
         -6    1    1    2    0  502  0.61448019402E+02 -0.13564291912E+03 -0.11500034159E+04  0.11724383640E+04  0.17300000000E+03 0. -1.
<mgrwt>
<rscale>  2 0.22826270E+03</rscale>
<asrwt>0</asrwt>
<pdfrwt beam="1">  1       21 0.35974954E-02 0.22826270E+03</pdfrwt>
<pdfrwt beam="2">  1       21 0.34336696E+00 0.22826270E+03</pdfrwt>
<totfact> 0.86039778E+03</totfact>
</mgrwt>
</event>
<event>
 4    1  0.3901757E+000  0.1999239E+03  0.7546771E-02  0.1149803E+00
         21   -1    0    0  501  502  0.00000000000E+00  0.00000000000E+00  0.14289202079E+03  0.14289202079E+03  0.00000000000E+00 0.  1.
         21   -1    0    0  502  503 -0.00000000000E+00 -0.00000000000E+00 -0.27972952621E+03  0.27972952621E+03  0.00000000000E+00 0.  1.
          6    1    1    2  501    0  0.74907947118E+02 -0.66553380782E+02 -0.67096848113E+02  0.21088276379E+03  0.17300000000E+03 0.  1.
         -6    1    1    2    0  503 -0.74907947118E+02  0.66553380782E+02 -0.69740657312E+02  0.21173878321E+03  0.17300000000E+03 0.  1.
<mgrwt>
<rscale>  2 0.19992387E+03</rscale>
<asrwt>0</asrwt>
<pdfrwt beam="1">  1       21 0.21983388E-01 0.19992387E+03</pdfrwt>
<pdfrwt beam="2">  1       21 0.43035311E-01 0.19992387E+03</pdfrwt>
<totfact> 0.10007327E+05</totfact>
</mgrwt>
</event>
<event>
 4    1  0.3901757E+000  0.3465163E+03  0.7546771E-02  0.1064054E+00
         21   -1    0    0  503  502  0.00000000000E+00  0.00000000000E+00  0.11304130744E+03  0.11304130744E+03  0.00000000000E+00 0.  1.
         21   -1    0    0  501  503 -0.00000000000E+00 -0.00000000000E+00 -0.18090730853E+04  0.18090730853E+04  0.00000000000E+00 0. -1.
          6    1    1    2  501    0  0.27394250453E+03  0.12288235714E+03 -0.14655227295E+04  0.15059317515E+04  0.17300000000E+03 0. -1.
         -6    1    1    2    0  502 -0.27394250453E+03 -0.12288235714E+03 -0.23050904834E+03  0.41618264122E+03  0.17300000000E+03 0.  1.
<mgrwt>
<rscale>  2 0.34651633E+03</rscale>
<asrwt>0</asrwt>
<pdfrwt beam="1">  1       21 0.17390970E-01 0.34651633E+03</pdfrwt>
<pdfrwt beam="2">  1       21 0.27831895E+00 0.34651633E+03</pdfrwt>
<totfact> 0.11797896E+03</totfact>
</mgrwt>
</event>
<event>
 4    1  0.3901757E+000  0.1865467E+03  0.7546771E-02  0.1161613E+00
         21   -1    0    0  503  502  0.00000000000E+00  0.00000000000E+00  0.15565266491E+03  0.15565266491E+03  0.00000000000E+00 0.  1.
         21   -1    0    0  501  503 -0.00000000000E+00 -0.00000000000E+00 -0.34270900657E+03  0.34270900657E+03  0.00000000000E+00 0.  1.
          6    1    1    2  501    0  0.41028232821E+01  0.69669535570E+02 -0.24044584787E+03  0.30432529159E+03  0.17300000000E+03 0.  1.
         -6    1    1    2    0  502 -0.41028232821E+01 -0.69669535570E+02  0.53389506211E+02  0.19403637988E+03  0.17300000000E+03 0.  1.
<mgrwt>
<rscale>  2 0.18654672E+03</rscale>
<asrwt>0</asrwt>
<pdfrwt beam="1">  1       21 0.23946564E-01 0.18654672E+03</pdfrwt>
<pdfrwt beam="2">  1       21 0.52724463E-01 0.18654672E+03</pdfrwt>
<totfact> 0.56217961E+04</totfact>
</mgrwt>
</event>
<event>
 4    1  0.3901757E+000  0.1732944E+03  0.7546771E-02  0.1174455E+00
         21   -1    0    0  501  502  0.00000000000E+00  0.00000000000E+00  0.43984348001E+03  0.43984348001E+03  0.00000000000E+00 0. -1.
         21   -1    0    0  502  503 -0.00000000000E+00 -0.00000000000E+00 -0.69476200838E+02  0.69476200838E+02  0.00000000000E+00 0. -1.
          6    1    1    2  501    0 -0.92356881309E+00 -0.10054013725E+02  0.15171837855E+03  0.23032455918E+03  0.17300000000E+03 0. -1.
         -6    1    1    2    0  503  0.92356881309E+00  0.10054013725E+02  0.21864890062E+03  0.27899512166E+03  0.17300000000E+03 0. -1.
<mgrwt>
<rscale>  2 0.17329436E+03</rscale>
<asrwt>0</asrwt>
<pdfrwt beam="1">  1       21 0.67668226E-01 0.17329436E+03</pdfrwt>
<pdfrwt beam="2">  1       21 0.10688647E-01 0.17329436E+03</pdfrwt>
<totfact> 0.14492235E+05</totfact>
</mgrwt>
</event>
<event>
 4    1  0.3901757E+000  0.2482991E+03  0.7546771E-02  0.1114384E+00
         21   -1    0    0  501  502  0.00000000000E+00  0.00000000000E+00  0.10937663595E+03  0.10937663595E+03  0.00000000000E+00 0.  1.
         21   -1    0    0  502  503 -0.00000000000E+00 -0.00000000000E+00 -0.75618267547E+03  0.75618267547E+03  0.00000000000E+00 0. -1.
          6    1    1    2  501    0 -0.14470442596E+03 -0.10384647786E+03 -0.10503865635E+03  0.26960263571E+03  0.17300000000E+03 0.  1.
         -6    1    1    2    0  503  0.14470442596E+03  0.10384647786E+03 -0.54176738317E+03  0.59595667571E+03  0.17300000000E+03 0. -1.
<mgrwt>
<rscale>  2 0.24829914E+03</rscale>
<asrwt>0</asrwt>
<pdfrwt beam="1">  1       21 0.16827175E-01 0.24829914E+03</pdfrwt>
<pdfrwt beam="2">  1       21 0.11633580E+00 0.24829914E+03</pdfrwt>
<totfact> 0.17531303E+04</totfact>
</mgrwt>
</event>
<event>
 4    1  0.3901757E+000  0.2038871E+03  0.7546771E-02  0.1146500E+00
         21   -1    0    0  501  502  0.00000000000E+00  0.00000000000E+00  0.74892795748E+02  0.74892795748E+02  0.00000000000E+00 0.  1.
         21   -1    0    0  502  503 -0.00000000000E+00 -0.00000000000E+00 -0.13989363664E+04  0.13989363664E+04  0.00000000000E+00 0.  1.
          6    1    1    2  501    0  0.26217021557E+02  0.10465960828E+03 -0.89677062527E+02  0.22273738206E+03  0.17300000000E+03 0.  1.
         -6    1    1    2    0  503 -0.26217021557E+02 -0.10465960828E+03 -0.12343665081E+04  0.12510917801E+04  0.17300000000E+03 0.  1.
<mgrwt>
<rscale>  2 0.20388714E+03</rscale>
<asrwt>0</asrwt>
<pdfrwt beam="1">  1       21 0.11521971E-01 0.20388714E+03</pdfrwt>
<pdfrwt beam="2">  1       21 0.21522094E+00 0.20388714E+03</pdfrwt>
<totfact> 0.67245559E+03</totfact>
</mgrwt>
</event>
<event>
 4    1  0.3901757E+000  0.2776259E+03  0.7546771E-02  0.1096993E+00
         21   -1    0    0  501  502  0.00000000000E+00  0.00000000000E+00  0.14907126580E+04  0.14907126580E+04  0.00000000000E+00 0. -1.
         21   -1    0    0  502  503 -0.00000000000E+00 -0.00000000000E+00 -0.58824477194E+02  0.58824477194E+02  0.00000000000E+00 0. -1.
          6    1    1    2  501    0 -0.21539347071E+03 -0.27437133293E+02  0.98549489114E+03  0.10238536634E+04  0.17300000000E+03 0. -1.
         -6    1    1    2    0  503  0.21539347071E+03  0.27437133293E+02  0.44639328968E+03  0.52568347185E+03  0.17300000000E+03 0. -1.
<mgrwt>
<rscale>  2 0.27762591E+03</rscale>
<asrwt>0</asrwt>
<pdfrwt beam="1">  1       21 0.22934038E+00 0.27762591E+03</pdfrwt>
<pdfrwt beam="2">  1       21 0.90499207E-02 0.27762591E+03</pdfrwt>
<totfact> 0.79859971E+03</totfact>
</mgrwt>
</event>
<event>
 4    1  0.3901757E+000  0.1819671E+03  0.7546771E-02  0.1165913E+00
         21   -1    0    0  501  502  0.00000000000E+00  0.00000000000E+00  0.36330173077E+03  0.36330173077E+03  0.00000000000E+00 0. -1.
         21   -1    0    0  502  503 -0.00000000000E+00 -0.00000000000E+00 -0.23410019589E+03  0.23410019589E+03  0.00000000000E+00 0. -1.
          6    1    1    2  501    0 -0.49164084431E+02 -0.27675211236E+02  0.29802199859E+03  0.34918352790E+03  0.17300000000E+03 0. -1.
         -6    1    1    2    0  503  0.49164084431E+02  0.27675211236E+02 -0.16882046371E+03  0.24821839876E+03  0.17300000000E+03 0. -1.
<mgrwt>
<rscale>  2 0.18196710E+03</rscale>
<asrwt>0</asrwt>
<pdfrwt beam="1">  1       21 0.55892574E-01 0.18196710E+03</pdfrwt>
<pdfrwt beam="2">  1       21 0.36015415E-01 0.18196710E+03</pdfrwt>
<totfact> 0.22550658E+04</totfact>
</mgrwt>
</event>
<event>
 4    1  0.3901757E+000  0.2670872E+03  0.7546771E-02  0.1102958E+00
         21   -1    0    0  503  502  0.00000000000E+00  0.00000000000E+00  0.44618439363E+03  0.44618439363E+03  0.00000000000E+00 0.  1.
         21   -1    0    0  501  503 -0.00000000000E+00 -0.00000000000E+00 -0.68809074488E+03  0.68809074488E+03  0.00000000000E+00 0. -1.
          6    1    1    2  501    0  0.34208874622E+02 -0.20058988984E+03 -0.61785381158E+03  0.67311134554E+03  0.17300000000E+03 0. -1.
         -6    1    1    2    0  502 -0.34208874622E+02  0.20058988984E+03  0.37594746033E+03  0.46116379296E+03  0.17300000000E+03 0.  1.
<mgrwt>
<rscale>  2 0.26708716E+03</rscale>
<asrwt>0</asrwt>
<pdfrwt beam="1">  1       21 0.68643753E-01 0.26708716E+03</pdfrwt>
<pdfrwt beam="2">  1       21 0.10586011E+00 0.26708716E+03</pdfrwt>
<totfact> 0.13021983E+03</totfact>
</mgrwt>
</event>
<event>
 4    1  0.3901757E+000  0.2807277E+03  0.7546771E-02  0.1095292E+00
         21   -1    0    0  503  502  0.00000000000E+00  0.00000000000E+00  0.15368799560E+03  0.15368799560E+03  0.00000000000E+00 0. -1.
         21   -1    0    0  501  503 -0.00000000000E+00 -0.00000000000E+00 -0.51354279947E+03  0.51354279947E+03  0.00000000000E+00 0. -1.
          6    1    1    2  501    0  0.81429996754E+02 -0.20554363626E+03 -0.19279055295E+03  0.34055282716E+03  0.17300000000E+03 0. -1.
         -6    1    1    2    0  502 -0.81429996754E+02  0.20554363626E+03 -0.16706425093E+03  0.32667796791E+03  0.17300000000E+03 0. -1.
<mgrwt>
<rscale>  2 0.28072768E+03</rscale>
<asrwt>0</asrwt>
<pdfrwt beam="1">  1       21 0.23644308E-01 0.28072768E+03</pdfrwt>
<pdfrwt beam="2">  1       21 0.79006582E-01 0.28072768E+03</pdfrwt>
<totfact> 0.22789617E+04</totfact>
</mgrwt>
</event>
<event>
 4    1  0.3901757E+000  0.2135526E+03  0.7546771E-02  0.1138783E+00
         21   -1    0    0  501  502  0.00000000000E+00  0.00000000000E+00  0.20072545103E+03  0.20072545103E+03  0.00000000000E+00 0. -1.
         21   -1    0    0  502  503 -0.00000000000E+00 -0.00000000000E+00 -0.27992300822E+03  0.27992300822E+03  0.00000000000E+00 0. -1.
          6    1    1    2  501    0  0.96985541489E+02 -0.79180262717E+02  0.64700348651E+02  0.22313862144E+03  0.17300000000E+03 0. -1.
         -6    1    1    2    0  503 -0.96985541489E+02  0.79180262717E+02 -0.14389790585E+03  0.25750983781E+03  0.17300000000E+03 0. -1.
<mgrwt>
<rscale>  2 0.21355259E+03</rscale>
<asrwt>0</asrwt>
<pdfrwt beam="1">  1       21 0.30880839E-01 0.21355259E+03</pdfrwt>
<pdfrwt beam="2">  1       21 0.43065078E-01 0.21355259E+03</pdfrwt>
<totfact> 0.51699045E+04</totfact>
</mgrwt>
</event>
<event>
 4    1  0.3901757E+000  0.2114410E+03  0.7546771E-02  0.1140430E+00
         21   -1    0    0  501  502  0.00000000000E+00  0.00000000000E+00  0.20966516195E+03  0.20966516195E+03  0.00000000000E+00 0.  1.
         21   -1    0    0  502  503 -0.00000000000E+00 -0.00000000000E+00 -0.22053239154E+03  0.22053239154E+03  0.00000000000E+00 0.  1.
          6    1    1    2  501    0 -0.11725415578E+03  0.32089609613E+02 -0.44570002898E+02  0.21608740188E+03  0.17300000000E+03 0.  1.
         -6    1    1    2    0  503  0.11725415578E+03 -0.32089609613E+02  0.33702773310E+02  0.21411015161E+03  0.17300000000E+03 0.  1.
<mgrwt>
<rscale>  2 0.21144096E+03</rscale>
<asrwt>0</asrwt>
<pdfrwt beam="1">  1       21 0.32256179E-01 0.21144096E+03</pdfrwt>
<pdfrwt beam="2">  1       21 0.33928060E-01 0.21144096E+03</pdfrwt>
<totfact> 0.76765375E+04</totfact>
</mgrwt>
</event>
<event>
 4    1  0.3901757E+000  0.2505172E+03  0.7546771E-02  0.1112978E+00
         21   -1    0    0  501  502  0.00000000000E+00  0.00000000000E+00  0.11825214525E+04  0.11825214525E+04  0.00000000000E+00 0. -1.
         21   -1    0    0  502  503 -0.00000000000E+00 -0.00000000000E+00 -0.72673290293E+02  0.72673290293E+02  0.00000000000E+00 0.  1.
          6    1    1    2  501    0 -0.18010294181E+03 -0.19819678019E+02  0.88086208159E+03  0.91579304216E+03  0.17300000000E+03 0. -1.
         -6    1    1    2    0  503  0.18010294181E+03  0.19819678019E+02  0.22898608066E+03  0.33940170067E+03  0.17300000000E+03 0. -1.
<mgrwt>
<rscale>  2 0.25051724E+03</rscale>
<asrwt>0</asrwt>
<pdfrwt beam="1">  1       21 0.18192636E+00 0.25051724E+03</pdfrwt>
<pdfrwt beam="2">  1       21 0.11180507E-01 0.25051724E+03</pdfrwt>
<totfact> 0.11279500E+04</totfact>
</mgrwt>
</event>
<event>
 4    1  0.3901757E+000  0.2015743E+03  0.7546771E-02  0.1148418E+00
         21   -1    0    0  503  502  0.00000000000E+00  0.00000000000E+00  0.13858039879E+03  0.13858039879E+03  0.00000000000E+00 0.  1.
         21   -1    0    0  501  503 -0.00000000000E+00 -0.00000000000E+00 -0.30268317286E+03  0.30268317286E+03  0.00000000000E+00 0. -1.
          6    1    1    2  501    0  0.81763392728E+02  0.63387283928E+02 -0.12109771254E+03  0.23515283570E+03  0.17300000000E+03 0. -1.
         -6    1    1    2    0  502 -0.81763392728E+02 -0.63387283928E+02 -0.43005061527E+02  0.20611073594E+03  0.17300000000E+03 0.  1.
<mgrwt>
<rscale>  2 0.20157430E+03</rscale>
<asrwt>0</asrwt>
<pdfrwt beam="1">  1       21 0.21320061E-01 0.20157430E+03</pdfrwt>
<pdfrwt beam="2">  1       21 0.46566642E-01 0.20157430E+03</pdfrwt>
<totfact> 0.90101037E+04</totfact>
</mgrwt>
</event>
<event>
 4    1  0.3901757E+000  0.2231916E+03  0.7546771E-02  0.1131526E+00
         21   -1    0    0  501  502  0.00000000000E+00  0.00000000000E+00  0.66787535600E+02  0.66787535600E+02  0.00000000000E+00 0.  1.
         21   -1    0    0  502  503 -0.00000000000E+00 -0.00000000000E+00 -0.14640411118E+04  0.14640411118E+04  0.00000000000E+00 0. -1.
          6    1    1    2  501    0 -0.12005175643E+03  0.73980214164E+02 -0.16253966366E+03  0.27610439796E+03  0.17300000000E+03 0.  1.
         -6    1    1    2    0  503  0.12005175643E+03 -0.73980214164E+02 -0.12347139125E+04  0.12547242494E+04  0.17300000000E+03 0. -1.
<mgrwt>
<rscale>  2 0.22319161E+03</rscale>
<asrwt>0</asrwt>
<pdfrwt beam="1">  1       21 0.10275006E-01 0.22319161E+03</pdfrwt>
<pdfrwt beam="2">  1       21 0.22523708E+00 0.22319161E+03</pdfrwt>
<totfact> 0.70341373E+03</totfact>
</mgrwt>
</event>
<event>
 4    1  0.3901757E+000  0.1861960E+03  0.7546771E-02  0.1161938E+00
         21   -1    0    0  503  502  0.00000000000E+00  0.00000000000E+00  0.57592899276E+03  0.57592899276E+03  0.00000000000E+00 0. -1.
         21   -1    0    0  501  503 -0.00000000000E+00 -0.00000000000E+00 -0.60430023691E+02  0.60430023691E+02  0.00000000000E+00 0. -1.
          6    1    1    2  501    0  0.54746977404E+02  0.41746060907E+02  0.23797425046E+03  0.30216007184E+03  0.17300000000E+03 0.  1.
         -6    1    1    2    0  502 -0.54746977404E+02 -0.41746060907E+02  0.27752471861E+03  0.33419894460E+03  0.17300000000E+03 0.  1.
<mgrwt>
<rscale>  2 0.18619604E+03</rscale>
<asrwt>0</asrwt>
<pdfrwt beam="1">  1       21 0.88604456E-01 0.18619604E+03</pdfrwt>
<pdfrwt beam="2">  1       21 0.92969271E-02 0.18619604E+03</pdfrwt>
<totfact> 0.10076017E+05</totfact>
</mgrwt>
</event>
<event>
 4    1  0.3901757E+000  0.2263148E+03  0.7546771E-02  0.1129261E+00
         21   -1    0    0  501  502  0.00000000000E+00  0.00000000000E+00  0.14399802704E+04  0.14399802704E+04  0.00000000000E+00 0. -1.
         21   -1    0    0  502  503 -0.00000000000E+00 -0.00000000000E+00 -0.16736814660E+03  0.16736814660E+03  0.00000000000E+00 0. -1.
          6    1    1    2  501    0  0.35651920400E+01  0.14586533531E+03  0.13494878012E+04  0.13683331949E+04  0.17300000000E+03 0. -1.
         -6    1    1    2    0  503 -0.35651920400E+01 -0.14586533531E+03 -0.76875677382E+02  0.23901522213E+03  0.17300000000E+03 0. -1.
<mgrwt>
<rscale>  2 0.22631484E+03</rscale>
<asrwt>0</asrwt>
<pdfrwt beam="1">  1       21 0.22153542E+00 0.22631484E+03</pdfrwt>
<pdfrwt beam="2">  1       21 0.25748947E-01 0.22631484E+03</pdfrwt>
<totfact> 0.13596902E+03</totfact>
</mgrwt>
</event>
<event>
 4    1  0.3901757E+000  0.2255564E+03  0.7546771E-02  0.1129807E+00
         21   -1    0    0  501  502  0.00000000000E+00  0.00000000000E+00  0.37140577636E+02  0.37140577636E+02  0.00000000000E+00 0. -1.
         21   -1    0    0  502  503 -0.00000000000E+00 -0.00000000000E+00 -0.15481492848E+04  0.15481492848E+04  0.00000000000E+00 0. -1.
          6    1    1    2  501    0  0.54922777072E+02 -0.13390359329E+03 -0.48648043694E+03  0.53622653726E+03  0.17300000000E+03 0. -1.
         -6    1    1    2    0  503 -0.54922777072E+02  0.13390359329E+03 -0.10245282702E+04  0.10490633252E+04  0.17300000000E+03 0. -1.
<mgrwt>
<rscale>  2 0.22555639E+03</rscale>
<asrwt>0</asrwt>
<pdfrwt beam="1">  1       21 0.57139352E-02 0.22555639E+03</pdfrwt>
<pdfrwt beam="2">  1       21 0.23817681E+00 0.22555639E+03</pdfrwt>
<totfact> 0.16296180E+04</totfact>
</mgrwt>
</event>
<event>
 4    1  0.3901757E+000  0.1774218E+03  0.7546771E-02  0.1170322E+00
         21   -1    0    0  503  502  0.00000000000E+00  0.00000000000E+00  0.78470949149E+03  0.78470949149E+03  0.00000000000E+00 0. -1.
         21   -1    0    0  501  503 -0.00000000000E+00 -0.00000000000E+00 -0.62394498605E+02  0.62394498605E+02  0.00000000000E+00 0. -1.
          6    1    1    2  501    0  0.26484699052E+02 -0.29121103937E+02  0.10805987245E+03  0.20773881200E+03  0.17300000000E+03 0. -1.
         -6    1    1    2    0  502 -0.26484699052E+02  0.29121103937E+02  0.61425512043E+03  0.63936517809E+03  0.17300000000E+03 0. -1.
<mgrwt>
<rscale>  2 0.17742175E+03</rscale>
<asrwt>0</asrwt>
<pdfrwt beam="1">  1       21 0.12072453E+00 0.17742175E+03</pdfrwt>
<pdfrwt beam="2">  1       21 0.95991542E-02 0.17742175E+03</pdfrwt>
<totfact> 0.45747886E+04</totfact>
</mgrwt>
</event>
<event>
 4    1  0.3901757E+000  0.1788970E+03  0.7546771E-02  0.1168875E+00
         21   -1    0    0  503  502  0.00000000000E+00  0.00000000000E+00  0.76214735409E+02  0.76214735409E+02  0.00000000000E+00 0. -1.
         21   -1    0    0  501  503 -0.00000000000E+00 -0.00000000000E+00 -0.66966201647E+03  0.66966201647E+03  0.00000000000E+00 0. -1.
          6    1    1    2  501    0  0.44319921557E+02  0.10530594349E+02 -0.52447154877E+03  0.55414308111E+03  0.17300000000E+03 0. -1.
         -6    1    1    2    0  502 -0.44319921557E+02 -0.10530594349E+02 -0.68975732291E+02  0.19173367078E+03  0.17300000000E+03 0. -1.
<mgrwt>
<rscale>  2 0.17889703E+03</rscale>
<asrwt>0</asrwt>
<pdfrwt beam="1">  1       21 0.11725344E-01 0.17889703E+03</pdfrwt>
<pdfrwt beam="2">  1       21 0.10302492E+00 0.17889703E+03</pdfrwt>
<totfact> 0.47096383E+04</totfact>
</mgrwt>
</event>
<event>
 4    1  0.3901757E+000  0.3019671E+03  0.7546771E-02  0.1084261E+00
         21   -1    0    0  501  502  0.00000000000E+00  0.00000000000E+00  0.12861351391E+04  0.12861351391E+04  0.00000000000E+00 0. -1.
         21   -1    0    0  502  503 -0.00000000000E+00 -0.00000000000E+00 -0.77969199820E+02  0.77969199820E+02  0.00000000000E+00 0.  1.
          6    1    1    2  501    0 -0.22058739142E+03  0.11223344142E+03  0.80948700577E+03  0.86397532091E+03  0.17300000000E+03 0. -1.
         -6    1    1    2    0  503  0.22058739142E+03 -0.11223344142E+03  0.39867893347E+03  0.50012901797E+03  0.17300000000E+03 0.  1.
<mgrwt>
<rscale>  2 0.30196712E+03</rscale>
<asrwt>0</asrwt>
<pdfrwt beam="1">  1       21 0.19786693E+00 0.30196712E+03</pdfrwt>
<pdfrwt beam="2">  1       21 0.11995262E-01 0.30196712E+03</pdfrwt>
<totfact> 0.75361155E+03</totfact>
</mgrwt>
</event>
<event>
 4    1  0.3901757E+000  0.2907908E+03  0.7546771E-02  0.1089937E+00
         21   -1    0    0  503  502  0.00000000000E+00  0.00000000000E+00  0.27765258241E+03  0.27765258241E+03  0.00000000000E+00 0. -1.
         21   -1    0    0  501  503 -0.00000000000E+00 -0.00000000000E+00 -0.65431822763E+03  0.65431822763E+03  0.00000000000E+00 0.  1.
          6    1    1    2  501    0  0.13403974188E+03 -0.19147747733E+03 -0.52902924619E+03  0.60368138952E+03  0.17300000000E+03 0.  1.
         -6    1    1    2    0  502 -0.13403974188E+03  0.19147747733E+03  0.15236360097E+03  0.32828942052E+03  0.17300000000E+03 0. -1.
<mgrwt>
<rscale>  2 0.29079078E+03</rscale>
<asrwt>0</asrwt>
<pdfrwt beam="1">  1       21 0.42715783E-01 0.29079078E+03</pdfrwt>
<pdfrwt beam="2">  1       21 0.10066434E+00 0.29079078E+03</pdfrwt>
<totfact> 0.39858431E+03</totfact>
</mgrwt>
</event>
<event>
 4    1  0.3901757E+000  0.2236888E+03  0.7546771E-02  0.1131162E+00
         21   -1    0    0  503  502  0.00000000000E+00  0.00000000000E+00  0.17106076575E+03  0.17106076575E+03  0.00000000000E+00 0. -1.
         21   -1    0    0  501  503 -0.00000000000E+00 -0.00000000000E+00 -0.35167156284E+03  0.35167156284E+03  0.00000000000E+00 0. -1.
          6    1    1    2  501    0 -0.78007172691E+02  0.11841686054E+03 -0.19750847974E+03  0.29840621880E+03  0.17300000000E+03 0. -1.
         -6    1    1    2    0  502  0.78007172691E+02 -0.11841686054E+03  0.16897682652E+02  0.22432610979E+03  0.17300000000E+03 0. -1.
<mgrwt>
<rscale>  2 0.22368878E+03</rscale>
<asrwt>0</asrwt>
<pdfrwt beam="1">  1       21 0.26317041E-01 0.22368878E+03</pdfrwt>
<pdfrwt beam="2">  1       21 0.54103317E-01 0.22368878E+03</pdfrwt>
<totfact> 0.43671072E+04</totfact>
</mgrwt>
</event>
<event>
 4    1  0.3901757E+000  0.2138832E+03  0.7546771E-02  0.1138527E+00
         21   -1    0    0  501  502  0.00000000000E+00  0.00000000000E+00  0.57336725235E+03  0.57336725235E+03  0.00000000000E+00 0. -1.
         21   -1    0    0  502  503 -0.00000000000E+00 -0.00000000000E+00 -0.10681439964E+03  0.10681439964E+03  0.00000000000E+00 0.  1.
          6    1    1    2  501    0 -0.11612310550E+03 -0.48295561906E+02  0.40435640436E+03  0.45743867205E+03  0.17300000000E+03 0. -1.
         -6    1    1    2    0  503  0.11612310550E+03  0.48295561906E+02  0.62196448343E+02  0.22274297995E+03  0.17300000000E+03 0.  1.
<mgrwt>
<rscale>  2 0.21388323E+03</rscale>
<asrwt>0</asrwt>
<pdfrwt beam="1">  1       21 0.88210345E-01 0.21388323E+03</pdfrwt>
<pdfrwt beam="2">  1       21 0.16432985E-01 0.21388323E+03</pdfrwt>
<totfact> 0.36127498E+04</totfact>
</mgrwt>
</event>
<event>
 4    1  0.3901757E+000  0.2932060E+03  0.7546771E-02  0.1088687E+00
         21   -1    0    0  501  502  0.00000000000E+00  0.00000000000E+00  0.10059207395E+04  0.10059207395E+04  0.00000000000E+00 0.  1.
         21   -1    0    0  502  503 -0.00000000000E+00 -0.00000000000E+00 -0.85487758198E+02  0.85487758198E+02  0.00000000000E+00 0.  1.
          6    1    1    2  501    0 -0.20417617301E+03  0.11980342635E+03  0.46935925048E+03  0.55341474195E+03  0.17300000000E+03 0.  1.
         -6    1    1    2    0  503  0.20417617301E+03 -0.11980342635E+03  0.45107373082E+03  0.53799375575E+03  0.17300000000E+03 0.  1.
<mgrwt>
<rscale>  2 0.29320602E+03</rscale>
<asrwt>0</asrwt>
<pdfrwt beam="1">  1       21 0.15475703E+00 0.29320602E+03</pdfrwt>
<pdfrwt beam="2">  1       21 0.13151964E-01 0.29320602E+03</pdfrwt>
<totfact> 0.12888940E+04</totfact>
</mgrwt>
</event>
<event>
 4    1  0.3901757E+000  0.1948970E+03  0.7546771E-02  0.1154117E+00
         21   -1    0    0  503  502  0.00000000000E+00  0.00000000000E+00  0.13640965999E+03  0.13640965999E+03  0.00000000000E+00 0.  1.
         21   -1    0    0  501  503 -0.00000000000E+00 -0.00000000000E+00 -0.68721170357E+03  0.68721170357E+03  0.00000000000E+00 0. -1.
          6    1    1    2  501    0  0.89495856818E+02 -0.68057595739E+01 -0.59300166311E+03  0.62420813772E+03  0.17300000000E+03 0. -1.
         -6    1    1    2    0  502 -0.89495856818E+02  0.68057595739E+01  0.42199619527E+02  0.19941322584E+03  0.17300000000E+03 0.  1.
<mgrwt>
<rscale>  2 0.19489696E+03</rscale>
<asrwt>0</asrwt>
<pdfrwt beam="1">  1       21 0.20986102E-01 0.19489696E+03</pdfrwt>
<pdfrwt beam="2">  1       21 0.10572488E+00 0.19489696E+03</pdfrwt>
<totfact> 0.15137114E+04</totfact>
</mgrwt>
</event>
<event>
 4    1  0.3901757E+000  0.1804658E+03  0.7546771E-02  0.1167353E+00
         21   -1    0    0  501  502  0.00000000000E+00  0.00000000000E+00  0.15668604039E+03  0.15668604039E+03  0.00000000000E+00 0.  1.
         21   -1    0    0  502  503 -0.00000000000E+00 -0.00000000000E+00 -0.21026187811E+03  0.21026187811E+03  0.00000000000E+00 0.  1.
          6    1    1    2  501    0 -0.13938558896E+02 -0.49443013237E+02 -0.71557450872E+01  0.18060758475E+03  0.17300000000E+03 0.  1.
         -6    1    1    2    0  503  0.13938558896E+02  0.49443013237E+02 -0.46420092636E+02  0.18634033375E+03  0.17300000000E+03 0.  1.
<mgrwt>
<rscale>  2 0.18046577E+03</rscale>
<asrwt>0</asrwt>
<pdfrwt beam="1">  1       21 0.24105545E-01 0.18046577E+03</pdfrwt>
<pdfrwt beam="2">  1       21 0.32347981E-01 0.18046577E+03</pdfrwt>
<totfact> 0.14986846E+05</totfact>
</mgrwt>
</event>
<event>
 4    1  0.3901757E+000  0.1934592E+03  0.7546771E-02  0.1155378E+00
         21   -1    0    0  503  502  0.00000000000E+00  0.00000000000E+00  0.69613935737E+02  0.69613935737E+02  0.00000000000E+00 0. -1.
         21   -1    0    0  501  503 -0.00000000000E+00 -0.00000000000E+00 -0.78375524181E+03  0.78375524181E+03  0.00000000000E+00 0. -1.
          6    1    1    2  501    0 -0.62150584444E+02  0.60289109682E+02 -0.59617951495E+03  0.62678264649E+03  0.17300000000E+03 0. -1.
         -6    1    1    2    0  502  0.62150584444E+02 -0.60289109682E+02 -0.11796179113E+03  0.22658653106E+03  0.17300000000E+03 0. -1.
<mgrwt>
<rscale>  2 0.19345923E+03</rscale>
<asrwt>0</asrwt>
<pdfrwt beam="1">  1       21 0.10709837E-01 0.19345923E+03</pdfrwt>
<pdfrwt beam="2">  1       21 0.12057773E+00 0.19345923E+03</pdfrwt>
<totfact> 0.37487939E+04</totfact>
</mgrwt>
</event>
<event>
 4    1  0.3901757E+000  0.1737726E+03  0.7546771E-02  0.1173970E+00
         21   -1    0    0  501  502  0.00000000000E+00  0.00000000000E+00  0.15793049292E+03  0.15793049292E+03  0.00000000000E+00 0.  1.
         21   -1    0    0  502  503 -0.00000000000E+00 -0.00000000000E+00 -0.36010115356E+03  0.36010115356E+03  0.00000000000E+00 0.  1.
          6    1    1    2  501    0 -0.59345350379E+01  0.15254531371E+02  0.76303139825E+02  0.18978695577E+03  0.17300000000E+03 0.  1.
         -6    1    1    2    0  503  0.59345350379E+01 -0.15254531371E+02 -0.27847380047E+03  0.32824469071E+03  0.17300000000E+03 0.  1.
<mgrwt>
<rscale>  2 0.17377261E+03</rscale>
<asrwt>0</asrwt>
<pdfrwt beam="1">  1       21 0.24296999E-01 0.17377261E+03</pdfrwt>
<pdfrwt beam="2">  1       21 0.55400177E-01 0.17377261E+03</pdfrwt>
<totfact> 0.49573407E+04</totfact>
</mgrwt>
</event>
