<event>
 8    1  0.2558382E-006  0.9118800E+02  0.7816164E-02  0.1184000E+00
        -11   -1    0    0    0    0  0.00000000000E+00  0.00000000000E+00  0.45593999997E+02  0.45594000000E+02  0.51100000000E-03 0. -1.
         11   -1    0    0    0    0 -0.00000000000E+00 -0.00000000000E+00 -0.45593999997E+02  0.45594000000E+02  0.51100000000E-03 0.  1.
         23    2    1    2    0    0  0.00000000000E+00  0.35527136788E-14  0.00000000000E+00  0.91188000000E+02  0.91188000000E+02 0.  0.
    9900012    2    3    3    0    0 -0.25460908587E+02  0.17357563936E+02 -0.20155417224E+02  0.54367031309E+02  0.39999879475E+02 0.  0.
         12    1    3    3    0    0  0.25460908587E+02 -0.17357563936E+02  0.20155417224E+02  0.36820968691E+02  0.00000000000E+00 0. -1.
         11    1    4    4    0    0 -0.87488763369E+01 -0.77941611457E+01 -0.96630020952E+01  0.15187672464E+02  0.51100000000E-03 0. -1.
        -11    1    4    4    0    0 -0.21807001498E+02  0.20265562640E+02 -0.11757817421E+02  0.32007571202E+02  0.51100000000E-03 0.  1.
         12    1    4    4    0    0  0.50949692479E+01  0.48861624411E+01  0.12654022921E+01  0.71717876432E+01  0.00000000000E+00 0. -1.
</event>
<event>
 8    1  0.2558382E-006  0.9118800E+02  0.7816164E-02  0.1184000E+00
        -11   -1    0    0    0    0  0.00000000000E+00  0.00000000000E+00  0.45593999997E+02  0.45594000000E+02  0.51100000000E-03 0. -1.
         11   -1    0    0    0    0 -0.00000000000E+00 -0.00000000000E+00 -0.45593999997E+02  0.45594000000E+02  0.51100000000E-03 0.  1.
         23    2    1    2    0    0  0.35527136788E-14 -0.35527136788E-14  0.00000000000E+00  0.91188000000E+02  0.91188000000E+02 0.  0.
    9900012    2    3    3    0    0  0.22986639806E+02 -0.28356877843E+02  0.48250924483E+01  0.54367086816E+02  0.40000006014E+02 0.  0.
        -12    1    3    3    0    0 -0.22986639806E+02  0.28356877843E+02 -0.48250924483E+01  0.36820913184E+02  0.00000000000E+00 0.  1.
         11    1    4    4    0    0  0.24761971279E+02 -0.22604144663E+02 -0.55159228198E+01  0.33978345786E+02  0.51100000000E-03 0. -1.
        -11    1    4    4    0    0  0.11689717652E+01  0.51713412743E+01  0.38118648060E+00  0.53155027003E+01  0.51100000000E-03 0.  1.
        -12    1    4    4    0    0 -0.29443032384E+01 -0.10924074455E+02  0.99598287875E+01  0.15073238329E+02  0.00000000000E+00 0.  1.
</event>
<event>
 8    1  0.2558382E-006  0.9118800E+02  0.7816164E-02  0.1184000E+00
        -11   -1    0    0    0    0  0.00000000000E+00  0.00000000000E+00  0.45593999997E+02  0.45594000000E+02  0.51100000000E-03 0. -1.
         11   -1    0    0    0    0 -0.00000000000E+00 -0.00000000000E+00 -0.45593999997E+02  0.45594000000E+02  0.51100000000E-03 0.  1.
         23    2    1    2    0    0  0.00000000000E+00 -0.35527136788E-14  0.00000000000E+00  0.91188000000E+02  0.91188000000E+02 0.  0.
    9900012    2    3    3    0    0 -0.14012115063E+02 -0.25509993384E+02  0.22553931748E+02  0.54367096042E+02  0.40000027047E+02 0.  0.
        -12    1    3    3    0    0  0.14012115063E+02  0.25509993384E+02 -0.22553931748E+02  0.36820903958E+02  0.00000000000E+00 0.  1.
         11    1    4    4    0    0 -0.19198412928E+02 -0.10375704787E+02  0.89152190026E+01  0.23573617434E+02  0.51100000000E-03 0. -1.
        -11    1    4    4    0    0  0.21577844159E+01  0.16759778355E+01 -0.48846268467E+01  0.55968307982E+01  0.51100000000E-03 0.  1.
         12    1    4    4    0    0  0.30285134485E+01 -0.16810266432E+02  0.18523339592E+02  0.25196647810E+02  0.00000000000E+00 0. -1.
</event>
<event>
 8    1  0.2558382E-006  0.9118800E+02  0.7816164E-02  0.1184000E+00
        -11   -1    0    0    0    0  0.00000000000E+00  0.00000000000E+00  0.45593999997E+02  0.45594000000E+02  0.51100000000E-03 0. -1.
         11   -1    0    0    0    0 -0.00000000000E+00 -0.00000000000E+00 -0.45593999997E+02  0.45594000000E+02  0.51100000000E-03 0.  1.
         23    2    1    2    0    0 -0.35527136788E-14 -0.35527136788E-14  0.17763568394E-14  0.91188000000E+02  0.91188000000E+02 0.  0.
    9900012    2    3    3    0    0 -0.21859746948E+02  0.28799325718E+02 -0.69663216777E+01  0.54367091047E+02  0.40000015660E+02 0.  0.
        -12    1    3    3    0    0  0.21859746948E+02 -0.28799325718E+02  0.69663216777E+01  0.36820908953E+02  0.00000000000E+00 0.  1.
         11    1    4    4    0    0 -0.77081383565E+01  0.29107774014E+02  0.80151726698E+01  0.31159603627E+02  0.51100000000E-03 0. -1.
        -11    1    4    4    0    0 -0.36443632348E+01 -0.48460346627E+01 -0.69624784924E+01  0.92326346379E+01  0.51100000000E-03 0.  1.
         12    1    4    4    0    0 -0.10507245356E+02  0.45375863662E+01 -0.80190158551E+01  0.13974852783E+02  0.00000000000E+00 0. -1.
</event>
<event>
 8    1  0.2558382E-006  0.9118800E+02  0.7816164E-02  0.1184000E+00
        -11   -1    0    0    0    0  0.00000000000E+00  0.00000000000E+00  0.45593999997E+02  0.45594000000E+02  0.51100000000E-03 0. -1.
         11   -1    0    0    0    0 -0.00000000000E+00 -0.00000000000E+00 -0.45593999997E+02  0.45594000000E+02  0.51100000000E-03 0.  1.
         23    2    1    2    0    0  0.00000000000E+00 -0.17763568394E-14 -0.35527136788E-14  0.91188000000E+02  0.91188000000E+02 0.  0.
    9900012    2    3    3    0    0 -0.18943440900E+02 -0.15113169872E+02 -0.27722169180E+02  0.54367074961E+02  0.39999978988E+02 0.  0.
         12    1    3    3    0    0  0.18943440900E+02  0.15113169872E+02  0.27722169180E+02  0.36820925039E+02  0.00000000000E+00 0. -1.
         11    1    4    4    0    0  0.19168354177E+01 -0.24134998454E+01 -0.91415373238E+00  0.32147965457E+01  0.51100000000E-03 0. -1.
        -11    1    4    4    0    0 -0.44505624524E+01  0.11734280572E+02 -0.14693892124E+02  0.19323853464E+02  0.51100000000E-03 0.  1.
        -12    1    4    4    0    0 -0.16409713865E+02 -0.24433950598E+02 -0.12114123324E+02  0.31828424951E+02  0.00000000000E+00 0.  1.
</event>
<event>
 8    1  0.2558382E-006  0.9118800E+02  0.7816164E-02  0.1184000E+00
        -11   -1    0    0    0    0  0.00000000000E+00  0.00000000000E+00  0.45593999997E+02  0.45594000000E+02  0.51100000000E-03 0. -1.
         11   -1    0    0    0    0 -0.00000000000E+00 -0.00000000000E+00 -0.45593999997E+02  0.45594000000E+02  0.51100000000E-03 0.  1.
         23    2    1    2    0    0  0.17763568394E-14  0.00000000000E+00  0.35527136788E-14  0.91188000000E+02  0.91188000000E+02 0.  0.
    9900012    2    3    3    0    0  0.10648338108E+02  0.26647914630E+02  0.23071223177E+02  0.54367084782E+02  0.40000001377E+02 0.  0.
        -12    1    3    3    0    0 -0.10648338108E+02 -0.26647914630E+02 -0.23071223177E+02  0.36820915218E+02  0.00000000000E+00 0.  1.
         11    1    4    4    0    0 -0.36810313359E+01  0.29676472986E+02  0.16599231336E+02  0.34202010494E+02  0.51100000000E-03 0. -1.
        -11    1    4    4    0    0  0.91005105721E+01  0.31682437605E+01  0.71932285824E+01  0.12024957335E+02  0.51100000000E-03 0.  1.
        -12    1    4    4    0    0  0.52288588723E+01 -0.61968021167E+01 -0.72123674142E+00  0.81401169535E+01  0.00000000000E+00 0.  1.
</event>
<event>
 8    1  0.2558382E-006  0.9118800E+02  0.7816164E-02  0.1184000E+00
        -11   -1    0    0    0    0  0.00000000000E+00  0.00000000000E+00  0.45593999997E+02  0.45594000000E+02  0.51100000000E-03 0.  1.
         11   -1    0    0    0    0 -0.00000000000E+00 -0.00000000000E+00 -0.45593999997E+02  0.45594000000E+02  0.51100000000E-03 0. -1.
         23    2    1    2    0    0  0.71054273576E-14 -0.71054273576E-14 -0.17763568394E-14  0.91188000000E+02  0.91188000000E+02 0.  0.
    9900012    2    3    3    0    0 -0.29916859826E+02  0.18474106750E+02  0.10930239480E+02  0.54367064961E+02  0.39999956192E+02 0.  0.
         12    1    3    3    0    0  0.29916859826E+02 -0.18474106750E+02 -0.10930239480E+02  0.36820935039E+02  0.00000000000E+00 0. -1.
         11    1    4    4    0    0 -0.45282811674E+01 -0.32594410636E+01  0.28214536387E+01  0.62521905981E+01  0.51100000000E-03 0. -1.
        -11    1    4    4    0    0 -0.13151292237E+02  0.15212851150E+02 -0.12202295090E+02  0.23521975541E+02  0.51100000000E-03 0.  1.
         12    1    4    4    0    0 -0.12237286421E+02  0.65206966634E+01  0.20311080930E+02  0.24592898822E+02  0.00000000000E+00 0. -1.
</event>
<event>
 8    1  0.2558382E-006  0.9118800E+02  0.7816164E-02  0.1184000E+00
        -11   -1    0    0    0    0  0.00000000000E+00  0.00000000000E+00  0.45593999997E+02  0.45594000000E+02  0.51100000000E-03 0. -1.
         11   -1    0    0    0    0 -0.00000000000E+00 -0.00000000000E+00 -0.45593999997E+02  0.45594000000E+02  0.51100000000E-03 0.  1.
         23    2    1    2    0    0  0.00000000000E+00  0.00000000000E+00  0.00000000000E+00  0.91188000000E+02  0.91188000000E+02 0.  0.
    9900012    2    3    3    0    0  0.23987571711E+02  0.23376166871E+02  0.15294842339E+02  0.54367068774E+02  0.39999964884E+02 0.  0.
         12    1    3    3    0    0 -0.23987571711E+02 -0.23376166871E+02 -0.15294842339E+02  0.36820931226E+02  0.00000000000E+00 0. -1.
         11    1    4    4    0    0 -0.77432270810E+01  0.70956354941E+01  0.10530874038E+02  0.14872959254E+02  0.51100000000E-03 0. -1.
        -11    1    4    4    0    0  0.11753975125E+02  0.14291471583E+02 -0.12238991224E+01  0.18544541530E+02  0.51100000000E-03 0.  1.
        -12    1    4    4    0    0  0.19976823667E+02  0.19890597944E+01  0.59878674230E+01  0.20949567990E+02  0.00000000000E+00 0.  1.
</event>
<event>
 8    1  0.2558382E-006  0.9118800E+02  0.7816164E-02  0.1184000E+00
        -11   -1    0    0    0    0  0.00000000000E+00  0.00000000000E+00  0.45593999997E+02  0.45594000000E+02  0.51100000000E-03 0. -1.
         11   -1    0    0    0    0 -0.00000000000E+00 -0.00000000000E+00 -0.45593999997E+02  0.45594000000E+02  0.51100000000E-03 0.  1.
         23    2    1    2    0    0  0.00000000000E+00  0.00000000000E+00 -0.35527136788E-14  0.91188000000E+02  0.91188000000E+02 0.  0.
    9900012    2    3    3    0    0  0.22349175701E+02  0.20871734522E+02 -0.20510417667E+02  0.54366916511E+02  0.39999617767E+02 0.  0.
        -12    1    3    3    0    0 -0.22349175701E+02 -0.20871734522E+02  0.20510417667E+02  0.36821083489E+02  0.00000000000E+00 0.  1.
         11    1    4    4    0    0  0.17730542839E+02  0.11190596772E+02  0.19670271260E+01  0.21058746436E+02  0.51100000000E-03 0. -1.
        -11    1    4    4    0    0  0.97711578619E+01 -0.34526964793E+01 -0.11081225953E+02  0.15172020558E+02  0.51100000000E-03 0.  1.
         12    1    4    4    0    0 -0.51525250001E+01  0.13133834229E+02 -0.11396218840E+02  0.18136149517E+02  0.00000000000E+00 0. -1.
</event>
<event>
 8    1  0.2558382E-006  0.9118800E+02  0.7816164E-02  0.1184000E+00
        -11   -1    0    0    0    0  0.00000000000E+00  0.00000000000E+00  0.45593999997E+02  0.45594000000E+02  0.51100000000E-03 0.  1.
         11   -1    0    0    0    0 -0.00000000000E+00 -0.00000000000E+00 -0.45593999997E+02  0.45594000000E+02  0.51100000000E-03 0. -1.
         23    2    1    2    0    0  0.00000000000E+00  0.00000000000E+00  0.00000000000E+00  0.91188000000E+02  0.91188000000E+02 0.  0.
    9900012    2    3    3    0    0  0.11923864195E+02 -0.12366898135E+02 -0.32567790227E+02  0.54367086553E+02  0.40000005414E+02 0.  0.
        -12    1    3    3    0    0 -0.11923864195E+02  0.12366898135E+02  0.32567790227E+02  0.36820913447E+02  0.00000000000E+00 0.  1.
         11    1    4    4    0    0  0.60482671627E+01 -0.15971397066E+02 -0.64348533258E+01  0.18250325956E+02  0.51100000000E-03 0. -1.
        -11    1    4    4    0    0 -0.31623908795E+01  0.11547215991E+02 -0.81624653438E+01  0.14490160591E+02  0.51100000000E-03 0.  1.
         12    1    4    4    0    0  0.90379879121E+01 -0.79427170594E+01 -0.17970471558E+02  0.21626600005E+02  0.00000000000E+00 0. -1.
</event>
<event>
 8    1  0.2558382E-006  0.9118800E+02  0.7816164E-02  0.1184000E+00
        -11   -1    0    0    0    0  0.00000000000E+00  0.00000000000E+00  0.45593999997E+02  0.45594000000E+02  0.51100000000E-03 0. -1.
         11   -1    0    0    0    0 -0.00000000000E+00 -0.00000000000E+00 -0.45593999997E+02  0.45594000000E+02  0.51100000000E-03 0.  1.
         23    2    1    2    0    0  0.00000000000E+00  0.00000000000E+00  0.17763568394E-14  0.91188000000E+02  0.91188000000E+02 0.  0.
    9900012    2    3    3    0    0 -0.23274156265E+02 -0.24514663181E+02  0.14598820828E+02  0.54367073473E+02  0.39999975597E+02 0.  0.
        -12    1    3    3    0    0  0.23274156265E+02  0.24514663181E+02 -0.14598820828E+02  0.36820926527E+02  0.00000000000E+00 0.  1.
         11    1    4    4    0    0 -0.97074607676E+01 -0.72604594704E+00  0.10314336136E+02  0.14182646702E+02  0.51100000000E-03 0. -1.
        -11    1    4    4    0    0 -0.22798165007E+02 -0.15810278883E+02  0.25586465455E+01  0.27861584995E+02  0.51100000000E-03 0.  1.
        -12    1    4    4    0    0  0.92314695091E+01 -0.79783383508E+01  0.17258381463E+01  0.12322841776E+02  0.00000000000E+00 0.  1.
</event>
<event>
 8    1  0.2558382E-006  0.9118800E+02  0.7816164E-02  0.1184000E+00
        -11   -1    0    0    0    0  0.00000000000E+00  0.00000000000E+00  0.45593999997E+02  0.45594000000E+02  0.51100000000E-03 0.  1.
         11   -1    0    0    0    0 -0.00000000000E+00 -0.00000000000E+00 -0.45593999997E+02  0.45594000000E+02  0.51100000000E-03 0. -1.
         23    2    1    2    0    0 -0.71054273576E-14  0.00000000000E+00  0.35527136788E-14  0.91188000000E+02  0.91188000000E+02 0.  0.
    9900012    2    3    3    0    0  0.30729347356E+02 -0.11335131875E+02  0.16822651933E+02  0.54367087171E+02  0.40000006823E+02 0.  0.
         12    1    3    3    0    0 -0.30729347356E+02  0.11335131875E+02 -0.16822651933E+02  0.36820912829E+02  0.00000000000E+00 0. -1.
         11    1    4    4    0    0 -0.38075938690E+01 -0.12322071773E+02  0.20467246628E+00  0.12898570267E+02  0.51100000000E-03 0. -1.
        -11    1    4    4    0    0  0.10899967771E+02  0.54585765256E+01  0.11736721676E+02  0.16922056348E+02  0.51100000000E-03 0.  1.
         12    1    4    4    0    0  0.23636973454E+02 -0.44716366275E+01  0.48812577909E+01  0.24546460555E+02  0.00000000000E+00 0. -1.
</event>
<event>
 8    1  0.2558382E-006  0.9118800E+02  0.7816164E-02  0.1184000E+00
        -11   -1    0    0    0    0  0.00000000000E+00  0.00000000000E+00  0.45593999997E+02  0.45594000000E+02  0.51100000000E-03 0.  1.
         11   -1    0    0    0    0 -0.00000000000E+00 -0.00000000000E+00 -0.45593999997E+02  0.45594000000E+02  0.51100000000E-03 0. -1.
         23    2    1    2    0    0  0.71054273576E-14 -0.35527136788E-14  0.44408920985E-15  0.91188000000E+02  0.91188000000E+02 0.  0.
    9900012    2    3    3    0    0  0.30281360716E+02  0.20916309013E+02  0.11523069896E+01  0.54367073871E+02  0.39999976504E+02 0.  0.
        -12    1    3    3    0    0 -0.30281360716E+02 -0.20916309013E+02 -0.11523069896E+01  0.36820926129E+02  0.00000000000E+00 0.  1.
         11    1    4    4    0    0  0.21108068203E+02  0.36792986126E+01  0.73290739889E+01  0.22645156377E+02  0.51100000000E-03 0. -1.
        -11    1    4    4    0    0 -0.26575444353E+01  0.18248933876E+02 -0.23201771444E+00  0.18442883791E+02  0.51100000000E-03 0.  1.
        -12    1    4    4    0    0  0.11830836949E+02 -0.10119234758E+01 -0.59447492849E+01  0.13279033704E+02  0.00000000000E+00 0.  1.
</event>
<event>
 8    1  0.2558382E-006  0.9118800E+02  0.7816164E-02  0.1184000E+00
        -11   -1    0    0    0    0  0.00000000000E+00  0.00000000000E+00  0.45593999997E+02  0.45594000000E+02  0.51100000000E-03 0.  1.
         11   -1    0    0    0    0 -0.00000000000E+00 -0.00000000000E+00 -0.45593999997E+02  0.45594000000E+02  0.51100000000E-03 0. -1.
         23    2    1    2    0    0  0.00000000000E+00  0.00000000000E+00  0.00000000000E+00  0.91188000000E+02  0.91188000000E+02 0.  0.
    9900012    2    3    3    0    0 -0.35616522378E+02  0.92325193893E+01 -0.14158834667E+01  0.54367071079E+02  0.39999970139E+02 0.  0.
         12    1    3    3    0    0  0.35616522378E+02 -0.92325193893E+01  0.14158834667E+01  0.36820928921E+02  0.00000000000E+00 0. -1.
         11    1    4    4    0    0 -0.16375388537E+02 -0.84901879970E+01  0.13181853342E+02  0.22671521779E+02  0.51100000000E-03 0. -1.
        -11    1    4    4    0    0 -0.11555618047E+02  0.39221323278E+01 -0.79060530648E+01  0.14540326880E+02  0.51100000000E-03 0.  1.
        -12    1    4    4    0    0 -0.76855157943E+01  0.13800575059E+02 -0.66916837440E+01  0.17155222421E+02  0.00000000000E+00 0.  1.
</event>
<event>
 8    1  0.2558382E-006  0.9118800E+02  0.7816164E-02  0.1184000E+00
        -11   -1    0    0    0    0  0.00000000000E+00  0.00000000000E+00  0.45593999997E+02  0.45594000000E+02  0.51100000000E-03 0.  1.
         11   -1    0    0    0    0 -0.00000000000E+00 -0.00000000000E+00 -0.45593999997E+02  0.45594000000E+02  0.51100000000E-03 0. -1.
         23    2    1    2    0    0  0.44408920985E-14 -0.35527136788E-14 -0.35527136788E-14  0.91188000000E+02  0.91188000000E+02 0.  0.
    9900012    2    3    3    0    0  0.66217222554E+01 -0.17146725693E+02  0.31904865025E+02  0.54367111636E+02  0.40000062597E+02 0.  0.
         12    1    3    3    0    0 -0.66217222554E+01  0.17146725693E+02 -0.31904865025E+02  0.36820888364E+02  0.00000000000E+00 0. -1.
         11    1    4    4    0    0  0.44272179404E+01 -0.69229606769E+01  0.18062607543E+01  0.84136924949E+01  0.51100000000E-03 0. -1.
        -11    1    4    4    0    0 -0.13705782375E+02 -0.12627983732E+02  0.15693252239E+02  0.24363756068E+02  0.51100000000E-03 0.  1.
        -12    1    4    4    0    0  0.15900286690E+02  0.24042187154E+01  0.14405352032E+02  0.21589663073E+02  0.00000000000E+00 0.  1.
</event>
<event>
 8    1  0.2558382E-006  0.9118800E+02  0.7816164E-02  0.1184000E+00
        -11   -1    0    0    0    0  0.00000000000E+00  0.00000000000E+00  0.45593999997E+02  0.45594000000E+02  0.51100000000E-03 0.  1.
         11   -1    0    0    0    0 -0.00000000000E+00 -0.00000000000E+00 -0.45593999997E+02  0.45594000000E+02  0.51100000000E-03 0. -1.
         23    2    1    2    0    0  0.35527136788E-14  0.00000000000E+00  0.00000000000E+00  0.91188000000E+02  0.91188000000E+02 0.  0.
    9900012    2    3    3    0    0 -0.21028330540E+02 -0.15293577202E+02  0.26071009018E+02  0.54367058946E+02  0.39999942478E+02 0.  0.
         12    1    3    3    0    0  0.21028330540E+02  0.15293577202E+02 -0.26071009018E+02  0.36820941054E+02  0.00000000000E+00 0. -1.
         11    1    4    4    0    0 -0.42479903787E+01  0.11103976117E+01 -0.51048042294E+01  0.67333076267E+01  0.51100000000E-03 0. -1.
        -11    1    4    4    0    0 -0.14544272136E+02  0.16162603295E+01  0.23998542703E+02  0.28108329753E+02  0.51100000000E-03 0.  1.
         12    1    4    4    0    0 -0.22360680253E+01 -0.18020235144E+02  0.71772705444E+01  0.19525421565E+02  0.00000000000E+00 0. -1.
</event>
<event>
 8    1  0.2558382E-006  0.9118800E+02  0.7816164E-02  0.1184000E+00
        -11   -1    0    0    0    0  0.00000000000E+00  0.00000000000E+00  0.45593999997E+02  0.45594000000E+02  0.51100000000E-03 0. -1.
         11   -1    0    0    0    0 -0.00000000000E+00 -0.00000000000E+00 -0.45593999997E+02  0.45594000000E+02  0.51100000000E-03 0.  1.
         23    2    1    2    0    0  0.00000000000E+00  0.00000000000E+00  0.13877787808E-14  0.91188000000E+02  0.91188000000E+02 0.  0.
    9900012    2    3    3    0    0 -0.21549888988E+02 -0.29854311519E+02 -0.32231078911E+00  0.54367061447E+02  0.39999948182E+02 0.  0.
        -12    1    3    3    0    0  0.21549888988E+02  0.29854311519E+02  0.32231078911E+00  0.36820938553E+02  0.00000000000E+00 0.  1.
         11    1    4    4    0    0 -0.82931813111E+01 -0.29451351572E+02 -0.11806708276E+02  0.32795690666E+02  0.51100000000E-03 0. -1.
        -11    1    4    4    0    0 -0.36834882503E+01  0.57789372189E+01  0.39458553460E+01  0.79078426731E+01  0.51100000000E-03 0.  1.
         12    1    4    4    0    0 -0.95732194267E+01 -0.61818971655E+01  0.75385421409E+01  0.13663528108E+02  0.00000000000E+00 0. -1.
</event>
<event>
 8    1  0.2558382E-006  0.9118800E+02  0.7816164E-02  0.1184000E+00
        -11   -1    0    0    0    0  0.00000000000E+00  0.00000000000E+00  0.45593999997E+02  0.45594000000E+02  0.51100000000E-03 0. -1.
         11   -1    0    0    0    0 -0.00000000000E+00 -0.00000000000E+00 -0.45593999997E+02  0.45594000000E+02  0.51100000000E-03 0.  1.
         23    2    1    2    0    0  0.88817841970E-15  0.00000000000E+00  0.00000000000E+00  0.91188000000E+02  0.91188000000E+02 0.  0.
    9900012    2    3    3    0    0 -0.71183528110E+01 -0.30356060503E+02  0.19586191812E+02  0.54367078424E+02  0.39999986883E+02 0.  0.
        -12    1    3    3    0    0  0.71183528110E+01  0.30356060503E+02 -0.19586191812E+02  0.36820921576E+02  0.00000000000E+00 0.  1.
         11    1    4    4    0    0 -0.12800446426E+02 -0.34832009707E+02  0.12886067068E+02  0.39283215929E+02  0.51100000000E-03 0. -1.
        -11    1    4    4    0    0  0.83150057210E+01 -0.17321630333E-02  0.43168917062E+01  0.93688247612E+01  0.51100000000E-03 0.  1.
         12    1    4    4    0    0 -0.26329121057E+01  0.44776813678E+01  0.23832330380E+01  0.57150377340E+01  0.00000000000E+00 0. -1.
</event>
<event>
 8    1  0.2558382E-006  0.9118800E+02  0.7816164E-02  0.1184000E+00
        -11   -1    0    0    0    0  0.00000000000E+00  0.00000000000E+00  0.45593999997E+02  0.45594000000E+02  0.51100000000E-03 0. -1.
         11   -1    0    0    0    0 -0.00000000000E+00 -0.00000000000E+00 -0.45593999997E+02  0.45594000000E+02  0.51100000000E-03 0.  1.
         23    2    1    2    0    0  0.00000000000E+00  0.00000000000E+00  0.00000000000E+00  0.91188000000E+02  0.91188000000E+02 0.  0.
    9900012    2    3    3    0    0  0.18355764923E+02  0.21686784042E+02  0.23420658470E+02  0.54367109853E+02  0.40000058533E+02 0.  0.
        -12    1    3    3    0    0 -0.18355764923E+02 -0.21686784042E+02 -0.23420658470E+02  0.36820890147E+02  0.00000000000E+00 0.  1.
         11    1    4    4    0    0  0.10726842166E+01  0.14081780663E+02  0.18614304132E+02  0.23365348631E+02  0.51100000000E-03 0. -1.
        -11    1    4    4    0    0  0.36958435552E+01  0.35853618588E+00 -0.93651198767E+01  0.10074387244E+02  0.51100000000E-03 0.  1.
        -12    1    4    4    0    0  0.13587237152E+02  0.72464671928E+01  0.14171474215E+02  0.20927373978E+02  0.00000000000E+00 0.  1.
</event>
<event>
 8    1  0.2558382E-006  0.9118800E+02  0.7816164E-02  0.1184000E+00
        -11   -1    0    0    0    0  0.00000000000E+00  0.00000000000E+00  0.45593999997E+02  0.45594000000E+02  0.51100000000E-03 0.  1.
         11   -1    0    0    0    0 -0.00000000000E+00 -0.00000000000E+00 -0.45593999997E+02  0.45594000000E+02  0.51100000000E-03 0. -1.
         23    2    1    2    0    0  0.00000000000E+00  0.00000000000E+00  0.00000000000E+00  0.91188000000E+02  0.91188000000E+02 0.  0.
    9900012    2    3    3    0    0  0.67767686223E+01  0.87613399735E+01  0.35115440288E+02  0.54367084508E+02  0.40000000752E+02 0.  0.
         12    1    3    3    0    0 -0.67767686223E+01 -0.87613399735E+01 -0.35115440288E+02  0.36820915492E+02  0.00000000000E+00 0. -1.
         11    1    4    4    0    0  0.64391454830E+01  0.21679139465E+01 -0.11724009697E+01  0.68947059202E+01  0.51100000000E-03 0. -1.
        -11    1    4    4    0    0  0.41397412379E+01  0.76727806886E+01 -0.20297616652E+01  0.89514777379E+01  0.51100000000E-03 0.  1.
        -12    1    4    4    0    0 -0.38021180986E+01 -0.10793546617E+01  0.38317602923E+02  0.38520900850E+02  0.00000000000E+00 0.  1.
</event>
<event>
 8    1  0.2558382E-006  0.9118800E+02  0.7816164E-02  0.1184000E+00
        -11   -1    0    0    0    0  0.00000000000E+00  0.00000000000E+00  0.45593999997E+02  0.45594000000E+02  0.51100000000E-03 0. -1.
         11   -1    0    0    0    0 -0.00000000000E+00 -0.00000000000E+00 -0.45593999997E+02  0.45594000000E+02  0.51100000000E-03 0.  1.
         23    2    1    2    0    0  0.00000000000E+00  0.00000000000E+00  0.00000000000E+00  0.91188000000E+02  0.91188000000E+02 0.  0.
    9900012    2    3    3    0    0 -0.27099662376E+02 -0.17776136268E+02  0.17475598507E+02  0.54367092016E+02  0.40000017870E+02 0.  0.
        -12    1    3    3    0    0  0.27099662376E+02  0.17776136268E+02 -0.17475598507E+02  0.36820907984E+02  0.00000000000E+00 0.  1.
         11    1    4    4    0    0 -0.15412739234E+02  0.33496178997E+01 -0.84955878116E+01  0.17915007209E+02  0.51100000000E-03 0.  1.
        -11    1    4    4    0    0 -0.10173472541E+02 -0.15556324410E+02  0.14369984394E+02  0.23494578618E+02  0.51100000000E-03 0. -1.
        -12    1    4    4    0    0 -0.15134506014E+01 -0.55694297579E+01  0.11601201925E+02  0.12957506190E+02  0.00000000000E+00 0.  1.
</event>
<event>
 8    1  0.2558382E-006  0.9118800E+02  0.7816164E-02  0.1184000E+00
        -11   -1    0    0    0    0  0.00000000000E+00  0.00000000000E+00  0.45593999997E+02  0.45594000000E+02  0.51100000000E-03 0.  1.
         11   -1    0    0    0    0 -0.00000000000E+00 -0.00000000000E+00 -0.45593999997E+02  0.45594000000E+02  0.51100000000E-03 0. -1.
         23    2    1    2    0    0 -0.35527136788E-14  0.00000000000E+00  0.17763568394E-14  0.91188000000E+02  0.91188000000E+02 0.  0.
    9900012    2    3    3    0    0  0.31491898741E+02  0.13476675253E+02  0.13506257808E+02  0.54367089335E+02  0.40000011758E+02 0.  0.
         12    1    3    3    0    0 -0.31491898741E+02 -0.13476675253E+02 -0.13506257808E+02  0.36820910665E+02  0.00000000000E+00 0. -1.
         11    1    4    4    0    0 -0.27638867971E+01 -0.36851501781E+00  0.97815367787E+00  0.29549379730E+01  0.51100000000E-03 0. -1.
        -11    1    4    4    0    0 -0.57648860403E+01  0.71326617524E+01  0.36620514118E+01  0.98751909113E+01  0.51100000000E-03 0.  1.
         12    1    4    4    0    0  0.40020671579E+02  0.67125285180E+01  0.88660527180E+01  0.41536960451E+02  0.00000000000E+00 0. -1.
</event>
<event>
 8    1  0.2558382E-006  0.9118800E+02  0.7816164E-02  0.1184000E+00
        -11   -1    0    0    0    0  0.00000000000E+00  0.00000000000E+00  0.45593999997E+02  0.45594000000E+02  0.51100000000E-03 0. -1.
         11   -1    0    0    0    0 -0.00000000000E+00 -0.00000000000E+00 -0.45593999997E+02  0.45594000000E+02  0.51100000000E-03 0.  1.
         23    2    1    2    0    0  0.17763568394E-14  0.35527136788E-14  0.71054273576E-14  0.91188000000E+02  0.91188000000E+02 0.  0.
    9900012    2    3    3    0    0 -0.38212752872E+01 -0.23611983116E+02 -0.27993803215E+02  0.54367069676E+02  0.39999966940E+02 0.  0.
         12    1    3    3    0    0  0.38212752872E+01  0.23611983116E+02  0.27993803215E+02  0.36820930324E+02  0.00000000000E+00 0. -1.
         11    1    4    4    0    0  0.95278950136E+00 -0.80450978604E+01  0.17558114985E+01  0.82894078013E+01  0.51100000000E-03 0. -1.
        -11    1    4    4    0    0  0.11844655055E+02  0.78035884131E+00 -0.10414500097E+02  0.15791346549E+02  0.51100000000E-03 0.  1.
        -12    1    4    4    0    0 -0.16618719843E+02 -0.16347244097E+02 -0.19335114617E+02  0.30286315326E+02  0.00000000000E+00 0.  1.
</event>
<event>
 8    1  0.2558382E-006  0.9118800E+02  0.7816164E-02  0.1184000E+00
        -11   -1    0    0    0    0  0.00000000000E+00  0.00000000000E+00  0.45593999997E+02  0.45594000000E+02  0.51100000000E-03 0. -1.
         11   -1    0    0    0    0 -0.00000000000E+00 -0.00000000000E+00 -0.45593999997E+02  0.45594000000E+02  0.51100000000E-03 0.  1.
         23    2    1    2    0    0  0.00000000000E+00  0.00000000000E+00  0.17763568394E-14  0.91188000000E+02  0.91188000000E+02 0.  0.
    9900012    2    3    3    0    0 -0.32271554821E+02 -0.15655630117E+02  0.83203290526E+01  0.54367083655E+02  0.39999998809E+02 0.  0.
        -12    1    3    3    0    0  0.32271554821E+02  0.15655630117E+02 -0.83203290526E+01  0.36820916345E+02  0.00000000000E+00 0.  1.
         11    1    4    4    0    0 -0.12237163935E+02  0.63372390011E+01 -0.54328649386E+01  0.14812994331E+02  0.51100000000E-03 0. -1.
        -11    1    4    4    0    0 -0.12491663165E+02 -0.16478731964E+02 -0.24775560463E+01  0.20826150388E+02  0.51100000000E-03 0.  1.
        -12    1    4    4    0    0 -0.75427277213E+01 -0.55141371539E+01  0.16230750037E+02  0.18727938937E+02  0.00000000000E+00 0.  1.
</event>
<event>
 8    1  0.2558382E-006  0.9118800E+02  0.7816164E-02  0.1184000E+00
        -11   -1    0    0    0    0  0.00000000000E+00  0.00000000000E+00  0.45593999997E+02  0.45594000000E+02  0.51100000000E-03 0. -1.
         11   -1    0    0    0    0 -0.00000000000E+00 -0.00000000000E+00 -0.45593999997E+02  0.45594000000E+02  0.51100000000E-03 0.  1.
         23    2    1    2    0    0  0.35527136788E-14 -0.88817841970E-15 -0.35527136788E-14  0.91188000000E+02  0.91188000000E+02 0.  0.
    9900012    2    3    3    0    0 -0.29024637637E+02  0.69700669094E+01  0.21558488620E+02  0.54367084011E+02  0.39999999620E+02 0.  0.
        -12    1    3    3    0    0  0.29024637637E+02 -0.69700669094E+01 -0.21558488620E+02  0.36820915989E+02  0.00000000000E+00 0.  1.
         11    1    4    4    0    0  0.12015064445E+01  0.42194448244E+01 -0.26573499282E+01  0.51292144881E+01  0.51100000000E-03 0. -1.
        -11    1    4    4    0    0 -0.11895561669E+02 -0.44978046273E+01 -0.52732110332E+01  0.13767403123E+02  0.51100000000E-03 0.  1.
         12    1    4    4    0    0 -0.18330582413E+02  0.72484267123E+01  0.29489049582E+02  0.35470466400E+02  0.00000000000E+00 0. -1.
</event>
<event>
 8    1  0.2558382E-006  0.9118800E+02  0.7816164E-02  0.1184000E+00
        -11   -1    0    0    0    0  0.00000000000E+00  0.00000000000E+00  0.45593999997E+02  0.45594000000E+02  0.51100000000E-03 0. -1.
         11   -1    0    0    0    0 -0.00000000000E+00 -0.00000000000E+00 -0.45593999997E+02  0.45594000000E+02  0.51100000000E-03 0.  1.
         23    2    1    2    0    0  0.00000000000E+00  0.00000000000E+00  0.88817841970E-15  0.91188000000E+02  0.91188000000E+02 0.  0.
    9900012    2    3    3    0    0 -0.23991798273E+02  0.27544735614E+02 -0.46324428631E+01  0.54367104149E+02  0.40000045528E+02 0.  0.
        -12    1    3    3    0    0  0.23991798273E+02 -0.27544735614E+02  0.46324428631E+01  0.36820895851E+02  0.00000000000E+00 0.  1.
         11    1    4    4    0    0 -0.33373118098E+01  0.21193266685E+02 -0.10369410819E+02  0.23828908575E+02  0.51100000000E-03 0.  1.
        -11    1    4    4    0    0 -0.81367133389E+01 -0.11865974079E+01  0.12076408758E+02  0.14610057020E+02  0.51100000000E-03 0. -1.
         12    1    4    4    0    0 -0.12517773125E+02  0.75380663366E+01 -0.63394408023E+01  0.15928138554E+02  0.00000000000E+00 0. -1.
</event>
<event>
 8    1  0.2558382E-006  0.9118800E+02  0.7816164E-02  0.1184000E+00
        -11   -1    0    0    0    0  0.00000000000E+00  0.00000000000E+00  0.45593999997E+02  0.45594000000E+02  0.51100000000E-03 0. -1.
         11   -1    0    0    0    0 -0.00000000000E+00 -0.00000000000E+00 -0.45593999997E+02  0.45594000000E+02  0.51100000000E-03 0.  1.
         23    2    1    2    0    0 -0.17763568394E-14  0.00000000000E+00  0.66613381478E-15  0.91188000000E+02  0.91188000000E+02 0.  0.
    9900012    2    3    3    0    0  0.31572364596E+01 -0.36639610038E+02 -0.18304443063E+01  0.54367086213E+02  0.40000004639E+02 0.  0.
        -12    1    3    3    0    0 -0.31572364596E+01  0.36639610038E+02  0.18304443063E+01  0.36820913787E+02  0.00000000000E+00 0.  1.
         11    1    4    4    0    0 -0.15739334292E+02 -0.27903379199E+02 -0.50862795890E+00  0.32040348271E+02  0.51100000000E-03 0. -1.
        -11    1    4    4    0    0  0.55940299030E+01 -0.38519143152E+00  0.25347786393E+01  0.61535880595E+01  0.51100000000E-03 0.  1.
        -12    1    4    4    0    0  0.13302540849E+02 -0.83510394069E+01 -0.38565949867E+01  0.16173149882E+02  0.00000000000E+00 0.  1.
</event>
<event>
 8    1  0.2558382E-006  0.9118800E+02  0.7816164E-02  0.1184000E+00
        -11   -1    0    0    0    0  0.00000000000E+00  0.00000000000E+00  0.45593999997E+02  0.45594000000E+02  0.51100000000E-03 0. -1.
         11   -1    0    0    0    0 -0.00000000000E+00 -0.00000000000E+00 -0.45593999997E+02  0.45594000000E+02  0.51100000000E-03 0.  1.
         23    2    1    2    0    0  0.00000000000E+00  0.00000000000E+00  0.00000000000E+00  0.91188000000E+02  0.91188000000E+02 0.  0.
    9900012    2    3    3    0    0  0.32618602480E+02 -0.72505920266E+01  0.15467202175E+02  0.54367100288E+02  0.40000036726E+02 0.  0.
        -12    1    3    3    0    0 -0.32618602480E+02  0.72505920266E+01 -0.15467202175E+02  0.36820899712E+02  0.00000000000E+00 0.  1.
         11    1    4    4    0    0  0.17537178128E+02  0.40605986477E+01  0.43797921785E+01  0.18526296388E+02  0.51100000000E-03 0. -1.
        -11    1    4    4    0    0 -0.15547306920E+01 -0.21055110158E+01  0.15992263644E+02  0.16205025791E+02  0.51100000000E-03 0.  1.
         12    1    4    4    0    0  0.16636155044E+02 -0.92056796584E+01 -0.49048536475E+01  0.19635778109E+02  0.00000000000E+00 0. -1.
</event>
<event>
 8    1  0.2558382E-006  0.9118800E+02  0.7816164E-02  0.1184000E+00
        -11   -1    0    0    0    0  0.00000000000E+00  0.00000000000E+00  0.45593999997E+02  0.45594000000E+02  0.51100000000E-03 0.  1.
         11   -1    0    0    0    0 -0.00000000000E+00 -0.00000000000E+00 -0.45593999997E+02  0.45594000000E+02  0.51100000000E-03 0. -1.
         23    2    1    2    0    0  0.35527136788E-14  0.00000000000E+00  0.00000000000E+00  0.91188000000E+02  0.91188000000E+02 0.  0.
    9900012    2    3    3    0    0  0.23927532407E+02  0.16768089438E+02  0.22407232931E+02  0.54367085860E+02  0.40000003834E+02 0.  0.
         12    1    3    3    0    0 -0.23927532407E+02 -0.16768089438E+02 -0.22407232931E+02  0.36820914140E+02  0.00000000000E+00 0. -1.
         11    1    4    4    0    0 -0.13422500373E+01 -0.52267609198E+01 -0.26736020011E+00  0.54029757184E+01  0.51100000000E-03 0. -1.
        -11    1    4    4    0    0  0.26310395742E+02  0.55173696124E+01  0.14391374818E+02  0.30492457444E+02  0.51100000000E-03 0.  1.
        -12    1    4    4    0    0 -0.10406132976E+01  0.16477480746E+02  0.82832183126E+01  0.18471652697E+02  0.00000000000E+00 0.  1.
</event>
<event>
 8    1  0.2558382E-006  0.9118800E+02  0.7816164E-02  0.1184000E+00
        -11   -1    0    0    0    0  0.00000000000E+00  0.00000000000E+00  0.45593999997E+02  0.45594000000E+02  0.51100000000E-03 0.  1.
         11   -1    0    0    0    0 -0.00000000000E+00 -0.00000000000E+00 -0.45593999997E+02  0.45594000000E+02  0.51100000000E-03 0. -1.
         23    2    1    2    0    0  0.35527136788E-14  0.00000000000E+00 -0.35527136788E-14  0.91188000000E+02  0.91188000000E+02 0.  0.
    9900012    2    3    3    0    0  0.22291641109E+02 -0.27793185492E+01 -0.29174260257E+02  0.54367091042E+02  0.40000015649E+02 0.  0.
        -12    1    3    3    0    0 -0.22291641109E+02  0.27793185492E+01  0.29174260257E+02  0.36820908958E+02  0.00000000000E+00 0.  1.
         11    1    4    4    0    0  0.12060814267E+02 -0.64547306476E+01 -0.24567213981E+02  0.28118940086E+02  0.51100000000E-03 0. -1.
        -11    1    4    4    0    0  0.17402502032E+02  0.42038521359E+00 -0.56546833735E+01  0.18302984593E+02  0.51100000000E-03 0.  1.
        -12    1    4    4    0    0 -0.71716751893E+01  0.32550268848E+01  0.10476370982E+01  0.79451663627E+01  0.00000000000E+00 0.  1.
</event>
<event>
 8    1  0.2558382E-006  0.9118800E+02  0.7816164E-02  0.1184000E+00
        -11   -1    0    0    0    0  0.00000000000E+00  0.00000000000E+00  0.45593999997E+02  0.45594000000E+02  0.51100000000E-03 0. -1.
         11   -1    0    0    0    0 -0.00000000000E+00 -0.00000000000E+00 -0.45593999997E+02  0.45594000000E+02  0.51100000000E-03 0.  1.
         23    2    1    2    0    0  0.00000000000E+00  0.35527136788E-14 -0.17763568394E-14  0.91188000000E+02  0.91188000000E+02 0.  0.
    9900012    2    3    3    0    0  0.18556342556E+02  0.27895783822E+02 -0.15273078705E+02  0.54367088316E+02  0.40000009435E+02 0.  0.
         12    1    3    3    0    0 -0.18556342556E+02 -0.27895783822E+02  0.15273078705E+02  0.36820911684E+02  0.00000000000E+00 0. -1.
         11    1    4    4    0    0 -0.61559554213E+01  0.16516050451E+02 -0.15722020500E+02  0.23619010108E+02  0.51100000000E-03 0.  1.
        -11    1    4    4    0    0  0.17386015041E+02  0.37964248607E+00  0.16969834446E+01  0.17472761673E+02  0.51100000000E-03 0. -1.
         12    1    4    4    0    0  0.73262829368E+01  0.11000090885E+02 -0.12480416499E+01  0.13275316535E+02  0.00000000000E+00 0. -1.
</event>
<event>
 8    1  0.2558382E-006  0.9118800E+02  0.7816164E-02  0.1184000E+00
        -11   -1    0    0    0    0  0.00000000000E+00  0.00000000000E+00  0.45593999997E+02  0.45594000000E+02  0.51100000000E-03 0.  1.
         11   -1    0    0    0    0 -0.00000000000E+00 -0.00000000000E+00 -0.45593999997E+02  0.45594000000E+02  0.51100000000E-03 0. -1.
         23    2    1    2    0    0  0.00000000000E+00  0.35527136788E-14  0.00000000000E+00  0.91188000000E+02  0.91188000000E+02 0.  0.
    9900012    2    3    3    0    0  0.13190615972E+02 -0.23688620304E+02  0.24912574412E+02  0.54367089563E+02  0.40000012276E+02 0.  0.
         12    1    3    3    0    0 -0.13190615972E+02  0.23688620304E+02 -0.24912574412E+02  0.36820910437E+02  0.00000000000E+00 0. -1.
         11    1    4    4    0    0  0.14444345465E+02 -0.11886454764E+02 -0.25107214797E+01  0.18874073365E+02  0.51100000000E-03 0. -1.
        -11    1    4    4    0    0  0.44611386554E+01 -0.10667469848E+02  0.54915581235E+01  0.12800542252E+02  0.51100000000E-03 0.  1.
        -12    1    4    4    0    0 -0.57148681484E+01 -0.11346956916E+01  0.21931737768E+02  0.22692473946E+02  0.00000000000E+00 0.  1.
</event>
<event>
 8    1  0.2558382E-006  0.9118800E+02  0.7816164E-02  0.1184000E+00
        -11   -1    0    0    0    0  0.00000000000E+00  0.00000000000E+00  0.45593999997E+02  0.45594000000E+02  0.51100000000E-03 0.  1.
         11   -1    0    0    0    0 -0.00000000000E+00 -0.00000000000E+00 -0.45593999997E+02  0.45594000000E+02  0.51100000000E-03 0. -1.
         23    2    1    2    0    0  0.00000000000E+00 -0.35527136788E-14  0.00000000000E+00  0.91188000000E+02  0.91188000000E+02 0.  0.
    9900012    2    3    3    0    0  0.97703323143E+01 -0.98892447721E+01  0.34095789821E+02  0.54367089647E+02  0.40000012469E+02 0.  0.
         12    1    3    3    0    0 -0.97703323143E+01  0.98892447721E+01 -0.34095789821E+02  0.36820910353E+02  0.00000000000E+00 0. -1.
         11    1    4    4    0    0 -0.90153813734E+01  0.85397347930E+00  0.10920110353E+01  0.91213409306E+01  0.51100000000E-03 0. -1.
        -11    1    4    4    0    0  0.16002449432E+01  0.64410336779E+01  0.66018845728E+01  0.93612274244E+01  0.51100000000E-03 0.  1.
        -12    1    4    4    0    0  0.17185468744E+02 -0.17184251929E+02  0.26401894213E+02  0.35884521292E+02  0.00000000000E+00 0.  1.
</event>
<event>
 8    1  0.2558382E-006  0.9118800E+02  0.7816164E-02  0.1184000E+00
        -11   -1    0    0    0    0  0.00000000000E+00  0.00000000000E+00  0.45593999997E+02  0.45594000000E+02  0.51100000000E-03 0.  1.
         11   -1    0    0    0    0 -0.00000000000E+00 -0.00000000000E+00 -0.45593999997E+02  0.45594000000E+02  0.51100000000E-03 0. -1.
         23    2    1    2    0    0  0.00000000000E+00 -0.35527136788E-14 -0.88817841970E-15  0.91188000000E+02  0.91188000000E+02 0.  0.
    9900012    2    3    3    0    0  0.24965874469E+02 -0.26700836336E+02  0.44215952628E+01  0.54367081303E+02  0.39999993446E+02 0.  0.
         12    1    3    3    0    0 -0.24965874469E+02  0.26700836336E+02 -0.44215952628E+01  0.36820918697E+02  0.00000000000E+00 0. -1.
         11    1    4    4    0    0  0.12567718870E+02 -0.19734037929E+01 -0.61541396846E+01  0.14132066928E+02  0.51100000000E-03 0. -1.
        -11    1    4    4    0    0 -0.84477569535E+01 -0.10478532140E+02  0.51288580187E+01  0.14403798742E+02  0.51100000000E-03 0.  1.
        -12    1    4    4    0    0  0.20845912552E+02 -0.14248900404E+02  0.54468769286E+01  0.25831215633E+02  0.00000000000E+00 0.  1.
</event>
<event>
 8    1  0.2558382E-006  0.9118800E+02  0.7816164E-02  0.1184000E+00
        -11   -1    0    0    0    0  0.00000000000E+00  0.00000000000E+00  0.45593999997E+02  0.45594000000E+02  0.51100000000E-03 0. -1.
         11   -1    0    0    0    0 -0.00000000000E+00 -0.00000000000E+00 -0.45593999997E+02  0.45594000000E+02  0.51100000000E-03 0.  1.
         23    2    1    2    0    0  0.00000000000E+00  0.35527136788E-14  0.00000000000E+00  0.91188000000E+02  0.91188000000E+02 0.  0.
    9900012    2    3    3    0    0  0.24648234852E+02  0.11214411022E+02  0.24949601035E+02  0.54367067262E+02  0.39999961438E+02 0.  0.
        -12    1    3    3    0    0 -0.24648234852E+02 -0.11214411022E+02 -0.24949601035E+02  0.36820932738E+02  0.00000000000E+00 0.  1.
         11    1    4    4    0    0  0.10340995020E+01 -0.51756319155E+01  0.25002710051E+01  0.58401954475E+01  0.51100000000E-03 0. -1.
        -11    1    4    4    0    0 -0.21507356972E+01 -0.78221217382E+00 -0.60351797587E+01  0.64545266988E+01  0.51100000000E-03 0.  1.
         12    1    4    4    0    0  0.25764871047E+02  0.17172255111E+02  0.28484509788E+02  0.42072345116E+02  0.00000000000E+00 0. -1.
</event>
<event>
 8    1  0.2558382E-006  0.9118800E+02  0.7816164E-02  0.1184000E+00
        -11   -1    0    0    0    0  0.00000000000E+00  0.00000000000E+00  0.45593999997E+02  0.45594000000E+02  0.51100000000E-03 0. -1.
         11   -1    0    0    0    0 -0.00000000000E+00 -0.00000000000E+00 -0.45593999997E+02  0.45594000000E+02  0.51100000000E-03 0.  1.
         23    2    1    2    0    0  0.35527136788E-14  0.35527136788E-14  0.00000000000E+00  0.91188000000E+02  0.91188000000E+02 0.  0.
    9900012    2    3    3    0    0  0.19179445412E+02 -0.29361937319E+02 -0.11216287379E+02  0.54367087573E+02  0.40000007739E+02 0.  0.
         12    1    3    3    0    0 -0.19179445412E+02  0.29361937319E+02  0.11216287379E+02  0.36820912427E+02  0.00000000000E+00 0. -1.
         11    1    4    4    0    0 -0.53931726647E+01 -0.43219908035E+01  0.74664866516E+01  0.10174199677E+02  0.51100000000E-03 0.  1.
        -11    1    4    4    0    0  0.20181861320E+02 -0.17372424265E+02 -0.38194459553E+01  0.26901613685E+02  0.51100000000E-03 0. -1.
         12    1    4    4    0    0  0.43907567571E+01 -0.76675222503E+01 -0.14863328075E+02  0.17291274210E+02  0.00000000000E+00 0. -1.
</event>
<event>
 8    1  0.2558382E-006  0.9118800E+02  0.7816164E-02  0.1184000E+00
        -11   -1    0    0    0    0  0.00000000000E+00  0.00000000000E+00  0.45593999997E+02  0.45594000000E+02  0.51100000000E-03 0.  1.
         11   -1    0    0    0    0 -0.00000000000E+00 -0.00000000000E+00 -0.45593999997E+02  0.45594000000E+02  0.51100000000E-03 0. -1.
         23    2    1    2    0    0  0.35527136788E-14 -0.35527136788E-14 -0.35527136788E-14  0.91188000000E+02  0.91188000000E+02 0.  0.
    9900012    2    3    3    0    0  0.16991020666E+02 -0.20869767830E+02  0.25130415445E+02  0.54367085115E+02  0.40000002136E+02 0.  0.
        -12    1    3    3    0    0 -0.16991020666E+02  0.20869767830E+02 -0.25130415445E+02  0.36820914885E+02  0.00000000000E+00 0.  1.
         11    1    4    4    0    0 -0.36506652546E+01 -0.53978969636E+01  0.15489940324E+02  0.16804847513E+02  0.51100000000E-03 0. -1.
        -11    1    4    4    0    0  0.10785598714E+02 -0.58049573202E+01 -0.83950970691E+01  0.14849388006E+02  0.51100000000E-03 0.  1.
        -12    1    4    4    0    0  0.98560872067E+01 -0.96669135463E+01  0.18035572189E+02  0.22712849595E+02  0.00000000000E+00 0.  1.
</event>
<event>
 8    1  0.2558382E-006  0.9118800E+02  0.7816164E-02  0.1184000E+00
        -11   -1    0    0    0    0  0.00000000000E+00  0.00000000000E+00  0.45593999997E+02  0.45594000000E+02  0.51100000000E-03 0. -1.
         11   -1    0    0    0    0 -0.00000000000E+00 -0.00000000000E+00 -0.45593999997E+02  0.45594000000E+02  0.51100000000E-03 0.  1.
         23    2    1    2    0    0  0.00000000000E+00 -0.88817841970E-15  0.00000000000E+00  0.91188000000E+02  0.91188000000E+02 0.  0.
    9900012    2    3    3    0    0 -0.77102498108E+01  0.78730016552E+01 -0.35133306133E+02  0.54367064284E+02  0.39999954647E+02 0.  0.
         12    1    3    3    0    0  0.77102498108E+01 -0.78730016552E+01  0.35133306133E+02  0.36820935716E+02  0.00000000000E+00 0. -1.
         11    1    4    4    0    0 -0.60989389190E+01 -0.65710522816E+01  0.41890034902E+01  0.98956320934E+01  0.51100000000E-03 0. -1.
        -11    1    4    4    0    0 -0.48144245802E+00  0.15749860974E+01 -0.25495695492E+02  0.25548832790E+02  0.51100000000E-03 0.  1.
        -12    1    4    4    0    0 -0.11298684338E+01  0.12869067839E+02 -0.13826614131E+02  0.18922599400E+02  0.00000000000E+00 0.  1.
</event>
<event>
 8    1  0.2558382E-006  0.9118800E+02  0.7816164E-02  0.1184000E+00
        -11   -1    0    0    0    0  0.00000000000E+00  0.00000000000E+00  0.45593999997E+02  0.45594000000E+02  0.51100000000E-03 0.  1.
         11   -1    0    0    0    0 -0.00000000000E+00 -0.00000000000E+00 -0.45593999997E+02  0.45594000000E+02  0.51100000000E-03 0. -1.
         23    2    1    2    0    0  0.17763568394E-14  0.35527136788E-14  0.17763568394E-14  0.91188000000E+02  0.91188000000E+02 0.  0.
    9900012    2    3    3    0    0 -0.15934378473E+02 -0.30962477868E+02 -0.11966676403E+02  0.54367071207E+02  0.39999970430E+02 0.  0.
        -12    1    3    3    0    0  0.15934378473E+02  0.30962477868E+02  0.11966676403E+02  0.36820928793E+02  0.00000000000E+00 0.  1.
         11    1    4    4    0    0 -0.12649726879E+02 -0.17508648528E+02 -0.48819540995E+01  0.22145018390E+02  0.51100000000E-03 0. -1.
        -11    1    4    4    0    0 -0.21172924657E+01  0.56875978343E+01  0.63681855773E+01  0.87969019727E+01  0.51100000000E-03 0.  1.
        -12    1    4    4    0    0 -0.11673591281E+01 -0.19141427175E+02 -0.13452907881E+02  0.23425150844E+02  0.00000000000E+00 0.  1.
</event>
<event>
 8    1  0.2558382E-006  0.9118800E+02  0.7816164E-02  0.1184000E+00
        -11   -1    0    0    0    0  0.00000000000E+00  0.00000000000E+00  0.45593999997E+02  0.45594000000E+02  0.51100000000E-03 0. -1.
         11   -1    0    0    0    0 -0.00000000000E+00 -0.00000000000E+00 -0.45593999997E+02  0.45594000000E+02  0.51100000000E-03 0.  1.
         23    2    1    2    0    0  0.00000000000E+00  0.00000000000E+00  0.00000000000E+00  0.91188000000E+02  0.91188000000E+02 0.  0.
    9900012    2    3    3    0    0  0.70436598459E+01  0.35892073372E+02 -0.42344041144E+01  0.54367024278E+02  0.39999863446E+02 0.  0.
         12    1    3    3    0    0 -0.70436598459E+01 -0.35892073372E+02  0.42344041144E+01  0.36820975722E+02  0.00000000000E+00 0. -1.
         11    1    4    4    0    0 -0.15185408644E+02  0.13534110060E+02  0.35477911268E+01  0.20648379911E+02  0.51100000000E-03 0. -1.
        -11    1    4    4    0    0  0.12988401540E+02  0.11172748516E+02 -0.86336110710E+01  0.19185101625E+02  0.51100000000E-03 0.  1.
         12    1    4    4    0    0  0.92406669499E+01  0.11185214795E+02  0.85141582977E+00  0.14533542741E+02  0.00000000000E+00 0. -1.
</event>
<event>
 8    1  0.2558382E-006  0.9118800E+02  0.7816164E-02  0.1184000E+00
        -11   -1    0    0    0    0  0.00000000000E+00  0.00000000000E+00  0.45593999997E+02  0.45594000000E+02  0.51100000000E-03 0.  1.
         11   -1    0    0    0    0 -0.00000000000E+00 -0.00000000000E+00 -0.45593999997E+02  0.45594000000E+02  0.51100000000E-03 0. -1.
         23    2    1    2    0    0  0.00000000000E+00  0.00000000000E+00 -0.17763568394E-14  0.91188000000E+02  0.91188000000E+02 0.  0.
    9900012    2    3    3    0    0  0.13792885345E+02  0.32790890237E+02 -0.95025108375E+01  0.54367029333E+02  0.39999874970E+02 0.  0.
        -12    1    3    3    0    0 -0.13792885345E+02 -0.32790890237E+02  0.95025108375E+01  0.36820970667E+02  0.00000000000E+00 0.  1.
         11    1    4    4    0    0  0.12767903005E+02  0.76533947866E+01 -0.76911774964E+01  0.16755536710E+02  0.51100000000E-03 0. -1.
        -11    1    4    4    0    0  0.75625399427E+01  0.15707008816E+02 -0.12874871450E+02  0.21671743157E+02  0.51100000000E-03 0.  1.
        -12    1    4    4    0    0 -0.65375576032E+01  0.94304866337E+01  0.11063538109E+02  0.15939749466E+02  0.00000000000E+00 0.  1.
</event>
<event>
 8    1  0.2558382E-006  0.9118800E+02  0.7816164E-02  0.1184000E+00
        -11   -1    0    0    0    0  0.00000000000E+00  0.00000000000E+00  0.45593999997E+02  0.45594000000E+02  0.51100000000E-03 0.  1.
         11   -1    0    0    0    0 -0.00000000000E+00 -0.00000000000E+00 -0.45593999997E+02  0.45594000000E+02  0.51100000000E-03 0. -1.
         23    2    1    2    0    0  0.00000000000E+00  0.00000000000E+00  0.35527136788E-14  0.91188000000E+02  0.91188000000E+02 0.  0.
    9900012    2    3    3    0    0 -0.22861235693E+02  0.90577658212E+01 -0.27406202331E+02  0.54367093638E+02  0.40000021567E+02 0.  0.
        -12    1    3    3    0    0  0.22861235693E+02 -0.90577658212E+01  0.27406202331E+02  0.36820906362E+02  0.00000000000E+00 0.  1.
         11    1    4    4    0    0  0.31985318288E+01  0.53826125480E+01 -0.71446054246E+01  0.94999216121E+01  0.51100000000E-03 0. -1.
        -11    1    4    4    0    0  0.58944368370E+01  0.54393955792E+01 -0.37022945773E+01  0.88339343042E+01  0.51100000000E-03 0.  1.
         12    1    4    4    0    0 -0.31954204358E+02 -0.17642423060E+01 -0.16559302329E+02  0.36033237722E+02  0.00000000000E+00 0. -1.
</event>
<event>
 8    1  0.2558382E-006  0.9118800E+02  0.7816164E-02  0.1184000E+00
        -11   -1    0    0    0    0  0.00000000000E+00  0.00000000000E+00  0.45593999997E+02  0.45594000000E+02  0.51100000000E-03 0.  1.
         11   -1    0    0    0    0 -0.00000000000E+00 -0.00000000000E+00 -0.45593999997E+02  0.45594000000E+02  0.51100000000E-03 0. -1.
         23    2    1    2    0    0 -0.35527136788E-14 -0.17763568394E-14  0.00000000000E+00  0.91188000000E+02  0.91188000000E+02 0.  0.
    9900012    2    3    3    0    0 -0.16834500895E+02 -0.15575320782E+02 -0.28806061586E+02  0.54367079018E+02  0.39999988238E+02 0.  0.
        -12    1    3    3    0    0  0.16834500895E+02  0.15575320782E+02  0.28806061586E+02  0.36820920982E+02  0.00000000000E+00 0.  1.
         11    1    4    4    0    0 -0.17554696332E+02 -0.11090540175E+02 -0.20867509316E+02  0.29438416906E+02  0.51100000000E-03 0. -1.
        -11    1    4    4    0    0  0.41126595129E+01  0.87796149507E+01 -0.15427918967E+01  0.98171184189E+01  0.51100000000E-03 0.  1.
        -12    1    4    4    0    0 -0.33924640761E+01 -0.13264395558E+02 -0.63957603736E+01  0.15111543693E+02  0.00000000000E+00 0.  1.
</event>
<event>
 8    1  0.2558382E-006  0.9118800E+02  0.7816164E-02  0.1184000E+00
        -11   -1    0    0    0    0  0.00000000000E+00  0.00000000000E+00  0.45593999997E+02  0.45594000000E+02  0.51100000000E-03 0. -1.
         11   -1    0    0    0    0 -0.00000000000E+00 -0.00000000000E+00 -0.45593999997E+02  0.45594000000E+02  0.51100000000E-03 0.  1.
         23    2    1    2    0    0  0.17763568394E-14  0.71054273576E-14 -0.88817841970E-15  0.91188000000E+02  0.91188000000E+02 0.  0.
    9900012    2    3    3    0    0 -0.80662392400E+01 -0.35431700005E+02  0.59416284238E+01  0.54367183482E+02  0.40000226384E+02 0.  0.
        -12    1    3    3    0    0  0.80662392400E+01  0.35431700005E+02 -0.59416284238E+01  0.36820816518E+02  0.00000000000E+00 0.  1.
         11    1    4    4    0    0  0.36247535136E+01 -0.11031925570E+02  0.14346846806E+02  0.18457362578E+02  0.51100000000E-03 0. -1.
        -11    1    4    4    0    0 -0.27795377047E+01 -0.15215361574E+02  0.60459963421E+01  0.16606839847E+02  0.51100000000E-03 0.  1.
        -12    1    4    4    0    0 -0.89114550489E+01 -0.91844128610E+01 -0.14451214724E+02  0.19302981057E+02  0.00000000000E+00 0.  1.
</event>
<event>
 8    1  0.2558382E-006  0.9118800E+02  0.7816164E-02  0.1184000E+00
        -11   -1    0    0    0    0  0.00000000000E+00  0.00000000000E+00  0.45593999997E+02  0.45594000000E+02  0.51100000000E-03 0.  1.
         11   -1    0    0    0    0 -0.00000000000E+00 -0.00000000000E+00 -0.45593999997E+02  0.45594000000E+02  0.51100000000E-03 0. -1.
         23    2    1    2    0    0  0.17763568394E-14  0.00000000000E+00  0.35527136788E-14  0.91188000000E+02  0.91188000000E+02 0.  0.
    9900012    2    3    3    0    0 -0.14601907759E+02  0.19910718133E+02  0.27315327348E+02  0.54367088619E+02  0.40000010126E+02 0.  0.
         12    1    3    3    0    0  0.14601907759E+02 -0.19910718133E+02 -0.27315327348E+02  0.36820911381E+02  0.00000000000E+00 0. -1.
         11    1    4    4    0    0 -0.77197892144E+00 -0.20287375265E+01 -0.25603744861E+01  0.33566717409E+01  0.51100000000E-03 0. -1.
        -11    1    4    4    0    0  0.41087685075E+01  0.81770842232E+01 -0.42374634696E+01  0.10084779718E+02  0.51100000000E-03 0.  1.
        -12    1    4    4    0    0 -0.17938697345E+02  0.13762371437E+02  0.34113165303E+02  0.40925637161E+02  0.00000000000E+00 0.  1.
</event>
<event>
 8    1  0.2558382E-006  0.9118800E+02  0.7816164E-02  0.1184000E+00
        -11   -1    0    0    0    0  0.00000000000E+00  0.00000000000E+00  0.45593999997E+02  0.45594000000E+02  0.51100000000E-03 0.  1.
         11   -1    0    0    0    0 -0.00000000000E+00 -0.00000000000E+00 -0.45593999997E+02  0.45594000000E+02  0.51100000000E-03 0. -1.
         23    2    1    2    0    0 -0.17763568394E-14  0.00000000000E+00  0.13322676296E-14  0.91188000000E+02  0.91188000000E+02 0.  0.
    9900012    2    3    3    0    0  0.19230977744E+01 -0.36564097930E+02  0.38919173034E+01  0.54367101277E+02  0.40000038982E+02 0.  0.
         12    1    3    3    0    0 -0.19230977744E+01  0.36564097930E+02 -0.38919173034E+01  0.36820898723E+02  0.00000000000E+00 0. -1.
         11    1    4    4    0    0  0.87587104459E+01 -0.24422688519E+02 -0.11598567549E+02  0.28420230341E+02  0.51100000000E-03 0. -1.
        -11    1    4    4    0    0 -0.71455631196E+01 -0.10238320192E+02  0.18532157328E+02  0.22345539334E+02  0.51100000000E-03 0.  1.
        -12    1    4    4    0    0  0.30995044817E+00 -0.19030892185E+01 -0.30416724762E+01  0.36013316018E+01  0.00000000000E+00 0.  1.
</event>
<event>
 8    1  0.2558382E-006  0.9118800E+02  0.7816164E-02  0.1184000E+00
        -11   -1    0    0    0    0  0.00000000000E+00  0.00000000000E+00  0.45593999997E+02  0.45594000000E+02  0.51100000000E-03 0.  1.
         11   -1    0    0    0    0 -0.00000000000E+00 -0.00000000000E+00 -0.45593999997E+02  0.45594000000E+02  0.51100000000E-03 0. -1.
         23    2    1    2    0    0  0.00000000000E+00  0.00000000000E+00  0.00000000000E+00  0.91188000000E+02  0.91188000000E+02 0.  0.
    9900012    2    3    3    0    0  0.94224948893E+01  0.13250340544E+02  0.33036744031E+02  0.54367063148E+02  0.39999952059E+02 0.  0.
         12    1    3    3    0    0 -0.94224948893E+01 -0.13250340544E+02 -0.33036744031E+02  0.36820936852E+02  0.00000000000E+00 0. -1.
         11    1    4    4    0    0 -0.11369065893E+01 -0.22181990000E+01  0.73956927867E+00  0.25999858414E+01  0.51100000000E-03 0. -1.
        -11    1    4    4    0    0 -0.12806633053E+02  0.78030835455E+00  0.11135167788E+02  0.16988545942E+02  0.51100000000E-03 0.  1.
         12    1    4    4    0    0  0.23366034531E+02  0.14688231189E+02  0.21162006964E+02  0.34778531365E+02  0.00000000000E+00 0. -1.
</event>
<event>
 8    1  0.2558382E-006  0.9118800E+02  0.7816164E-02  0.1184000E+00
        -11   -1    0    0    0    0  0.00000000000E+00  0.00000000000E+00  0.45593999997E+02  0.45594000000E+02  0.51100000000E-03 0.  1.
         11   -1    0    0    0    0 -0.00000000000E+00 -0.00000000000E+00 -0.45593999997E+02  0.45594000000E+02  0.51100000000E-03 0. -1.
         23    2    1    2    0    0  0.00000000000E+00 -0.22204460493E-15  0.00000000000E+00  0.91188000000E+02  0.91188000000E+02 0.  0.
    9900012    2    3    3    0    0  0.12624831484E+02  0.14334577251E+01 -0.34559200515E+02  0.54367088669E+02  0.40000010238E+02 0.  0.
        -12    1    3    3    0    0 -0.12624831484E+02 -0.14334577251E+01  0.34559200515E+02  0.36820911331E+02  0.00000000000E+00 0.  1.
         11    1    4    4    0    0  0.79906564136E+01  0.80213105480E+01 -0.31521603178E+02  0.33493334859E+02  0.51100000000E-03 0. -1.
        -11    1    4    4    0    0  0.73658680003E+01 -0.11617500082E+02  0.11172576204E+01  0.13801108086E+02  0.51100000000E-03 0.  1.
        -12    1    4    4    0    0 -0.27316929298E+01  0.50296472591E+01 -0.41548549569E+01  0.70726457233E+01  0.00000000000E+00 0.  1.
</event>
<event>
 8    1  0.2558382E-006  0.9118800E+02  0.7816164E-02  0.1184000E+00
        -11   -1    0    0    0    0  0.00000000000E+00  0.00000000000E+00  0.45593999997E+02  0.45594000000E+02  0.51100000000E-03 0. -1.
         11   -1    0    0    0    0 -0.00000000000E+00 -0.00000000000E+00 -0.45593999997E+02  0.45594000000E+02  0.51100000000E-03 0.  1.
         23    2    1    2    0    0  0.39968028887E-14  0.00000000000E+00 -0.71054273576E-14  0.91188000000E+02  0.91188000000E+02 0.  0.
    9900012    2    3    3    0    0  0.32934108338E+01  0.62254132082E+01 -0.36141065768E+02  0.54367096163E+02  0.40000027324E+02 0.  0.
         12    1    3    3    0    0 -0.32934108338E+01 -0.62254132082E+01  0.36141065768E+02  0.36820903837E+02  0.00000000000E+00 0. -1.
         11    1    4    4    0    0 -0.14530891846E+02  0.50596154572E+01 -0.11526763862E+02  0.19225316950E+02  0.51100000000E-03 0. -1.
        -11    1    4    4    0    0  0.15249012717E+01 -0.65381501019E+01 -0.42588796193E+01  0.79505211475E+01  0.51100000000E-03 0.  1.
         12    1    4    4    0    0  0.16299401408E+02  0.77039478529E+01 -0.20355422286E+02  0.27191258066E+02  0.00000000000E+00 0. -1.
</event>
<event>
 8    1  0.2558382E-006  0.9118800E+02  0.7816164E-02  0.1184000E+00
        -11   -1    0    0    0    0  0.00000000000E+00  0.00000000000E+00  0.45593999997E+02  0.45594000000E+02  0.51100000000E-03 0.  1.
         11   -1    0    0    0    0 -0.00000000000E+00 -0.00000000000E+00 -0.45593999997E+02  0.45594000000E+02  0.51100000000E-03 0. -1.
         23    2    1    2    0    0 -0.12004286454E-14  0.22204460493E-14 -0.71054273576E-14  0.91188000000E+02  0.91188000000E+02 0.  0.
    9900012    2    3    3    0    0 -0.20154679968E-01  0.36562971986E+01  0.36638913155E+02  0.54367097341E+02  0.40000030009E+02 0.  0.
         12    1    3    3    0    0  0.20154679968E-01 -0.36562971986E+01 -0.36638913155E+02  0.36820902659E+02  0.00000000000E+00 0. -1.
         11    1    4    4    0    0 -0.43177368184E+01 -0.14903252305E+01 -0.27031881403E+01  0.53076498480E+01  0.51100000000E-03 0. -1.
        -11    1    4    4    0    0 -0.18191843981E+01  0.16386383953E+02  0.23165966805E+02  0.28433871162E+02  0.51100000000E-03 0.  1.
         12    1    4    4    0    0  0.61167665365E+01 -0.11239761524E+02  0.16176134490E+02  0.20625576332E+02  0.00000000000E+00 0. -1.
</event>
<event>
 8    1  0.2558382E-006  0.9118800E+02  0.7816164E-02  0.1184000E+00
        -11   -1    0    0    0    0  0.00000000000E+00  0.00000000000E+00  0.45593999997E+02  0.45594000000E+02  0.51100000000E-03 0. -1.
         11   -1    0    0    0    0 -0.00000000000E+00 -0.00000000000E+00 -0.45593999997E+02  0.45594000000E+02  0.51100000000E-03 0.  1.
         23    2    1    2    0    0  0.17763568394E-14  0.35527136788E-14  0.35527136788E-14  0.91188000000E+02  0.91188000000E+02 0.  0.
    9900012    2    3    3    0    0  0.61095166506E+01  0.23788062106E+02  0.27433219577E+02  0.54367087072E+02  0.40000006598E+02 0.  0.
        -12    1    3    3    0    0 -0.61095166506E+01 -0.23788062106E+02 -0.27433219577E+02  0.36820912928E+02  0.00000000000E+00 0.  1.
         11    1    4    4    0    0  0.44664784533E+01  0.44307725968E+00 -0.41779603595E+01  0.61319736022E+01  0.51100000000E-03 0. -1.
        -11    1    4    4    0    0  0.11149169776E+02  0.20992360250E+01  0.37894948934E+01  0.11961231141E+02  0.51100000000E-03 0.  1.
         12    1    4    4    0    0 -0.95061315790E+01  0.21245748822E+02  0.27821685043E+02  0.36273882329E+02  0.00000000000E+00 0. -1.
</event>
<event>
 8    1  0.2558382E-006  0.9118800E+02  0.7816164E-02  0.1184000E+00
        -11   -1    0    0    0    0  0.00000000000E+00  0.00000000000E+00  0.45593999997E+02  0.45594000000E+02  0.51100000000E-03 0.  1.
         11   -1    0    0    0    0 -0.00000000000E+00 -0.00000000000E+00 -0.45593999997E+02  0.45594000000E+02  0.51100000000E-03 0. -1.
         23    2    1    2    0    0  0.00000000000E+00  0.00000000000E+00 -0.35527136788E-14  0.91188000000E+02  0.91188000000E+02 0.  0.
    9900012    2    3    3    0    0 -0.12120481525E+02  0.19764927138E+02  0.28604570916E+02  0.54367083466E+02  0.39999998376E+02 0.  0.
         12    1    3    3    0    0  0.12120481525E+02 -0.19764927138E+02 -0.28604570916E+02  0.36820916534E+02  0.00000000000E+00 0. -1.
         11    1    4    4    0    0  0.28785424162E+01  0.17442893995E+01 -0.62012479448E+01  0.70557797787E+01  0.51100000000E-03 0. -1.
        -11    1    4    4    0    0  0.33599294304E+01 -0.20214947269E+01  0.12223382630E+01  0.41072713324E+01  0.51100000000E-03 0.  1.
        -12    1    4    4    0    0 -0.18358953371E+02  0.20042132466E+02  0.33583480597E+02  0.43204032354E+02  0.00000000000E+00 0.  1.
</event>
<event>
 8    1  0.2558382E-006  0.9118800E+02  0.7816164E-02  0.1184000E+00
        -11   -1    0    0    0    0  0.00000000000E+00  0.00000000000E+00  0.45593999997E+02  0.45594000000E+02  0.51100000000E-03 0. -1.
         11   -1    0    0    0    0 -0.00000000000E+00 -0.00000000000E+00 -0.45593999997E+02  0.45594000000E+02  0.51100000000E-03 0.  1.
         23    2    1    2    0    0  0.35527136788E-14 -0.88817841970E-15  0.35527136788E-14  0.91188000000E+02  0.91188000000E+02 0.  0.
    9900012    2    3    3    0    0 -0.21465305186E+02  0.50776203901E+01  0.29482873388E+02  0.54367063309E+02  0.39999952427E+02 0.  0.
        -12    1    3    3    0    0  0.21465305186E+02 -0.50776203901E+01 -0.29482873388E+02  0.36820936691E+02  0.00000000000E+00 0.  1.
         11    1    4    4    0    0 -0.17735048863E+02  0.51125594622E+01  0.28957967568E+02  0.34339978281E+02  0.51100000000E-03 0. -1.
        -11    1    4    4    0    0  0.77987942113E+01  0.11351733593E+01  0.25078470093E+01  0.82703752387E+01  0.51100000000E-03 0.  1.
        -12    1    4    4    0    0 -0.11529050534E+02 -0.11701124314E+01 -0.19829411890E+01  0.11756709789E+02  0.00000000000E+00 0.  1.
</event>
<event>
 8    1  0.2558382E-006  0.9118800E+02  0.7816164E-02  0.1184000E+00
        -11   -1    0    0    0    0  0.00000000000E+00  0.00000000000E+00  0.45593999997E+02  0.45594000000E+02  0.51100000000E-03 0.  1.
         11   -1    0    0    0    0 -0.00000000000E+00 -0.00000000000E+00 -0.45593999997E+02  0.45594000000E+02  0.51100000000E-03 0. -1.
         23    2    1    2    0    0 -0.71054273576E-14  0.00000000000E+00  0.00000000000E+00  0.91188000000E+02  0.91188000000E+02 0.  0.
    9900012    2    3    3    0    0 -0.34164625062E+02  0.89693622448E+01 -0.10397525452E+02  0.54367087460E+02  0.40000007484E+02 0.  0.
        -12    1    3    3    0    0  0.34164625062E+02 -0.89693622448E+01  0.10397525452E+02  0.36820912540E+02  0.00000000000E+00 0.  1.
         11    1    4    4    0    0  0.61825227447E+01 -0.71689868487E-01  0.46006603331E+01  0.77068023647E+01  0.51100000000E-03 0. -1.
        -11    1    4    4    0    0 -0.11122365798E+00  0.15378744806E+01  0.18416271929E+01  0.24018783481E+01  0.51100000000E-03 0.  1.
         12    1    4    4    0    0 -0.40235924149E+02  0.75031776327E+01 -0.16839812978E+02  0.44258406748E+02  0.00000000000E+00 0. -1.
</event>
<event>
 8    1  0.2558382E-006  0.9118800E+02  0.7816164E-02  0.1184000E+00
        -11   -1    0    0    0    0  0.00000000000E+00  0.00000000000E+00  0.45593999997E+02  0.45594000000E+02  0.51100000000E-03 0. -1.
         11   -1    0    0    0    0 -0.00000000000E+00 -0.00000000000E+00 -0.45593999997E+02  0.45594000000E+02  0.51100000000E-03 0.  1.
         23    2    1    2    0    0  0.30531133177E-15  0.00000000000E+00  0.00000000000E+00  0.91188000000E+02  0.91188000000E+02 0.  0.
    9900012    2    3    3    0    0  0.88935601557E-01 -0.83993310351E+01 -0.35850031624E+02  0.54367062494E+02  0.39999950568E+02 0.  0.
         12    1    3    3    0    0 -0.88935601557E-01  0.83993310351E+01  0.35850031624E+02  0.36820937506E+02  0.00000000000E+00 0. -1.
         11    1    4    4    0    0 -0.12835765839E+02 -0.19139943985E+01 -0.17479715376E+02  0.21770638694E+02  0.51100000000E-03 0. -1.
        -11    1    4    4    0    0 -0.47888717427E+01  0.38107542413E+01 -0.64549552565E+01  0.88950316514E+01  0.51100000000E-03 0.  1.
        -12    1    4    4    0    0  0.17713573183E+02 -0.10296090878E+02 -0.11915360991E+02  0.23701392149E+02  0.00000000000E+00 0.  1.
</event>
<event>
 8    1  0.2558382E-006  0.9118800E+02  0.7816164E-02  0.1184000E+00
        -11   -1    0    0    0    0  0.00000000000E+00  0.00000000000E+00  0.45593999997E+02  0.45594000000E+02  0.51100000000E-03 0. -1.
         11   -1    0    0    0    0 -0.00000000000E+00 -0.00000000000E+00 -0.45593999997E+02  0.45594000000E+02  0.51100000000E-03 0.  1.
         23    2    1    2    0    0 -0.88817841970E-15 -0.17763568394E-14  0.00000000000E+00  0.91188000000E+02  0.91188000000E+02 0.  0.
    9900012    2    3    3    0    0 -0.40074920262E+01  0.47578247638E+01 -0.36291636169E+02  0.54367085499E+02  0.40000003013E+02 0.  0.
         12    1    3    3    0    0  0.40074920262E+01 -0.47578247638E+01  0.36291636169E+02  0.36820914501E+02  0.00000000000E+00 0. -1.
         11    1    4    4    0    0  0.76222205467E+01 -0.88586951601E+01  0.32434765148E+00  0.11691019103E+02  0.51100000000E-03 0. -1.
        -11    1    4    4    0    0  0.82913115887E+00  0.60962233788E+01 -0.52088045815E+01  0.80612060755E+01  0.51100000000E-03 0.  1.
         12    1    4    4    0    0 -0.12458843732E+02  0.75202965451E+01 -0.31407179239E+02  0.34614860321E+02  0.00000000000E+00 0. -1.
</event>
<event>
 8    1  0.2558382E-006  0.9118800E+02  0.7816164E-02  0.1184000E+00
        -11   -1    0    0    0    0  0.00000000000E+00  0.00000000000E+00  0.45593999997E+02  0.45594000000E+02  0.51100000000E-03 0. -1.
         11   -1    0    0    0    0 -0.00000000000E+00 -0.00000000000E+00 -0.45593999997E+02  0.45594000000E+02  0.51100000000E-03 0.  1.
         23    2    1    2    0    0 -0.35527136788E-14 -0.88817841970E-15  0.35527136788E-14  0.91188000000E+02  0.91188000000E+02 0.  0.
    9900012    2    3    3    0    0 -0.20412167247E+02 -0.48957670337E+01  0.30251483320E+02  0.54367118022E+02  0.40000077156E+02 0.  0.
        -12    1    3    3    0    0  0.20412167247E+02  0.48957670337E+01 -0.30251483320E+02  0.36820881978E+02  0.00000000000E+00 0.  1.
         11    1    4    4    0    0 -0.11648113805E+02  0.88099685310E+01 -0.17603342711E+01  0.14710298357E+02  0.51100000000E-03 0. -1.
        -11    1    4    4    0    0 -0.12864656441E+01 -0.63596339636E+01  0.56971075167E+00  0.65134099062E+01  0.51100000000E-03 0.  1.
         12    1    4    4    0    0 -0.74775877977E+01 -0.73461016011E+01  0.31442106839E+02  0.33143409759E+02  0.00000000000E+00 0. -1.
</event>
<event>
 8    1  0.2558382E-006  0.9118800E+02  0.7816164E-02  0.1184000E+00
        -11   -1    0    0    0    0  0.00000000000E+00  0.00000000000E+00  0.45593999997E+02  0.45594000000E+02  0.51100000000E-03 0.  1.
         11   -1    0    0    0    0 -0.00000000000E+00 -0.00000000000E+00 -0.45593999997E+02  0.45594000000E+02  0.51100000000E-03 0. -1.
         23    2    1    2    0    0  0.00000000000E+00  0.00000000000E+00  0.66613381478E-15  0.91188000000E+02  0.91188000000E+02 0.  0.
    9900012    2    3    3    0    0  0.17739107906E+02  0.32240430838E+02 -0.12876758361E+01  0.54367089651E+02  0.40000012476E+02 0.  0.
        -12    1    3    3    0    0 -0.17739107906E+02 -0.32240430838E+02  0.12876758361E+01  0.36820910349E+02  0.00000000000E+00 0.  1.
         11    1    4    4    0    0  0.44220438169E+01  0.11102773043E+02 -0.65844086361E+01  0.13644796741E+02  0.51100000000E-03 0. -1.
        -11    1    4    4    0    0 -0.90007156463E+01  0.14526377977E+02  0.27138834634E+01  0.17302996937E+02  0.51100000000E-03 0.  1.
        -12    1    4    4    0    0  0.22317779736E+02  0.66112798174E+01  0.25828493366E+01  0.23419295972E+02  0.00000000000E+00 0.  1.
</event>
<event>
 8    1  0.2558382E-006  0.9118800E+02  0.7816164E-02  0.1184000E+00
        -11   -1    0    0    0    0  0.00000000000E+00  0.00000000000E+00  0.45593999997E+02  0.45594000000E+02  0.51100000000E-03 0. -1.
         11   -1    0    0    0    0 -0.00000000000E+00 -0.00000000000E+00 -0.45593999997E+02  0.45594000000E+02  0.51100000000E-03 0.  1.
         23    2    1    2    0    0  0.00000000000E+00  0.35527136788E-14  0.00000000000E+00  0.91188000000E+02  0.91188000000E+02 0.  0.
    9900012    2    3    3    0    0 -0.18990800877E+02 -0.26898270057E+02  0.16480648427E+02  0.54367092589E+02  0.40000019174E+02 0.  0.
        -12    1    3    3    0    0  0.18990800877E+02  0.26898270057E+02 -0.16480648427E+02  0.36820907411E+02  0.00000000000E+00 0.  1.
         11    1    4    4    0    0  0.31458116338E+01 -0.28266596147E+02  0.57546610151E+01  0.29017455303E+02  0.51100000000E-03 0. -1.
        -11    1    4    4    0    0 -0.21583162594E+02  0.29973768565E+00  0.10814790317E+02  0.24142958396E+02  0.51100000000E-03 0.  1.
         12    1    4    4    0    0 -0.55344991647E+00  0.10685884041E+01 -0.88802905297E-01  0.12066788899E+01  0.00000000000E+00 0. -1.
</event>
<event>
 8    1  0.2558382E-006  0.9118800E+02  0.7816164E-02  0.1184000E+00
        -11   -1    0    0    0    0  0.00000000000E+00  0.00000000000E+00  0.45593999997E+02  0.45594000000E+02  0.51100000000E-03 0.  1.
         11   -1    0    0    0    0 -0.00000000000E+00 -0.00000000000E+00 -0.45593999997E+02  0.45594000000E+02  0.51100000000E-03 0. -1.
         23    2    1    2    0    0 -0.35527136788E-14  0.13322676296E-14 -0.35527136788E-14  0.91188000000E+02  0.91188000000E+02 0.  0.
    9900012    2    3    3    0    0 -0.19117777711E+02  0.39514572662E+01  0.31219704238E+02  0.54367172037E+02  0.40000200293E+02 0.  0.
         12    1    3    3    0    0  0.19117777711E+02 -0.39514572662E+01 -0.31219704238E+02  0.36820827963E+02  0.00000000000E+00 0. -1.
         11    1    4    4    0    0 -0.84539714671E+01  0.52453773621E+00 -0.40353577822E+01  0.93823710273E+01  0.51100000000E-03 0. -1.
        -11    1    4    4    0    0  0.70280875691E+01 -0.34348570931E+01  0.50413958218E+01  0.93063381747E+01  0.51100000000E-03 0.  1.
        -12    1    4    4    0    0 -0.17691893813E+02  0.68617766231E+01  0.30213666199E+02  0.35678462835E+02  0.00000000000E+00 0.  1.
</event>
<event>
 8    1  0.2558382E-006  0.9118800E+02  0.7816164E-02  0.1184000E+00
        -11   -1    0    0    0    0  0.00000000000E+00  0.00000000000E+00  0.45593999997E+02  0.45594000000E+02  0.51100000000E-03 0.  1.
         11   -1    0    0    0    0 -0.00000000000E+00 -0.00000000000E+00 -0.45593999997E+02  0.45594000000E+02  0.51100000000E-03 0. -1.
         23    2    1    2    0    0  0.35527136788E-14  0.00000000000E+00  0.44408920985E-15  0.91188000000E+02  0.91188000000E+02 0.  0.
    9900012    2    3    3    0    0  0.30132141367E+02  0.21148775433E+02 -0.75077112780E+00  0.54367077918E+02  0.39999985730E+02 0.  0.
        -12    1    3    3    0    0 -0.30132141367E+02 -0.21148775433E+02  0.75077112780E+00  0.36820922082E+02  0.00000000000E+00 0.  1.
         11    1    4    4    0    0  0.24388856845E+02 -0.25391988077E+01  0.18475468018E+01  0.24590187032E+02  0.51100000000E-03 0. -1.
        -11    1    4    4    0    0 -0.20456094395E+01 -0.85488491585E+00 -0.33495088408E+01  0.40167842778E+01  0.51100000000E-03 0.  1.
         12    1    4    4    0    0  0.77888939613E+01  0.24542859156E+02  0.75119091124E+00  0.25760106609E+02  0.00000000000E+00 0. -1.
</event>
<event>
 8    1  0.2558382E-006  0.9118800E+02  0.7816164E-02  0.1184000E+00
        -11   -1    0    0    0    0  0.00000000000E+00  0.00000000000E+00  0.45593999997E+02  0.45594000000E+02  0.51100000000E-03 0.  1.
         11   -1    0    0    0    0 -0.00000000000E+00 -0.00000000000E+00 -0.45593999997E+02  0.45594000000E+02  0.51100000000E-03 0. -1.
         23    2    1    2    0    0  0.17763568394E-14  0.00000000000E+00  0.00000000000E+00  0.91188000000E+02  0.91188000000E+02 0.  0.
    9900012    2    3    3    0    0 -0.71594762335E+01  0.24519753386E+02 -0.26519862289E+02  0.54367088796E+02  0.40000010529E+02 0.  0.
        -12    1    3    3    0    0  0.71594762335E+01 -0.24519753386E+02  0.26519862289E+02  0.36820911204E+02  0.00000000000E+00 0.  1.
         11    1    4    4    0    0  0.78207015174E+01 -0.39586336689E+01 -0.91204826803E+01  0.12649796731E+02  0.51100000000E-03 0. -1.
        -11    1    4    4    0    0 -0.18689853921E+01  0.20641730268E+01  0.42873448216E+01  0.51122639369E+01  0.51100000000E-03 0.  1.
         12    1    4    4    0    0 -0.13111192359E+02  0.26414214028E+02 -0.21686724430E+02  0.36605028129E+02  0.00000000000E+00 0. -1.
</event>
<event>
 8    1  0.2558382E-006  0.9118800E+02  0.7816164E-02  0.1184000E+00
        -11   -1    0    0    0    0  0.00000000000E+00  0.00000000000E+00  0.45593999997E+02  0.45594000000E+02  0.51100000000E-03 0.  1.
         11   -1    0    0    0    0 -0.00000000000E+00 -0.00000000000E+00 -0.45593999997E+02  0.45594000000E+02  0.51100000000E-03 0. -1.
         23    2    1    2    0    0  0.35527136788E-14  0.00000000000E+00 -0.35527136788E-14  0.91188000000E+02  0.91188000000E+02 0.  0.
    9900012    2    3    3    0    0 -0.18360360801E+02  0.17122570050E+02 -0.26935003990E+02  0.54367086191E+02  0.40000004589E+02 0.  0.
        -12    1    3    3    0    0  0.18360360801E+02 -0.17122570050E+02  0.26935003990E+02  0.36820913809E+02  0.00000000000E+00 0.  1.
         11    1    4    4    0    0  0.10396355084E+01  0.14188518994E+01 -0.12019106212E+02  0.12147135345E+02  0.51100000000E-03 0. -1.
        -11    1    4    4    0    0 -0.24881649230E+02  0.26428348759E+01 -0.12034521532E+02  0.27765279638E+02  0.51100000000E-03 0.  1.
        -12    1    4    4    0    0  0.54816529211E+01  0.13060883274E+02 -0.28813762461E+01  0.14454671208E+02  0.00000000000E+00 0.  1.
</event>
<event>
 8    1  0.2558382E-006  0.9118800E+02  0.7816164E-02  0.1184000E+00
        -11   -1    0    0    0    0  0.00000000000E+00  0.00000000000E+00  0.45593999997E+02  0.45594000000E+02  0.51100000000E-03 0.  1.
         11   -1    0    0    0    0 -0.00000000000E+00 -0.00000000000E+00 -0.45593999997E+02  0.45594000000E+02  0.51100000000E-03 0. -1.
         23    2    1    2    0    0 -0.35527136788E-14  0.00000000000E+00 -0.35527136788E-14  0.91188000000E+02  0.91188000000E+02 0.  0.
    9900012    2    3    3    0    0 -0.21006469296E+02  0.19137445702E+02 -0.23415142350E+02  0.54367048470E+02  0.39999918597E+02 0.  0.
        -12    1    3    3    0    0  0.21006469296E+02 -0.19137445702E+02  0.23415142350E+02  0.36820951530E+02  0.00000000000E+00 0.  1.
         11    1    4    4    0    0 -0.10150125900E+02 -0.50580973064E+01 -0.19418400631E+02  0.22487411756E+02  0.51100000000E-03 0. -1.
        -11    1    4    4    0    0  0.36027640919E+00 -0.83753842407E+00  0.33580520791E+01  0.34796240788E+01  0.51100000000E-03 0.  1.
         12    1    4    4    0    0 -0.11216619806E+02  0.25033081433E+02 -0.73547937982E+01  0.28400012636E+02  0.00000000000E+00 0. -1.
</event>
<event>
 8    1  0.2558382E-006  0.9118800E+02  0.7816164E-02  0.1184000E+00
        -11   -1    0    0    0    0  0.00000000000E+00  0.00000000000E+00  0.45593999997E+02  0.45594000000E+02  0.51100000000E-03 0.  1.
         11   -1    0    0    0    0 -0.00000000000E+00 -0.00000000000E+00 -0.45593999997E+02  0.45594000000E+02  0.51100000000E-03 0. -1.
         23    2    1    2    0    0 -0.35527136788E-14 -0.17763568394E-14  0.35527136788E-14  0.91188000000E+02  0.91188000000E+02 0.  0.
    9900012    2    3    3    0    0 -0.27015432039E+02 -0.43162562441E+01  0.24643779155E+02  0.54367088995E+02  0.40000010981E+02 0.  0.
         12    1    3    3    0    0  0.27015432039E+02  0.43162562441E+01 -0.24643779155E+02  0.36820911005E+02  0.00000000000E+00 0. -1.
         11    1    4    4    0    0 -0.92629825640E+01  0.65000263160E+01  0.83969728429E+01  0.14091215039E+02  0.51100000000E-03 0. -1.
        -11    1    4    4    0    0 -0.13501675649E+02 -0.58002588592E+01  0.25197766904E+02  0.29169602421E+02  0.51100000000E-03 0.  1.
         12    1    4    4    0    0 -0.42507738262E+01 -0.50160237008E+01 -0.89509605919E+01  0.11106271535E+02  0.00000000000E+00 0. -1.
</event>
<event>
 8    1  0.2558382E-006  0.9118800E+02  0.7816164E-02  0.1184000E+00
        -11   -1    0    0    0    0  0.00000000000E+00  0.00000000000E+00  0.45593999997E+02  0.45594000000E+02  0.51100000000E-03 0.  1.
         11   -1    0    0    0    0 -0.00000000000E+00 -0.00000000000E+00 -0.45593999997E+02  0.45594000000E+02  0.51100000000E-03 0. -1.
         23    2    1    2    0    0 -0.35527136788E-14  0.00000000000E+00 -0.35527136788E-14  0.91188000000E+02  0.91188000000E+02 0.  0.
    9900012    2    3    3    0    0  0.24153987538E+02 -0.18701356657E+02  0.20557845324E+02  0.54367070366E+02  0.39999968512E+02 0.  0.
         12    1    3    3    0    0 -0.24153987538E+02  0.18701356657E+02 -0.20557845324E+02  0.36820929634E+02  0.00000000000E+00 0. -1.
         11    1    4    4    0    0  0.22342879703E+01  0.86077791798E+01 -0.28654782006E+01  0.93432794415E+01  0.51100000000E-03 0. -1.
        -11    1    4    4    0    0 -0.10551123114E+00 -0.67338271221E+01 -0.18616184090E+00  0.67372261965E+01  0.51100000000E-03 0.  1.
        -12    1    4    4    0    0  0.22025210799E+02 -0.20575308715E+02  0.23609485365E+02  0.38286564728E+02  0.00000000000E+00 0.  1.
</event>
<event>
 8    1  0.2558382E-006  0.9118800E+02  0.7816164E-02  0.1184000E+00
        -11   -1    0    0    0    0  0.00000000000E+00  0.00000000000E+00  0.45593999997E+02  0.45594000000E+02  0.51100000000E-03 0.  1.
         11   -1    0    0    0    0 -0.00000000000E+00 -0.00000000000E+00 -0.45593999997E+02  0.45594000000E+02  0.51100000000E-03 0. -1.
         23    2    1    2    0    0  0.00000000000E+00  0.00000000000E+00  0.00000000000E+00  0.91188000000E+02  0.91188000000E+02 0.  0.
    9900012    2    3    3    0    0  0.27733788557E+02 -0.13218074838E+02 -0.20295311625E+02  0.54367079260E+02  0.39999988790E+02 0.  0.
        -12    1    3    3    0    0 -0.27733788557E+02  0.13218074838E+02  0.20295311625E+02  0.36820920740E+02  0.00000000000E+00 0.  1.
         11    1    4    4    0    0  0.25367908617E+02  0.59187141151E+01 -0.92656794445E+01  0.27648052015E+02  0.51100000000E-03 0. -1.
        -11    1    4    4    0    0  0.45473572620E+01 -0.13826122137E+02 -0.30917142574E+00  0.14558011493E+02  0.51100000000E-03 0.  1.
         12    1    4    4    0    0 -0.21814773214E+01 -0.53106668161E+01 -0.10720460755E+02  0.12161015752E+02  0.00000000000E+00 0. -1.
</event>
<event>
 8    1  0.2558382E-006  0.9118800E+02  0.7816164E-02  0.1184000E+00
        -11   -1    0    0    0    0  0.00000000000E+00  0.00000000000E+00  0.45593999997E+02  0.45594000000E+02  0.51100000000E-03 0.  1.
         11   -1    0    0    0    0 -0.00000000000E+00 -0.00000000000E+00 -0.45593999997E+02  0.45594000000E+02  0.51100000000E-03 0. -1.
         23    2    1    2    0    0  0.17763568394E-14  0.00000000000E+00 -0.17763568394E-14  0.91188000000E+02  0.91188000000E+02 0.  0.
    9900012    2    3    3    0    0 -0.92318297660E+01 -0.34035357821E+02  0.10589982303E+02  0.54367082195E+02  0.39999995479E+02 0.  0.
         12    1    3    3    0    0  0.92318297660E+01  0.34035357821E+02 -0.10589982303E+02  0.36820917805E+02  0.00000000000E+00 0. -1.
         11    1    4    4    0    0  0.97678695844E+00 -0.86997877040E+00  0.10739790511E+02  0.10819153216E+02  0.51100000000E-03 0. -1.
        -11    1    4    4    0    0 -0.11110540225E+01 -0.34258354048E+02 -0.13718962057E+01  0.34303809738E+02  0.51100000000E-03 0.  1.
        -12    1    4    4    0    0 -0.90975627019E+01  0.10929749968E+01  0.12220879968E+01  0.92441192404E+01  0.00000000000E+00 0.  1.
</event>
<event>
 8    1  0.2558382E-006  0.9118800E+02  0.7816164E-02  0.1184000E+00
        -11   -1    0    0    0    0  0.00000000000E+00  0.00000000000E+00  0.45593999997E+02  0.45594000000E+02  0.51100000000E-03 0. -1.
         11   -1    0    0    0    0 -0.00000000000E+00 -0.00000000000E+00 -0.45593999997E+02  0.45594000000E+02  0.51100000000E-03 0.  1.
         23    2    1    2    0    0  0.00000000000E+00 -0.22204460493E-15  0.00000000000E+00  0.91188000000E+02  0.91188000000E+02 0.  0.
    9900012    2    3    3    0    0 -0.59907694763E+01 -0.11533263030E+01  0.36311994696E+02  0.54367076067E+02  0.39999981510E+02 0.  0.
        -12    1    3    3    0    0  0.59907694763E+01  0.11533263030E+01 -0.36311994696E+02  0.36820923933E+02  0.00000000000E+00 0.  1.
         11    1    4    4    0    0 -0.25624536710E+00 -0.11895776996E+02  0.42962886956E+01  0.12650425639E+02  0.51100000000E-03 0. -1.
        -11    1    4    4    0    0 -0.21326880286E+00 -0.31752734414E+01 -0.25301018198E+01  0.40656193242E+01  0.51100000000E-03 0.  1.
        -12    1    4    4    0    0 -0.55212553063E+01  0.13917724134E+02  0.34545807820E+02  0.37651031104E+02  0.00000000000E+00 0.  1.
</event>
<event>
 8    1  0.2558382E-006  0.9118800E+02  0.7816164E-02  0.1184000E+00
        -11   -1    0    0    0    0  0.00000000000E+00  0.00000000000E+00  0.45593999997E+02  0.45594000000E+02  0.51100000000E-03 0.  1.
         11   -1    0    0    0    0 -0.00000000000E+00 -0.00000000000E+00 -0.45593999997E+02  0.45594000000E+02  0.51100000000E-03 0. -1.
         23    2    1    2    0    0  0.00000000000E+00 -0.44408920985E-15  0.00000000000E+00  0.91188000000E+02  0.91188000000E+02 0.  0.
    9900012    2    3    3    0    0 -0.33866494480E+02 -0.25576913325E+01 -0.14223190821E+02  0.54367076730E+02  0.39999983022E+02 0.  0.
        -12    1    3    3    0    0  0.33866494480E+02  0.25576913325E+01  0.14223190821E+02  0.36820923270E+02  0.00000000000E+00 0.  1.
         11    1    4    4    0    0 -0.14667839092E+01 -0.35991024934E+01 -0.64023491962E+01  0.74896641637E+01  0.51100000000E-03 0. -1.
        -11    1    4    4    0    0  0.16552982583E+01 -0.80347749020E+01 -0.82453253060E+01  0.11631122461E+02  0.51100000000E-03 0.  1.
         12    1    4    4    0    0 -0.34055008829E+02  0.90761860629E+01  0.42448368146E+00  0.35246290105E+02  0.00000000000E+00 0. -1.
</event>
<event>
 8    1  0.2558382E-006  0.9118800E+02  0.7816164E-02  0.1184000E+00
        -11   -1    0    0    0    0  0.00000000000E+00  0.00000000000E+00  0.45593999997E+02  0.45594000000E+02  0.51100000000E-03 0.  1.
         11   -1    0    0    0    0 -0.00000000000E+00 -0.00000000000E+00 -0.45593999997E+02  0.45594000000E+02  0.51100000000E-03 0. -1.
         23    2    1    2    0    0  0.00000000000E+00  0.00000000000E+00  0.00000000000E+00  0.91188000000E+02  0.91188000000E+02 0.  0.
    9900012    2    3    3    0    0 -0.16503653311E+02  0.32353773123E+02  0.60536093828E+01  0.54367035938E+02  0.39999890027E+02 0.  0.
        -12    1    3    3    0    0  0.16503653311E+02 -0.32353773123E+02 -0.60536093828E+01  0.36820964062E+02  0.00000000000E+00 0.  1.
         11    1    4    4    0    0 -0.26491732623E+02  0.86670935927E+01  0.50370438358E+01  0.28324939886E+02  0.51100000000E-03 0. -1.
        -11    1    4    4    0    0  0.31112283880E+01  0.59850987504E+01  0.19714964462E+01  0.70276559130E+01  0.51100000000E-03 0.  1.
        -12    1    4    4    0    0  0.68768509242E+01  0.17701580780E+02 -0.95493089913E+00  0.19014440138E+02  0.00000000000E+00 0.  1.
</event>
<event>
 8    1  0.2558382E-006  0.9118800E+02  0.7816164E-02  0.1184000E+00
        -11   -1    0    0    0    0  0.00000000000E+00  0.00000000000E+00  0.45593999997E+02  0.45594000000E+02  0.51100000000E-03 0.  1.
         11   -1    0    0    0    0 -0.00000000000E+00 -0.00000000000E+00 -0.45593999997E+02  0.45594000000E+02  0.51100000000E-03 0. -1.
         23    2    1    2    0    0 -0.71054273576E-14 -0.17763568394E-14 -0.22204460493E-14  0.91188000000E+02  0.91188000000E+02 0.  0.
    9900012    2    3    3    0    0  0.33660601771E+02  0.14592188567E+02  0.31322347103E+01  0.54367095977E+02  0.40000026899E+02 0.  0.
         12    1    3    3    0    0 -0.33660601771E+02 -0.14592188567E+02 -0.31322347103E+01  0.36820904023E+02  0.00000000000E+00 0. -1.
         11    1    4    4    0    0  0.16492929783E+02 -0.18852252554E+01 -0.14458064305E+02  0.22013778204E+02  0.51100000000E-03 0. -1.
        -11    1    4    4    0    0  0.60354706868E+01  0.57577572410E-01  0.87623379802E+01  0.10639961876E+02  0.51100000000E-03 0.  1.
         12    1    4    4    0    0  0.11132201301E+02  0.16419836250E+02  0.88279610346E+01  0.21713355897E+02  0.00000000000E+00 0. -1.
</event>
<event>
 8    1  0.2558382E-006  0.9118800E+02  0.7816164E-02  0.1184000E+00
        -11   -1    0    0    0    0  0.00000000000E+00  0.00000000000E+00  0.45593999997E+02  0.45594000000E+02  0.51100000000E-03 0. -1.
         11   -1    0    0    0    0 -0.00000000000E+00 -0.00000000000E+00 -0.45593999997E+02  0.45594000000E+02  0.51100000000E-03 0.  1.
         23    2    1    2    0    0  0.00000000000E+00  0.00000000000E+00  0.35527136788E-14  0.91188000000E+02  0.91188000000E+02 0.  0.
    9900012    2    3    3    0    0  0.14578209975E+02 -0.11070935686E+02 -0.31948243897E+02  0.54367080523E+02  0.39999991668E+02 0.  0.
         12    1    3    3    0    0 -0.14578209975E+02  0.11070935686E+02  0.31948243897E+02  0.36820919477E+02  0.00000000000E+00 0. -1.
         11    1    4    4    0    0  0.12073970118E+02  0.24247903118E+01 -0.82072613167E+01  0.14799307451E+02  0.51100000000E-03 0. -1.
        -11    1    4    4    0    0  0.27009338865E+01 -0.20162742441E+02 -0.69446474497E+01  0.21495565939E+02  0.51100000000E-03 0.  1.
         12    1    4    4    0    0 -0.19669402937E+00  0.66670164430E+01 -0.16796335131E+02  0.18072207132E+02  0.00000000000E+00 0. -1.
</event>
<event>
 8    1  0.2558382E-006  0.9118800E+02  0.7816164E-02  0.1184000E+00
        -11   -1    0    0    0    0  0.00000000000E+00  0.00000000000E+00  0.45593999997E+02  0.45594000000E+02  0.51100000000E-03 0.  1.
         11   -1    0    0    0    0 -0.00000000000E+00 -0.00000000000E+00 -0.45593999997E+02  0.45594000000E+02  0.51100000000E-03 0. -1.
         23    2    1    2    0    0  0.00000000000E+00  0.00000000000E+00  0.00000000000E+00  0.91188000000E+02  0.91188000000E+02 0.  0.
    9900012    2    3    3    0    0  0.17378062251E+02  0.23907122924E+02  0.21959753304E+02  0.54367104584E+02  0.40000046519E+02 0.  0.
         12    1    3    3    0    0 -0.17378062251E+02 -0.23907122924E+02 -0.21959753304E+02  0.36820895416E+02  0.00000000000E+00 0. -1.
         11    1    4    4    0    0  0.10495329097E+02  0.10877709589E+02  0.67925617774E+01  0.16571523603E+02  0.51100000000E-03 0.  1.
        -11    1    4    4    0    0 -0.11059204001E+02  0.71245473983E+01 -0.63184962168E+00  0.13170588558E+02  0.51100000000E-03 0. -1.
         12    1    4    4    0    0  0.17941937156E+02  0.59048659364E+01  0.15799041148E+02  0.24624992423E+02  0.00000000000E+00 0. -1.
</event>
<event>
 8    1  0.2558382E-006  0.9118800E+02  0.7816164E-02  0.1184000E+00
        -11   -1    0    0    0    0  0.00000000000E+00  0.00000000000E+00  0.45593999997E+02  0.45594000000E+02  0.51100000000E-03 0.  1.
         11   -1    0    0    0    0 -0.00000000000E+00 -0.00000000000E+00 -0.45593999997E+02  0.45594000000E+02  0.51100000000E-03 0. -1.
         23    2    1    2    0    0  0.17763568394E-14  0.00000000000E+00  0.00000000000E+00  0.91188000000E+02  0.91188000000E+02 0.  0.
    9900012    2    3    3    0    0  0.46879972207E+01 -0.15053244759E+02  0.33274649887E+02  0.54367084465E+02  0.40000000655E+02 0.  0.
         12    1    3    3    0    0 -0.46879972207E+01  0.15053244759E+02 -0.33274649887E+02  0.36820915535E+02  0.00000000000E+00 0. -1.
         11    1    4    4    0    0 -0.66452887667E+01 -0.10058166770E+02  0.64658200082E+01  0.13679671421E+02  0.51100000000E-03 0. -1.
        -11    1    4    4    0    0 -0.38804654599E+01  0.90618590559E+01  0.95647125367E+01  0.13735320452E+02  0.51100000000E-03 0.  1.
         12    1    4    4    0    0  0.15213751447E+02 -0.14056937046E+02  0.17244117342E+02  0.26952092592E+02  0.00000000000E+00 0. -1.
</event>
<event>
 8    1  0.2558382E-006  0.9118800E+02  0.7816164E-02  0.1184000E+00
        -11   -1    0    0    0    0  0.00000000000E+00  0.00000000000E+00  0.45593999997E+02  0.45594000000E+02  0.51100000000E-03 0.  1.
         11   -1    0    0    0    0 -0.00000000000E+00 -0.00000000000E+00 -0.45593999997E+02  0.45594000000E+02  0.51100000000E-03 0. -1.
         23    2    1    2    0    0  0.00000000000E+00  0.00000000000E+00  0.00000000000E+00  0.91188000000E+02  0.91188000000E+02 0.  0.
    9900012    2    3    3    0    0 -0.10393378825E+02  0.27767226881E+02 -0.21834349782E+02  0.54367081456E+02  0.39999993795E+02 0.  0.
        -12    1    3    3    0    0  0.10393378825E+02 -0.27767226881E+02  0.21834349782E+02  0.36820918544E+02  0.00000000000E+00 0.  1.
         11    1    4    4    0    0 -0.93790213633E+01  0.29545137863E+01 -0.23310451731E+02  0.25299651255E+02  0.51100000000E-03 0. -1.
        -11    1    4    4    0    0  0.68112362639E+01  0.14882550283E+02  0.30196239123E+00  0.16369924372E+02  0.51100000000E-03 0.  1.
         12    1    4    4    0    0 -0.78255937250E+01  0.99301628108E+01  0.11741395580E+01  0.12697505830E+02  0.00000000000E+00 0. -1.
</event>
<event>
 8    1  0.2558382E-006  0.9118800E+02  0.7816164E-02  0.1184000E+00
        -11   -1    0    0    0    0  0.00000000000E+00  0.00000000000E+00  0.45593999997E+02  0.45594000000E+02  0.51100000000E-03 0.  1.
         11   -1    0    0    0    0 -0.00000000000E+00 -0.00000000000E+00 -0.45593999997E+02  0.45594000000E+02  0.51100000000E-03 0. -1.
         23    2    1    2    0    0  0.17763568394E-14  0.35527136788E-14 -0.17763568394E-14  0.91188000000E+02  0.91188000000E+02 0.  0.
    9900012    2    3    3    0    0  0.13181362339E+02  0.30512050353E+02 -0.15844437794E+02  0.54367085578E+02  0.40000003192E+02 0.  0.
        -12    1    3    3    0    0 -0.13181362339E+02 -0.30512050353E+02  0.15844437794E+02  0.36820914422E+02  0.00000000000E+00 0.  1.
         11    1    4    4    0    0  0.71340911789E+01  0.36478276726E+01 -0.72923488373E+01  0.10834216885E+02  0.51100000000E-03 0. -1.
        -11    1    4    4    0    0 -0.10113454109E+02  0.15276367495E+01 -0.87806451093E+01  0.13480183858E+02  0.51100000000E-03 0.  1.
        -12    1    4    4    0    0  0.16160725269E+02  0.25336585931E+02  0.22855615257E+00  0.30052684835E+02  0.00000000000E+00 0.  1.
</event>
<event>
 8    1  0.2558382E-006  0.9118800E+02  0.7816164E-02  0.1184000E+00
        -11   -1    0    0    0    0  0.00000000000E+00  0.00000000000E+00  0.45593999997E+02  0.45594000000E+02  0.51100000000E-03 0.  1.
         11   -1    0    0    0    0 -0.00000000000E+00 -0.00000000000E+00 -0.45593999997E+02  0.45594000000E+02  0.51100000000E-03 0. -1.
         23    2    1    2    0    0  0.00000000000E+00  0.00000000000E+00  0.00000000000E+00  0.91188000000E+02  0.91188000000E+02 0.  0.
    9900012    2    3    3    0    0  0.29351413432E+02 -0.46794703938E+01  0.21734182365E+02  0.54367114668E+02  0.40000069508E+02 0.  0.
         12    1    3    3    0    0 -0.29351413432E+02  0.46794703938E+01 -0.21734182365E+02  0.36820885332E+02  0.00000000000E+00 0. -1.
         11    1    4    4    0    0  0.17845668359E+02  0.49500371499E+01  0.10859883617E+02  0.21468763807E+02  0.51100000000E-03 0. -1.
        -11    1    4    4    0    0  0.18248995829E+02 -0.36783747448E+01  0.14089963587E+02  0.23347020445E+02  0.51100000000E-03 0.  1.
        -12    1    4    4    0    0 -0.67432507563E+01 -0.59511327989E+01 -0.32156648387E+01  0.95513304156E+01  0.00000000000E+00 0.  1.
</event>
<event>
 8    1  0.2558382E-006  0.9118800E+02  0.7816164E-02  0.1184000E+00
        -11   -1    0    0    0    0  0.00000000000E+00  0.00000000000E+00  0.45593999997E+02  0.45594000000E+02  0.51100000000E-03 0. -1.
         11   -1    0    0    0    0 -0.00000000000E+00 -0.00000000000E+00 -0.45593999997E+02  0.45594000000E+02  0.51100000000E-03 0.  1.
         23    2    1    2    0    0  0.00000000000E+00  0.26645352591E-14  0.00000000000E+00  0.91188000000E+02  0.91188000000E+02 0.  0.
    9900012    2    3    3    0    0 -0.20075508930E+02 -0.57557182506E+01  0.30325325969E+02  0.54367085474E+02  0.40000002955E+02 0.  0.
        -12    1    3    3    0    0  0.20075508930E+02  0.57557182506E+01 -0.30325325969E+02  0.36820914526E+02  0.00000000000E+00 0.  1.
         11    1    4    4    0    0 -0.52146284500E+01 -0.10042905248E+02  0.10088464996E+02  0.15160126053E+02  0.51100000000E-03 0. -1.
        -11    1    4    4    0    0 -0.97485562831E+01  0.17096542019E+02  0.13434532563E+02  0.23828822129E+02  0.51100000000E-03 0.  1.
        -12    1    4    4    0    0 -0.51123241971E+01 -0.12809355022E+02  0.68023284104E+01  0.15378137292E+02  0.00000000000E+00 0.  1.
</event>
<event>
 8    1  0.2558382E-006  0.9118800E+02  0.7816164E-02  0.1184000E+00
        -11   -1    0    0    0    0  0.00000000000E+00  0.00000000000E+00  0.45593999997E+02  0.45594000000E+02  0.51100000000E-03 0.  1.
         11   -1    0    0    0    0 -0.00000000000E+00 -0.00000000000E+00 -0.45593999997E+02  0.45594000000E+02  0.51100000000E-03 0. -1.
         23    2    1    2    0    0  0.00000000000E+00 -0.35527136788E-14  0.00000000000E+00  0.91188000000E+02  0.91188000000E+02 0.  0.
    9900012    2    3    3    0    0  0.41962443585E+01 -0.16115793566E+02  0.32839800928E+02  0.54367084830E+02  0.40000001487E+02 0.  0.
         12    1    3    3    0    0 -0.41962443585E+01  0.16115793566E+02 -0.32839800928E+02  0.36820915170E+02  0.00000000000E+00 0. -1.
         11    1    4    4    0    0  0.99661430270E+01 -0.19951937939E+01  0.36219349075E+02  0.37618427038E+02  0.51100000000E-03 0. -1.
        -11    1    4    4    0    0 -0.47219335318E+00 -0.37115227847E+01  0.15777484057E+01  0.40604997521E+01  0.51100000000E-03 0.  1.
         12    1    4    4    0    0 -0.52977053154E+01 -0.10409076987E+02 -0.49572965530E+01  0.12688158040E+02  0.00000000000E+00 0. -1.
</event>
<event>
 8    1  0.2558382E-006  0.9118800E+02  0.7816164E-02  0.1184000E+00
        -11   -1    0    0    0    0  0.00000000000E+00  0.00000000000E+00  0.45593999997E+02  0.45594000000E+02  0.51100000000E-03 0.  1.
         11   -1    0    0    0    0 -0.00000000000E+00 -0.00000000000E+00 -0.45593999997E+02  0.45594000000E+02  0.51100000000E-03 0. -1.
         23    2    1    2    0    0 -0.71054273576E-14  0.55511151231E-16 -0.17763568394E-14  0.91188000000E+02  0.91188000000E+02 0.  0.
    9900012    2    3    3    0    0  0.33829607202E+02 -0.34114327719E+00  0.14533425681E+02  0.54367093382E+02  0.40000020983E+02 0.  0.
         12    1    3    3    0    0 -0.33829607202E+02  0.34114327719E+00 -0.14533425681E+02  0.36820906618E+02  0.00000000000E+00 0. -1.
         11    1    4    4    0    0  0.96698593067E+01 -0.19239206601E+01  0.12600574011E+02  0.15999441096E+02  0.51100000000E-03 0.  1.
        -11    1    4    4    0    0  0.20323931290E+02  0.10904887010E+02 -0.78074034577E+01  0.24350242151E+02  0.51100000000E-03 0. -1.
         12    1    4    4    0    0  0.38358166047E+01 -0.93221096276E+01  0.97402551279E+01  0.14017410135E+02  0.00000000000E+00 0. -1.
</event>
<event>
 8    1  0.2558382E-006  0.9118800E+02  0.7816164E-02  0.1184000E+00
        -11   -1    0    0    0    0  0.00000000000E+00  0.00000000000E+00  0.45593999997E+02  0.45594000000E+02  0.51100000000E-03 0.  1.
         11   -1    0    0    0    0 -0.00000000000E+00 -0.00000000000E+00 -0.45593999997E+02  0.45594000000E+02  0.51100000000E-03 0. -1.
         23    2    1    2    0    0  0.44408920985E-15 -0.71054273576E-14  0.16653345369E-14  0.91188000000E+02  0.91188000000E+02 0.  0.
    9900012    2    3    3    0    0  0.38005334109E+01 -0.36616900152E+02  0.73240554627E+00  0.54367111244E+02  0.40000061702E+02 0.  0.
        -12    1    3    3    0    0 -0.38005334109E+01  0.36616900152E+02 -0.73240554627E+00  0.36820888756E+02  0.00000000000E+00 0.  1.
         11    1    4    4    0    0 -0.21038715998E+01 -0.25002706050E+02 -0.75176276529E+01  0.26193058457E+02  0.51100000000E-03 0. -1.
        -11    1    4    4    0    0 -0.31900165058E+01 -0.14927321087E+02  0.10122158250E+02  0.18315545530E+02  0.51100000000E-03 0.  1.
         12    1    4    4    0    0  0.90944215164E+01  0.33131269858E+01 -0.18721250504E+01  0.98585072575E+01  0.00000000000E+00 0. -1.
</event>
<event>
 8    1  0.2558382E-006  0.9118800E+02  0.7816164E-02  0.1184000E+00
        -11   -1    0    0    0    0  0.00000000000E+00  0.00000000000E+00  0.45593999997E+02  0.45594000000E+02  0.51100000000E-03 0.  1.
         11   -1    0    0    0    0 -0.00000000000E+00 -0.00000000000E+00 -0.45593999997E+02  0.45594000000E+02  0.51100000000E-03 0. -1.
         23    2    1    2    0    0  0.00000000000E+00 -0.35527136788E-14 -0.17763568394E-14  0.91188000000E+02  0.91188000000E+02 0.  0.
    9900012    2    3    3    0    0 -0.17042761294E+02  0.28793175333E+02  0.15371341295E+02  0.54367071285E+02  0.39999970607E+02 0.  0.
         12    1    3    3    0    0  0.17042761294E+02 -0.28793175333E+02 -0.15371341295E+02  0.36820928715E+02  0.00000000000E+00 0. -1.
         11    1    4    4    0    0 -0.16059579438E+02  0.45374575998E+01  0.32381929848E+01  0.16999544325E+02  0.51100000000E-03 0. -1.
        -11    1    4    4    0    0 -0.84793142797E+01  0.26085390138E+02  0.11069462519E+02  0.29578359488E+02  0.51100000000E-03 0.  1.
        -12    1    4    4    0    0  0.74961324240E+01 -0.18296724050E+01  0.10636857913E+01  0.77891674709E+01  0.00000000000E+00 0.  1.
</event>
<event>
 8    1  0.2558382E-006  0.9118800E+02  0.7816164E-02  0.1184000E+00
        -11   -1    0    0    0    0  0.00000000000E+00  0.00000000000E+00  0.45593999997E+02  0.45594000000E+02  0.51100000000E-03 0.  1.
         11   -1    0    0    0    0 -0.00000000000E+00 -0.00000000000E+00 -0.45593999997E+02  0.45594000000E+02  0.51100000000E-03 0. -1.
         23    2    1    2    0    0  0.00000000000E+00 -0.17763568394E-14  0.00000000000E+00  0.91188000000E+02  0.91188000000E+02 0.  0.
    9900012    2    3    3    0    0  0.22882257928E+02 -0.11145594808E+02 -0.26607456976E+02  0.54367098623E+02  0.40000032931E+02 0.  0.
        -12    1    3    3    0    0 -0.22882257928E+02  0.11145594808E+02  0.26607456976E+02  0.36820901377E+02  0.00000000000E+00 0.  1.
         11    1    4    4    0    0  0.25794376153E+01  0.55481060325E+00 -0.83536035710E+01  0.87603656373E+01  0.51100000000E-03 0. -1.
        -11    1    4    4    0    0  0.57244129377E+01 -0.11723551996E+02  0.81945924150E+01  0.15406554449E+02  0.51100000000E-03 0.  1.
        -12    1    4    4    0    0  0.14578407375E+02  0.23146585085E-01 -0.26448445820E+02  0.30200178537E+02  0.00000000000E+00 0.  1.
</event>
<event>
 8    1  0.2558382E-006  0.9118800E+02  0.7816164E-02  0.1184000E+00
        -11   -1    0    0    0    0  0.00000000000E+00  0.00000000000E+00  0.45593999997E+02  0.45594000000E+02  0.51100000000E-03 0.  1.
         11   -1    0    0    0    0 -0.00000000000E+00 -0.00000000000E+00 -0.45593999997E+02  0.45594000000E+02  0.51100000000E-03 0. -1.
         23    2    1    2    0    0 -0.17763568394E-14 -0.35527136788E-14  0.00000000000E+00  0.91188000000E+02  0.91188000000E+02 0.  0.
    9900012    2    3    3    0    0  0.12603002165E+02  0.23691673410E+02  0.25212095849E+02  0.54367070767E+02  0.39999969427E+02 0.  0.
         12    1    3    3    0    0 -0.12603002165E+02 -0.23691673410E+02 -0.25212095849E+02  0.36820929233E+02  0.00000000000E+00 0. -1.
         11    1    4    4    0    0  0.67498533959E+01  0.23555431539E+02  0.10035467709E+02  0.26478849829E+02  0.51100000000E-03 0. -1.
        -11    1    4    4    0    0  0.74227052112E+01  0.63605298057E+01 -0.16184884113E+01  0.99081984770E+01  0.51100000000E-03 0.  1.
         12    1    4    4    0    0 -0.15695564421E+01 -0.62242879351E+01  0.16795116551E+02  0.17980022461E+02  0.00000000000E+00 0. -1.
</event>
<event>
 8    1  0.2558382E-006  0.9118800E+02  0.7816164E-02  0.1184000E+00
        -11   -1    0    0    0    0  0.00000000000E+00  0.00000000000E+00  0.45593999997E+02  0.45594000000E+02  0.51100000000E-03 0.  1.
         11   -1    0    0    0    0 -0.00000000000E+00 -0.00000000000E+00 -0.45593999997E+02  0.45594000000E+02  0.51100000000E-03 0. -1.
         23    2    1    2    0    0  0.00000000000E+00  0.00000000000E+00  0.00000000000E+00  0.91188000000E+02  0.91188000000E+02 0.  0.
    9900012    2    3    3    0    0 -0.16734512617E+02 -0.27047420823E+02  0.18552056643E+02  0.54367004748E+02  0.39999818923E+02 0.  0.
         12    1    3    3    0    0  0.16734512617E+02  0.27047420823E+02 -0.18552056643E+02  0.36820995252E+02  0.00000000000E+00 0. -1.
         11    1    4    4    0    0 -0.16403360595E+02 -0.61406934131E+01 -0.87663394751E+01  0.19586399936E+02  0.51100000000E-03 0. -1.
        -11    1    4    4    0    0 -0.23758838213E+01 -0.16326870705E+02  0.20446002681E+02  0.26272619908E+02  0.51100000000E-03 0.  1.
         12    1    4    4    0    0  0.20447317990E+01 -0.45798567046E+01  0.68723934370E+01  0.85079849034E+01  0.00000000000E+00 0. -1.
</event>
<event>
 8    1  0.2558382E-006  0.9118800E+02  0.7816164E-02  0.1184000E+00
        -11   -1    0    0    0    0  0.00000000000E+00  0.00000000000E+00  0.45593999997E+02  0.45594000000E+02  0.51100000000E-03 0. -1.
         11   -1    0    0    0    0 -0.00000000000E+00 -0.00000000000E+00 -0.45593999997E+02  0.45594000000E+02  0.51100000000E-03 0.  1.
         23    2    1    2    0    0  0.00000000000E+00  0.00000000000E+00  0.17763568394E-14  0.91188000000E+02  0.91188000000E+02 0.  0.
    9900012    2    3    3    0    0  0.34122193066E+02  0.83013700992E+01 -0.11069958375E+02  0.54367071392E+02  0.39999970852E+02 0.  0.
        -12    1    3    3    0    0 -0.34122193066E+02 -0.83013700992E+01  0.11069958375E+02  0.36820928608E+02  0.00000000000E+00 0.  1.
         11    1    4    4    0    0  0.11285091467E+02 -0.72296400846E+01 -0.23383774801E+00  0.13404315183E+02  0.51100000000E-03 0. -1.
        -11    1    4    4    0    0  0.14359588300E+02 -0.22709513028E+01 -0.14914639669E+02  0.20827901303E+02  0.51100000000E-03 0.  1.
        -12    1    4    4    0    0  0.84775132988E+01  0.17801961487E+02  0.40785190425E+01  0.20134854906E+02  0.00000000000E+00 0.  1.
</event>
<event>
 8    1  0.2558382E-006  0.9118800E+02  0.7816164E-02  0.1184000E+00
        -11   -1    0    0    0    0  0.00000000000E+00  0.00000000000E+00  0.45593999997E+02  0.45594000000E+02  0.51100000000E-03 0. -1.
         11   -1    0    0    0    0 -0.00000000000E+00 -0.00000000000E+00 -0.45593999997E+02  0.45594000000E+02  0.51100000000E-03 0.  1.
         23    2    1    2    0    0  0.00000000000E+00  0.17763568394E-14  0.71054273576E-14  0.91188000000E+02  0.91188000000E+02 0.  0.
    9900012    2    3    3    0    0  0.29347758988E+01 -0.13006920905E+02 -0.34321793569E+02  0.54367103558E+02  0.40000044182E+02 0.  0.
         12    1    3    3    0    0 -0.29347758988E+01  0.13006920905E+02  0.34321793569E+02  0.36820896442E+02  0.00000000000E+00 0. -1.
         11    1    4    4    0    0 -0.13754724215E+01 -0.46925930045E+01 -0.11285986925E+02  0.12299831488E+02  0.51100000000E-03 0. -1.
        -11    1    4    4    0    0 -0.11266793199E+02 -0.14096123969E+02 -0.15640902972E+02  0.23880518964E+02  0.51100000000E-03 0.  1.
         12    1    4    4    0    0  0.15577041519E+02  0.57817960679E+01 -0.73949036713E+01  0.18186753107E+02  0.00000000000E+00 0. -1.
</event>
<event>
 8    1  0.2558382E-006  0.9118800E+02  0.7816164E-02  0.1184000E+00
        -11   -1    0    0    0    0  0.00000000000E+00  0.00000000000E+00  0.45593999997E+02  0.45594000000E+02  0.51100000000E-03 0.  1.
         11   -1    0    0    0    0 -0.00000000000E+00 -0.00000000000E+00 -0.45593999997E+02  0.45594000000E+02  0.51100000000E-03 0. -1.
         23    2    1    2    0    0  0.88817841970E-15  0.00000000000E+00  0.00000000000E+00  0.91188000000E+02  0.91188000000E+02 0.  0.
    9900012    2    3    3    0    0 -0.62338723870E+01  0.33361744868E+02  0.14279803763E+02  0.54367082289E+02  0.39999995693E+02 0.  0.
         12    1    3    3    0    0  0.62338723870E+01 -0.33361744868E+02 -0.14279803763E+02  0.36820917711E+02  0.00000000000E+00 0. -1.
         11    1    4    4    0    0 -0.83865461070E+01  0.30002351416E+01 -0.99403474597E+01  0.13347137311E+02  0.51100000000E-03 0. -1.
        -11    1    4    4    0    0  0.68743901652E+01  0.15250120545E+02  0.16141934735E+02  0.23246192678E+02  0.51100000000E-03 0.  1.
         12    1    4    4    0    0 -0.47217164453E+01  0.15111389181E+02  0.80782164882E+01  0.17773752300E+02  0.00000000000E+00 0. -1.
</event>
<event>
 8    1  0.2558382E-006  0.9118800E+02  0.7816164E-02  0.1184000E+00
        -11   -1    0    0    0    0  0.00000000000E+00  0.00000000000E+00  0.45593999997E+02  0.45594000000E+02  0.51100000000E-03 0.  1.
         11   -1    0    0    0    0 -0.00000000000E+00 -0.00000000000E+00 -0.45593999997E+02  0.45594000000E+02  0.51100000000E-03 0. -1.
         23    2    1    2    0    0  0.66613381478E-15  0.00000000000E+00 -0.35527136788E-14  0.91188000000E+02  0.91188000000E+02 0.  0.
    9900012    2    3    3    0    0 -0.14033246583E+01  0.21932657188E+02 -0.29542637887E+02  0.54367106138E+02  0.40000050064E+02 0.  0.
        -12    1    3    3    0    0  0.14033246583E+01 -0.21932657188E+02  0.29542637887E+02  0.36820893862E+02  0.00000000000E+00 0.  1.
         11    1    4    4    0    0 -0.54315494454E+01  0.21315189368E+01  0.26052950087E+01  0.63900441861E+01  0.51100000000E-03 0. -1.
        -11    1    4    4    0    0 -0.10334128265E+00  0.17476012338E+02 -0.21514541750E+01  0.17608249260E+02  0.51100000000E-03 0.  1.
        -12    1    4    4    0    0  0.41315660698E+01  0.23251259129E+01 -0.29996478721E+02  0.30368812692E+02  0.00000000000E+00 0.  1.
</event>
<event>
 8    1  0.2558382E-006  0.9118800E+02  0.7816164E-02  0.1184000E+00
        -11   -1    0    0    0    0  0.00000000000E+00  0.00000000000E+00  0.45593999997E+02  0.45594000000E+02  0.51100000000E-03 0.  1.
         11   -1    0    0    0    0 -0.00000000000E+00 -0.00000000000E+00 -0.45593999997E+02  0.45594000000E+02  0.51100000000E-03 0. -1.
         23    2    1    2    0    0  0.00000000000E+00  0.00000000000E+00  0.00000000000E+00  0.91188000000E+02  0.91188000000E+02 0.  0.
    9900012    2    3    3    0    0 -0.19151245158E+02 -0.22924899321E+02  0.21528015070E+02  0.54367127756E+02  0.40000099346E+02 0.  0.
         12    1    3    3    0    0  0.19151245158E+02  0.22924899321E+02 -0.21528015070E+02  0.36820872244E+02  0.00000000000E+00 0. -1.
         11    1    4    4    0    0  0.16919867872E+01 -0.17294899838E+02  0.34036169203E+01  0.17707653376E+02  0.51100000000E-03 0. -1.
        -11    1    4    4    0    0 -0.97530481491E+01 -0.13505442437E+02  0.41706866351E+01  0.17173047222E+02  0.51100000000E-03 0.  1.
         12    1    4    4    0    0 -0.11090183796E+02  0.78754429546E+01  0.13953711514E+02  0.19486427158E+02  0.00000000000E+00 0. -1.
</event>
<event>
 8    1  0.2558382E-006  0.9118800E+02  0.7816164E-02  0.1184000E+00
        -11   -1    0    0    0    0  0.00000000000E+00  0.00000000000E+00  0.45593999997E+02  0.45594000000E+02  0.51100000000E-03 0.  1.
         11   -1    0    0    0    0 -0.00000000000E+00 -0.00000000000E+00 -0.45593999997E+02  0.45594000000E+02  0.51100000000E-03 0. -1.
         23    2    1    2    0    0  0.35527136788E-14 -0.35527136788E-14  0.00000000000E+00  0.91188000000E+02  0.91188000000E+02 0.  0.
    9900012    2    3    3    0    0 -0.16184691604E+02 -0.29627102372E+02  0.14699362200E+02  0.54367072712E+02  0.39999973861E+02 0.  0.
         12    1    3    3    0    0  0.16184691604E+02  0.29627102372E+02 -0.14699362200E+02  0.36820927288E+02  0.00000000000E+00 0. -1.
         11    1    4    4    0    0 -0.57957030889E+01 -0.17476776005E+02  0.16297433980E+02  0.24589311263E+02  0.51100000000E-03 0. -1.
        -11    1    4    4    0    0 -0.46685924556E+01 -0.12080071228E+02  0.10318679252E+02  0.16558955829E+02  0.51100000000E-03 0.  1.
         12    1    4    4    0    0 -0.57203960591E+01 -0.70255140084E-01 -0.11916751032E+02  0.13218805620E+02  0.00000000000E+00 0. -1.
</event>
<event>
 8    1  0.2558382E-006  0.9118800E+02  0.7816164E-02  0.1184000E+00
        -11   -1    0    0    0    0  0.00000000000E+00  0.00000000000E+00  0.45593999997E+02  0.45594000000E+02  0.51100000000E-03 0.  1.
         11   -1    0    0    0    0 -0.00000000000E+00 -0.00000000000E+00 -0.45593999997E+02  0.45594000000E+02  0.51100000000E-03 0. -1.
         23    2    1    2    0    0  0.00000000000E+00  0.00000000000E+00  0.00000000000E+00  0.91188000000E+02  0.91188000000E+02 0.  0.
    9900012    2    3    3    0    0 -0.89254105082E+01 -0.34689529981E+02 -0.85295256590E+01  0.54367092203E+02  0.40000018295E+02 0.  0.
         12    1    3    3    0    0  0.89254105082E+01  0.34689529981E+02  0.85295256590E+01  0.36820907797E+02  0.00000000000E+00 0. -1.
         11    1    4    4    0    0 -0.13953878731E+02 -0.18212937457E+02 -0.16930639055E+02  0.28514353605E+02  0.51100000000E-03 0. -1.
        -11    1    4    4    0    0 -0.58749677144E+01 -0.34233528862E+01  0.51668387007E+01  0.85399539255E+01  0.51100000000E-03 0.  1.
         12    1    4    4    0    0  0.10903435938E+02 -0.13053239638E+02  0.32342746952E+01  0.17312784672E+02  0.00000000000E+00 0. -1.
</event>
<event>
 8    1  0.2558382E-006  0.9118800E+02  0.7816164E-02  0.1184000E+00
        -11   -1    0    0    0    0  0.00000000000E+00  0.00000000000E+00  0.45593999997E+02  0.45594000000E+02  0.51100000000E-03 0.  1.
         11   -1    0    0    0    0 -0.00000000000E+00 -0.00000000000E+00 -0.45593999997E+02  0.45594000000E+02  0.51100000000E-03 0. -1.
         23    2    1    2    0    0 -0.17763568394E-14  0.00000000000E+00  0.00000000000E+00  0.91188000000E+02  0.91188000000E+02 0.  0.
    9900012    2    3    3    0    0 -0.10824787221E+02 -0.78710527617E+01  0.34302333360E+02  0.54367087954E+02  0.40000008609E+02 0.  0.
         12    1    3    3    0    0  0.10824787221E+02  0.78710527617E+01 -0.34302333360E+02  0.36820912046E+02  0.00000000000E+00 0. -1.
         11    1    4    4    0    0  0.77028549118E+01 -0.25743467324E+01  0.11695515192E+01  0.82054302695E+01  0.51100000000E-03 0. -1.
        -11    1    4    4    0    0 -0.11869085871E+02 -0.13221807864E+02  0.30790073876E+02  0.35548840378E+02  0.51100000000E-03 0.  1.
         12    1    4    4    0    0 -0.66585562620E+01  0.79251018351E+01  0.23427079640E+01  0.10612817307E+02  0.00000000000E+00 0. -1.
</event>
<event>
 8    1  0.2558382E-006  0.9118800E+02  0.7816164E-02  0.1184000E+00
        -11   -1    0    0    0    0  0.00000000000E+00  0.00000000000E+00  0.45593999997E+02  0.45594000000E+02  0.51100000000E-03 0.  1.
         11   -1    0    0    0    0 -0.00000000000E+00 -0.00000000000E+00 -0.45593999997E+02  0.45594000000E+02  0.51100000000E-03 0. -1.
         23    2    1    2    0    0  0.00000000000E+00  0.00000000000E+00  0.88817841970E-15  0.91188000000E+02  0.91188000000E+02 0.  0.
    9900012    2    3    3    0    0  0.26451827288E+02 -0.25213270645E+02  0.45134895880E+01  0.54367085131E+02  0.40000002174E+02 0.  0.
         12    1    3    3    0    0 -0.26451827288E+02  0.25213270645E+02 -0.45134895880E+01  0.36820914869E+02  0.00000000000E+00 0. -1.
         11    1    4    4    0    0  0.21103154187E+02 -0.19792852464E+02 -0.69793953586E+01  0.29762595403E+02  0.51100000000E-03 0. -1.
        -11    1    4    4    0    0  0.54850975255E+01 -0.12755853449E+02  0.10015777017E+02  0.17120568962E+02  0.51100000000E-03 0.  1.
         12    1    4    4    0    0 -0.13642442459E+00  0.73354352679E+01  0.14771079292E+01  0.74839207657E+01  0.00000000000E+00 0. -1.
</event>
<event>
 8    1  0.2558382E-006  0.9118800E+02  0.7816164E-02  0.1184000E+00
        -11   -1    0    0    0    0  0.00000000000E+00  0.00000000000E+00  0.45593999997E+02  0.45594000000E+02  0.51100000000E-03 0.  1.
         11   -1    0    0    0    0 -0.00000000000E+00 -0.00000000000E+00 -0.45593999997E+02  0.45594000000E+02  0.51100000000E-03 0. -1.
         23    2    1    2    0    0  0.00000000000E+00 -0.17763568394E-14  0.00000000000E+00  0.91188000000E+02  0.91188000000E+02 0.  0.
    9900012    2    3    3    0    0  0.24576542498E+01 -0.86740213362E+01  0.35700171588E+02  0.54367068970E+02  0.39999965330E+02 0.  0.
         12    1    3    3    0    0 -0.24576542498E+01  0.86740213362E+01 -0.35700171588E+02  0.36820931030E+02  0.00000000000E+00 0. -1.
         11    1    4    4    0    0 -0.81783800334E-02 -0.90947961921E+01 -0.52994244230E+01  0.10526123890E+02  0.51100000000E-03 0. -1.
        -11    1    4    4    0    0  0.65561449911E+00 -0.60552150484E+01  0.74434975209E+01  0.96177500102E+01  0.51100000000E-03 0.  1.
        -12    1    4    4    0    0  0.18102181307E+01  0.64759899042E+01  0.33556098490E+02  0.34223195070E+02  0.00000000000E+00 0.  1.
</event>
<event>
 8    1  0.2558382E-006  0.9118800E+02  0.7816164E-02  0.1184000E+00
        -11   -1    0    0    0    0  0.00000000000E+00  0.00000000000E+00  0.45593999997E+02  0.45594000000E+02  0.51100000000E-03 0.  1.
         11   -1    0    0    0    0 -0.00000000000E+00 -0.00000000000E+00 -0.45593999997E+02  0.45594000000E+02  0.51100000000E-03 0. -1.
         23    2    1    2    0    0 -0.35527136788E-14  0.17763568394E-14  0.00000000000E+00  0.91188000000E+02  0.91188000000E+02 0.  0.
    9900012    2    3    3    0    0 -0.25291800265E+02 -0.15635624726E+02 -0.21717131634E+02  0.54367058572E+02  0.39999941628E+02 0.  0.
         12    1    3    3    0    0  0.25291800265E+02  0.15635624726E+02  0.21717131634E+02  0.36820941428E+02  0.00000000000E+00 0. -1.
         11    1    4    4    0    0 -0.48142611982E+01 -0.33557601391E+01  0.42573556338E+01  0.72500561549E+01  0.51100000000E-03 0.  1.
        -11    1    4    4    0    0 -0.17039070002E+02  0.68185922152E+01 -0.61001764306E+01  0.19339991186E+02  0.51100000000E-03 0. -1.
         12    1    4    4    0    0 -0.34384690651E+01 -0.19098456802E+02 -0.19874310837E+02  0.27777011231E+02  0.00000000000E+00 0. -1.
</event>
<event>
 8    1  0.2558382E-006  0.9118800E+02  0.7816164E-02  0.1184000E+00
        -11   -1    0    0    0    0  0.00000000000E+00  0.00000000000E+00  0.45593999997E+02  0.45594000000E+02  0.51100000000E-03 0.  1.
         11   -1    0    0    0    0 -0.00000000000E+00 -0.00000000000E+00 -0.45593999997E+02  0.45594000000E+02  0.51100000000E-03 0. -1.
         23    2    1    2    0    0  0.00000000000E+00  0.00000000000E+00  0.00000000000E+00  0.91188000000E+02  0.91188000000E+02 0.  0.
    9900012    2    3    3    0    0 -0.99673780719E+01  0.19227736840E+02 -0.29777931618E+02  0.54367086091E+02  0.40000004362E+02 0.  0.
        -12    1    3    3    0    0  0.99673780719E+01 -0.19227736840E+02  0.29777931618E+02  0.36820913909E+02  0.00000000000E+00 0.  1.
         11    1    4    4    0    0  0.25072588443E+01 -0.22071037653E+01  0.55011235078E+01  0.64358382556E+01  0.51100000000E-03 0. -1.
        -11    1    4    4    0    0  0.34990060028E+01  0.20949505520E+01  0.63233539932E+00  0.41269491324E+01  0.51100000000E-03 0.  1.
         12    1    4    4    0    0 -0.15973642919E+02  0.19339890054E+02 -0.35911390525E+02  0.43804298703E+02  0.00000000000E+00 0. -1.
</event>
<event>
 8    1  0.2558382E-006  0.9118800E+02  0.7816164E-02  0.1184000E+00
        -11   -1    0    0    0    0  0.00000000000E+00  0.00000000000E+00  0.45593999997E+02  0.45594000000E+02  0.51100000000E-03 0. -1.
         11   -1    0    0    0    0 -0.00000000000E+00 -0.00000000000E+00 -0.45593999997E+02  0.45594000000E+02  0.51100000000E-03 0.  1.
         23    2    1    2    0    0  0.00000000000E+00  0.00000000000E+00  0.35527136788E-14  0.91188000000E+02  0.91188000000E+02 0.  0.
    9900012    2    3    3    0    0 -0.24161851721E+02  0.10242275557E+01  0.27765719581E+02  0.54367091476E+02  0.40000016638E+02 0.  0.
        -12    1    3    3    0    0  0.24161851721E+02 -0.10242275557E+01 -0.27765719581E+02  0.36820908524E+02  0.00000000000E+00 0.  1.
         11    1    4    4    0    0  0.28059906765E+01  0.20484242171E+01  0.10756188564E+02  0.11303327746E+02  0.51100000000E-03 0. -1.
        -11    1    4    4    0    0 -0.22410688137E+02  0.17264647634E+01 -0.27086854092E+01  0.22639712901E+02  0.51100000000E-03 0.  1.
        -12    1    4    4    0    0 -0.45571542608E+01 -0.27506614249E+01  0.19718216426E+02  0.20424050828E+02  0.00000000000E+00 0.  1.
</event>
<event>
 8    1  0.2558382E-006  0.9118800E+02  0.7816164E-02  0.1184000E+00
        -11   -1    0    0    0    0  0.00000000000E+00  0.00000000000E+00  0.45593999997E+02  0.45594000000E+02  0.51100000000E-03 0.  1.
         11   -1    0    0    0    0 -0.00000000000E+00 -0.00000000000E+00 -0.45593999997E+02  0.45594000000E+02  0.51100000000E-03 0. -1.
         23    2    1    2    0    0 -0.17763568394E-14 -0.35527136788E-14 -0.35527136788E-14  0.91188000000E+02  0.91188000000E+02 0.  0.
    9900012    2    3    3    0    0  0.13770361016E+02  0.16617870624E+02  0.29832765121E+02  0.54367213190E+02  0.40000294107E+02 0.  0.
         12    1    3    3    0    0 -0.13770361016E+02 -0.16617870624E+02 -0.29832765121E+02  0.36820786810E+02  0.00000000000E+00 0. -1.
         11    1    4    4    0    0  0.53429368262E+01 -0.10510461803E+02  0.41958117045E+01  0.12514855866E+02  0.51100000000E-03 0.  1.
        -11    1    4    4    0    0  0.81611939774E+01  0.29542105219E+02  0.23924533775E+02  0.38880899996E+02  0.51100000000E-03 0. -1.
         12    1    4    4    0    0  0.26623021244E+00 -0.24137727922E+01  0.17124196410E+01  0.29714573268E+01  0.00000000000E+00 0. -1.
</event>
<event>
 8    1  0.2558382E-006  0.9118800E+02  0.7816164E-02  0.1184000E+00
        -11   -1    0    0    0    0  0.00000000000E+00  0.00000000000E+00  0.45593999997E+02  0.45594000000E+02  0.51100000000E-03 0. -1.
         11   -1    0    0    0    0 -0.00000000000E+00 -0.00000000000E+00 -0.45593999997E+02  0.45594000000E+02  0.51100000000E-03 0.  1.
         23    2    1    2    0    0  0.00000000000E+00 -0.35527136788E-14  0.00000000000E+00  0.91188000000E+02  0.91188000000E+02 0.  0.
    9900012    2    3    3    0    0  0.30358045175E+02  0.18517715701E+02 -0.95532322813E+01  0.54367069150E+02  0.39999965740E+02 0.  0.
         12    1    3    3    0    0 -0.30358045175E+02 -0.18517715701E+02  0.95532322813E+01  0.36820930850E+02  0.00000000000E+00 0. -1.
         11    1    4    4    0    0  0.12292395051E+02  0.15385352010E+02  0.10541158553E+02  0.22336697528E+02  0.51100000000E-03 0. -1.
        -11    1    4    4    0    0  0.17926380191E+02  0.80831449054E+01 -0.17979529436E+02  0.26644996102E+02  0.51100000000E-03 0.  1.
         12    1    4    4    0    0  0.13926993348E+00 -0.49507812141E+01 -0.21148613987E+01  0.53853755190E+01  0.00000000000E+00 0. -1.
</event>
<event>
 8    1  0.2558382E-006  0.9118800E+02  0.7816164E-02  0.1184000E+00
        -11   -1    0    0    0    0  0.00000000000E+00  0.00000000000E+00  0.45593999997E+02  0.45594000000E+02  0.51100000000E-03 0.  1.
         11   -1    0    0    0    0 -0.00000000000E+00 -0.00000000000E+00 -0.45593999997E+02  0.45594000000E+02  0.51100000000E-03 0. -1.
         23    2    1    2    0    0  0.35527136788E-14  0.00000000000E+00  0.00000000000E+00  0.91188000000E+02  0.91188000000E+02 0.  0.
    9900012    2    3    3    0    0 -0.29271540370E+02  0.22102271133E+02  0.32321323899E+01  0.54367080068E+02  0.39999990632E+02 0.  0.
         12    1    3    3    0    0  0.29271540370E+02 -0.22102271133E+02 -0.32321323899E+01  0.36820919932E+02  0.00000000000E+00 0. -1.
         11    1    4    4    0    0 -0.11081996822E+02  0.24304410477E+02 -0.57656617202E+01  0.27326870980E+02  0.51100000000E-03 0. -1.
        -11    1    4    4    0    0 -0.13492628858E+02  0.62061643195E+01  0.16839004875E+01  0.14946672879E+02  0.51100000000E-03 0.  1.
         12    1    4    4    0    0 -0.46969146900E+01 -0.84083036643E+01  0.73138936226E+01  0.12093536209E+02  0.00000000000E+00 0. -1.
</event>
<event>
 8    1  0.2558382E-006  0.9118800E+02  0.7816164E-02  0.1184000E+00
        -11   -1    0    0    0    0  0.00000000000E+00  0.00000000000E+00  0.45593999997E+02  0.45594000000E+02  0.51100000000E-03 0.  1.
         11   -1    0    0    0    0 -0.00000000000E+00 -0.00000000000E+00 -0.45593999997E+02  0.45594000000E+02  0.51100000000E-03 0. -1.
         23    2    1    2    0    0  0.17763568394E-14  0.35527136788E-14  0.00000000000E+00  0.91188000000E+02  0.91188000000E+02 0.  0.
    9900012    2    3    3    0    0 -0.12811071271E+02 -0.24434669898E+02  0.24384480561E+02  0.54367088382E+02  0.40000009585E+02 0.  0.
         12    1    3    3    0    0  0.12811071271E+02  0.24434669898E+02 -0.24384480561E+02  0.36820911618E+02  0.00000000000E+00 0. -1.
         11    1    4    4    0    0 -0.36224938914E+01 -0.10408029919E+01 -0.65648431026E+01  0.75698677719E+01  0.51100000000E-03 0. -1.
        -11    1    4    4    0    0  0.45673982658E+01 -0.65376348350E+01  0.21767200478E+02  0.23182165841E+02  0.51100000000E-03 0.  1.
        -12    1    4    4    0    0 -0.13755975645E+02 -0.16856232071E+02  0.91821231859E+01  0.23615054770E+02  0.00000000000E+00 0.  1.
</event>
<event>
 8    1  0.2558382E-006  0.9118800E+02  0.7816164E-02  0.1184000E+00
        -11   -1    0    0    0    0  0.00000000000E+00  0.00000000000E+00  0.45593999997E+02  0.45594000000E+02  0.51100000000E-03 0.  1.
         11   -1    0    0    0    0 -0.00000000000E+00 -0.00000000000E+00 -0.45593999997E+02  0.45594000000E+02  0.51100000000E-03 0. -1.
         23    2    1    2    0    0  0.00000000000E+00  0.00000000000E+00  0.00000000000E+00  0.91188000000E+02  0.91188000000E+02 0.  0.
    9900012    2    3    3    0    0  0.13488604079E+02  0.27939044124E+02  0.19830464598E+02  0.54367082674E+02  0.39999996573E+02 0.  0.
         12    1    3    3    0    0 -0.13488604079E+02 -0.27939044124E+02 -0.19830464598E+02  0.36820917326E+02  0.00000000000E+00 0. -1.
         11    1    4    4    0    0  0.42285739290E+01 -0.12506765990E+01 -0.38372560682E+01  0.58454737893E+01  0.51100000000E-03 0. -1.
        -11    1    4    4    0    0 -0.35350487081E+01 -0.47605888967E+01  0.47917471072E+01  0.76236878617E+01  0.51100000000E-03 0.  1.
        -12    1    4    4    0    0  0.12795078858E+02  0.33950309619E+02  0.18875973559E+02  0.40897921023E+02  0.00000000000E+00 0.  1.
</event>
<event>
 8    1  0.2558382E-006  0.9118800E+02  0.7816164E-02  0.1184000E+00
        -11   -1    0    0    0    0  0.00000000000E+00  0.00000000000E+00  0.45593999997E+02  0.45594000000E+02  0.51100000000E-03 0.  1.
         11   -1    0    0    0    0 -0.00000000000E+00 -0.00000000000E+00 -0.45593999997E+02  0.45594000000E+02  0.51100000000E-03 0. -1.
         23    2    1    2    0    0  0.00000000000E+00  0.00000000000E+00  0.17763568394E-14  0.91188000000E+02  0.91188000000E+02 0.  0.
    9900012    2    3    3    0    0 -0.13575188346E+02 -0.33742849867E+02 -0.57368204547E+01  0.54367125964E+02  0.40000095261E+02 0.  0.
         12    1    3    3    0    0  0.13575188346E+02  0.33742849867E+02  0.57368204547E+01  0.36820874036E+02  0.00000000000E+00 0. -1.
         11    1    4    4    0    0 -0.17763325717E+01 -0.48010834402E+01 -0.60032140153E+01  0.78895081202E+01  0.51100000000E-03 0. -1.
        -11    1    4    4    0    0 -0.16071778550E+02 -0.21521904688E+02  0.14002575266E+02  0.30291361170E+02  0.51100000000E-03 0.  1.
        -12    1    4    4    0    0  0.42729227756E+01 -0.74198617394E+01 -0.13736181706E+02  0.16186256674E+02  0.00000000000E+00 0.  1.
</event>
<event>
 8    1  0.2558382E-006  0.9118800E+02  0.7816164E-02  0.1184000E+00
        -11   -1    0    0    0    0  0.00000000000E+00  0.00000000000E+00  0.45593999997E+02  0.45594000000E+02  0.51100000000E-03 0.  1.
         11   -1    0    0    0    0 -0.00000000000E+00 -0.00000000000E+00 -0.45593999997E+02  0.45594000000E+02  0.51100000000E-03 0. -1.
         23    2    1    2    0    0  0.17763568394E-14  0.00000000000E+00  0.00000000000E+00  0.91188000000E+02  0.91188000000E+02 0.  0.
    9900012    2    3    3    0    0 -0.90197157136E+01  0.34115221276E+02 -0.10515525648E+02  0.54367083745E+02  0.39999999013E+02 0.  0.
        -12    1    3    3    0    0  0.90197157136E+01 -0.34115221276E+02  0.10515525648E+02  0.36820916255E+02  0.00000000000E+00 0.  1.
         11    1    4    4    0    0 -0.43153483170E+01  0.22273188795E+02 -0.14902597063E+02  0.27144144298E+02  0.51100000000E-03 0. -1.
        -11    1    4    4    0    0  0.55354212558E+01  0.10691291166E+02  0.98543934116E+01  0.15558073951E+02  0.51100000000E-03 0.  1.
         12    1    4    4    0    0 -0.10239788652E+02  0.11507413141E+01 -0.54673219962E+01  0.11664865496E+02  0.00000000000E+00 0. -1.
</event>
<event>
 8    1  0.2558382E-006  0.9118800E+02  0.7816164E-02  0.1184000E+00
        -11   -1    0    0    0    0  0.00000000000E+00  0.00000000000E+00  0.45593999997E+02  0.45594000000E+02  0.51100000000E-03 0. -1.
         11   -1    0    0    0    0 -0.00000000000E+00 -0.00000000000E+00 -0.45593999997E+02  0.45594000000E+02  0.51100000000E-03 0.  1.
         23    2    1    2    0    0  0.00000000000E+00  0.35527136788E-14  0.00000000000E+00  0.91188000000E+02  0.91188000000E+02 0.  0.
    9900012    2    3    3    0    0  0.34896177616E+02 -0.11713142981E+02  0.91594057334E+00  0.54367083691E+02  0.39999998890E+02 0.  0.
         12    1    3    3    0    0 -0.34896177616E+02  0.11713142981E+02 -0.91594057334E+00  0.36820916309E+02  0.00000000000E+00 0. -1.
         11    1    4    4    0    0  0.24008121091E+02  0.27141669696E+01  0.43083236990E+01  0.24542172561E+02  0.51100000000E-03 0.  1.
        -11    1    4    4    0    0 -0.63863964536E+01  0.93537637502E+00  0.35612181928E-01  0.64546306721E+01  0.51100000000E-03 0. -1.
         12    1    4    4    0    0  0.17274452979E+02 -0.15362686326E+02 -0.34279953076E+01  0.23370280458E+02  0.00000000000E+00 0. -1.
</event>
<event>
 8    1  0.2558382E-006  0.9118800E+02  0.7816164E-02  0.1184000E+00
        -11   -1    0    0    0    0  0.00000000000E+00  0.00000000000E+00  0.45593999997E+02  0.45594000000E+02  0.51100000000E-03 0.  1.
         11   -1    0    0    0    0 -0.00000000000E+00 -0.00000000000E+00 -0.45593999997E+02  0.45594000000E+02  0.51100000000E-03 0. -1.
         23    2    1    2    0    0  0.35527136788E-14  0.00000000000E+00 -0.35527136788E-14  0.91188000000E+02  0.91188000000E+02 0.  0.
    9900012    2    3    3    0    0  0.23948765010E+02  0.15692093091E+02 -0.23151545954E+02  0.54367092744E+02  0.40000019529E+02 0.  0.
        -12    1    3    3    0    0 -0.23948765010E+02 -0.15692093091E+02  0.23151545954E+02  0.36820907256E+02  0.00000000000E+00 0.  1.
         11    1    4    4    0    0  0.17726036903E+02  0.26007589552E+01  0.52580460727E+01  0.18671458973E+02  0.51100000000E-03 0. -1.
        -11    1    4    4    0    0  0.96627075378E+01  0.19889550989E+01 -0.11157035560E+02  0.14893062213E+02  0.51100000000E-03 0.  1.
        -12    1    4    4    0    0 -0.34399794306E+01  0.11102379037E+02 -0.17252556467E+02  0.20802571558E+02  0.00000000000E+00 0.  1.
</event>
<event>
 8    1  0.2558382E-006  0.9118800E+02  0.7816164E-02  0.1184000E+00
        -11   -1    0    0    0    0  0.00000000000E+00  0.00000000000E+00  0.45593999997E+02  0.45594000000E+02  0.51100000000E-03 0.  1.
         11   -1    0    0    0    0 -0.00000000000E+00 -0.00000000000E+00 -0.45593999997E+02  0.45594000000E+02  0.51100000000E-03 0. -1.
         23    2    1    2    0    0  0.00000000000E+00  0.35527136788E-14 -0.35527136788E-14  0.91188000000E+02  0.91188000000E+02 0.  0.
    9900012    2    3    3    0    0  0.19524490086E+02 -0.25996179332E+02  0.17285049569E+02  0.54367082146E+02  0.39999995369E+02 0.  0.
        -12    1    3    3    0    0 -0.19524490086E+02  0.25996179332E+02 -0.17285049569E+02  0.36820917854E+02  0.00000000000E+00 0.  1.
         11    1    4    4    0    0  0.71327790358E+01  0.49602393974E+01  0.45081084572E+01  0.97879289830E+01  0.51100000000E-03 0. -1.
        -11    1    4    4    0    0 -0.36614388521E+01 -0.25477581445E+02  0.81023169537E+01  0.26984455360E+02  0.51100000000E-03 0.  1.
        -12    1    4    4    0    0  0.16053149903E+02 -0.54788372842E+01  0.46746241580E+01  0.17594697804E+02  0.00000000000E+00 0.  1.
</event>
<event>
 8    1  0.2558382E-006  0.9118800E+02  0.7816164E-02  0.1184000E+00
        -11   -1    0    0    0    0  0.00000000000E+00  0.00000000000E+00  0.45593999997E+02  0.45594000000E+02  0.51100000000E-03 0.  1.
         11   -1    0    0    0    0 -0.00000000000E+00 -0.00000000000E+00 -0.45593999997E+02  0.45594000000E+02  0.51100000000E-03 0. -1.
         23    2    1    2    0    0  0.00000000000E+00  0.00000000000E+00 -0.44408920985E-15  0.91188000000E+02  0.91188000000E+02 0.  0.
    9900012    2    3    3    0    0  0.35712016577E+02  0.80456301580E+01 -0.39623542253E+01  0.54367074650E+02  0.39999978280E+02 0.  0.
         12    1    3    3    0    0 -0.35712016577E+02 -0.80456301580E+01  0.39623542253E+01  0.36820925350E+02  0.00000000000E+00 0. -1.
         11    1    4    4    0    0  0.23529236965E+02  0.72813002619E+01 -0.10019400390E+02  0.26590049081E+02  0.51100000000E-03 0. -1.
        -11    1    4    4    0    0  0.17758586275E+02 -0.21880258125E+00  0.10454092146E+02  0.20608330934E+02  0.51100000000E-03 0.  1.
         12    1    4    4    0    0 -0.55758066634E+01  0.98313247744E+00 -0.43970459806E+01  0.71686946351E+01  0.00000000000E+00 0. -1.
</event>
<event>
 8    1  0.2558382E-006  0.9118800E+02  0.7816164E-02  0.1184000E+00
        -11   -1    0    0    0    0  0.00000000000E+00  0.00000000000E+00  0.45593999997E+02  0.45594000000E+02  0.51100000000E-03 0.  1.
         11   -1    0    0    0    0 -0.00000000000E+00 -0.00000000000E+00 -0.45593999997E+02  0.45594000000E+02  0.51100000000E-03 0. -1.
         23    2    1    2    0    0  0.17763568394E-14  0.17763568394E-14  0.71054273576E-14  0.91188000000E+02  0.91188000000E+02 0.  0.
    9900012    2    3    3    0    0 -0.12917890145E+02 -0.13776971951E+02 -0.31608595684E+02  0.54367079818E+02  0.39999990061E+02 0.  0.
        -12    1    3    3    0    0  0.12917890145E+02  0.13776971951E+02  0.31608595684E+02  0.36820920182E+02  0.00000000000E+00 0.  1.
         11    1    4    4    0    0 -0.22405296078E+02 -0.12744307707E+02 -0.23737867522E+02  0.35041418722E+02  0.51100000000E-03 0. -1.
        -11    1    4    4    0    0 -0.94364280344E+00 -0.17374610398E+01 -0.86201595192E+01  0.88440026573E+01  0.51100000000E-03 0.  1.
        -12    1    4    4    0    0  0.10431048736E+02  0.70479679611E+00  0.74943135679E+00  0.10481658439E+02  0.00000000000E+00 0.  1.
</event>
<event>
 8    1  0.2558382E-006  0.9118800E+02  0.7816164E-02  0.1184000E+00
        -11   -1    0    0    0    0  0.00000000000E+00  0.00000000000E+00  0.45593999997E+02  0.45594000000E+02  0.51100000000E-03 0.  1.
         11   -1    0    0    0    0 -0.00000000000E+00 -0.00000000000E+00 -0.45593999997E+02  0.45594000000E+02  0.51100000000E-03 0. -1.
         23    2    1    2    0    0  0.00000000000E+00  0.35527136788E-14  0.00000000000E+00  0.91188000000E+02  0.91188000000E+02 0.  0.
    9900012    2    3    3    0    0  0.15142683742E+02 -0.31852063254E+02  0.10579427848E+02  0.54367094280E+02  0.40000023030E+02 0.  0.
         12    1    3    3    0    0 -0.15142683742E+02  0.31852063254E+02 -0.10579427848E+02  0.36820905720E+02  0.00000000000E+00 0. -1.
         11    1    4    4    0    0 -0.56429226939E+01 -0.16601933476E+02  0.10288334785E+02  0.20330189487E+02  0.51100000000E-03 0. -1.
        -11    1    4    4    0    0  0.21230263061E+02 -0.10188964301E+02  0.79427437115E+01  0.24852087258E+02  0.51100000000E-03 0.  1.
        -12    1    4    4    0    0 -0.44465662440E+00 -0.50611654775E+01 -0.76516506485E+01  0.91848175349E+01  0.00000000000E+00 0.  1.
</event>
<event>
 8    1  0.2558382E-006  0.9118800E+02  0.7816164E-02  0.1184000E+00
        -11   -1    0    0    0    0  0.00000000000E+00  0.00000000000E+00  0.45593999997E+02  0.45594000000E+02  0.51100000000E-03 0. -1.
         11   -1    0    0    0    0 -0.00000000000E+00 -0.00000000000E+00 -0.45593999997E+02  0.45594000000E+02  0.51100000000E-03 0.  1.
         23    2    1    2    0    0  0.71054273576E-14  0.00000000000E+00  0.00000000000E+00  0.91188000000E+02  0.91188000000E+02 0.  0.
    9900012    2    3    3    0    0 -0.25169244712E+02  0.18677915287E+02 -0.19324218511E+02  0.54367070898E+02  0.39999969727E+02 0.  0.
         12    1    3    3    0    0  0.25169244712E+02 -0.18677915287E+02  0.19324218511E+02  0.36820929102E+02  0.00000000000E+00 0. -1.
         11    1    4    4    0    0 -0.74366120748E+01 -0.58481773178E+01 -0.15163904280E+02  0.17873118652E+02  0.51100000000E-03 0. -1.
        -11    1    4    4    0    0 -0.58772517119E+00  0.25142352043E+01 -0.79296389125E+01  0.83394228267E+01  0.51100000000E-03 0.  1.
         12    1    4    4    0    0 -0.17144907466E+02  0.22011857401E+02  0.37693246817E+01  0.28154529419E+02  0.00000000000E+00 0. -1.
</event>
<event>
 8    1  0.2558382E-006  0.9118800E+02  0.7816164E-02  0.1184000E+00
        -11   -1    0    0    0    0  0.00000000000E+00  0.00000000000E+00  0.45593999997E+02  0.45594000000E+02  0.51100000000E-03 0.  1.
         11   -1    0    0    0    0 -0.00000000000E+00 -0.00000000000E+00 -0.45593999997E+02  0.45594000000E+02  0.51100000000E-03 0. -1.
         23    2    1    2    0    0  0.00000000000E+00 -0.17763568394E-14 -0.71054273576E-14  0.91188000000E+02  0.91188000000E+02 0.  0.
    9900012    2    3    3    0    0  0.60073743063E+01 -0.14515088319E+02 -0.33301696667E+02  0.54367091050E+02  0.40000015667E+02 0.  0.
        -12    1    3    3    0    0 -0.60073743063E+01  0.14515088319E+02  0.33301696667E+02  0.36820908950E+02  0.00000000000E+00 0.  1.
         11    1    4    4    0    0  0.41855557524E+01 -0.13470732526E+02 -0.32066545696E+02  0.35032026274E+02  0.51100000000E-03 0. -1.
        -11    1    4    4    0    0 -0.30576478752E+01 -0.17536797791E+01  0.80689029266E+01  0.88052142504E+01  0.51100000000E-03 0.  1.
        -12    1    4    4    0    0  0.48794664291E+01  0.70932398611E+00 -0.93040538978E+01  0.10529850525E+02  0.00000000000E+00 0.  1.
</event>
<event>
 8    1  0.2558382E-006  0.9118800E+02  0.7816164E-02  0.1184000E+00
        -11   -1    0    0    0    0  0.00000000000E+00  0.00000000000E+00  0.45593999997E+02  0.45594000000E+02  0.51100000000E-03 0.  1.
         11   -1    0    0    0    0 -0.00000000000E+00 -0.00000000000E+00 -0.45593999997E+02  0.45594000000E+02  0.51100000000E-03 0. -1.
         23    2    1    2    0    0  0.35527136788E-14  0.00000000000E+00  0.00000000000E+00  0.91188000000E+02  0.91188000000E+02 0.  0.
    9900012    2    3    3    0    0 -0.24372609416E+02  0.25775345205E+02 -0.98684756101E+01  0.54367091252E+02  0.40000016127E+02 0.  0.
        -12    1    3    3    0    0  0.24372609416E+02 -0.25775345205E+02  0.98684756101E+01  0.36820908748E+02  0.00000000000E+00 0.  1.
         11    1    4    4    0    0 -0.72610074976E+01  0.10548703704E+02 -0.13331251385E+02  0.18485660482E+02  0.51100000000E-03 0. -1.
        -11    1    4    4    0    0  0.15769860091E+00 -0.33908893225E+01 -0.74922995745E+01  0.82254211091E+01  0.51100000000E-03 0.  1.
         12    1    4    4    0    0 -0.17269300520E+02  0.18617530824E+02  0.10955075350E+02  0.27656009660E+02  0.00000000000E+00 0. -1.
</event>
<event>
 8    1  0.2558382E-006  0.9118800E+02  0.7816164E-02  0.1184000E+00
        -11   -1    0    0    0    0  0.00000000000E+00  0.00000000000E+00  0.45593999997E+02  0.45594000000E+02  0.51100000000E-03 0.  1.
         11   -1    0    0    0    0 -0.00000000000E+00 -0.00000000000E+00 -0.45593999997E+02  0.45594000000E+02  0.51100000000E-03 0. -1.
         23    2    1    2    0    0  0.00000000000E+00  0.00000000000E+00  0.00000000000E+00  0.91188000000E+02  0.91188000000E+02 0.  0.
    9900012    2    3    3    0    0  0.11700145162E+01 -0.33897480003E+02  0.14330786137E+02  0.54367088606E+02  0.40000010096E+02 0.  0.
         12    1    3    3    0    0 -0.11700145162E+01  0.33897480003E+02 -0.14330786137E+02  0.36820911394E+02  0.00000000000E+00 0. -1.
         11    1    4    4    0    0  0.57625284485E+01 -0.68067717141E+01  0.97239538415E+01  0.13194474368E+02  0.51100000000E-03 0. -1.
        -11    1    4    4    0    0 -0.94597133668E+01  0.33882177366E+01  0.10223672615E+01  0.10100070866E+02  0.51100000000E-03 0.  1.
         12    1    4    4    0    0  0.48671994345E+01 -0.30478926026E+02  0.35844650339E+01  0.31072543372E+02  0.00000000000E+00 0. -1.
</event>
<event>
 8    1  0.2558382E-006  0.9118800E+02  0.7816164E-02  0.1184000E+00
        -11   -1    0    0    0    0  0.00000000000E+00  0.00000000000E+00  0.45593999997E+02  0.45594000000E+02  0.51100000000E-03 0.  1.
         11   -1    0    0    0    0 -0.00000000000E+00 -0.00000000000E+00 -0.45593999997E+02  0.45594000000E+02  0.51100000000E-03 0. -1.
         23    2    1    2    0    0  0.00000000000E+00  0.00000000000E+00  0.35527136788E-14  0.91188000000E+02  0.91188000000E+02 0.  0.
    9900012    2    3    3    0    0 -0.10188217390E+02 -0.24497966747E+02 -0.25530938600E+02  0.54367095963E+02  0.40000026867E+02 0.  0.
        -12    1    3    3    0    0  0.10188217390E+02  0.24497966747E+02  0.25530938600E+02  0.36820904037E+02  0.00000000000E+00 0.  1.
         11    1    4    4    0    0 -0.64277087015E+01 -0.12870963228E+02 -0.15885396988E+02  0.21431821465E+02  0.51100000000E-03 0. -1.
        -11    1    4    4    0    0  0.63389783456E+01 -0.26965330862E+01 -0.16449777260E+02  0.17833931404E+02  0.51100000000E-03 0.  1.
        -12    1    4    4    0    0 -0.10099487034E+02 -0.89304704325E+01  0.68042356483E+01  0.15101343095E+02  0.00000000000E+00 0.  1.
</event>
<event>
 8    1  0.2558382E-006  0.9118800E+02  0.7816164E-02  0.1184000E+00
        -11   -1    0    0    0    0  0.00000000000E+00  0.00000000000E+00  0.45593999997E+02  0.45594000000E+02  0.51100000000E-03 0.  1.
         11   -1    0    0    0    0 -0.00000000000E+00 -0.00000000000E+00 -0.45593999997E+02  0.45594000000E+02  0.51100000000E-03 0. -1.
         23    2    1    2    0    0  0.00000000000E+00  0.00000000000E+00  0.00000000000E+00  0.91188000000E+02  0.91188000000E+02 0.  0.
    9900012    2    3    3    0    0 -0.10143006146E+02  0.20051030996E+02 -0.29169426765E+02  0.54367083723E+02  0.39999998964E+02 0.  0.
        -12    1    3    3    0    0  0.10143006146E+02 -0.20051030996E+02  0.29169426765E+02  0.36820916277E+02  0.00000000000E+00 0.  1.
         11    1    4    4    0    0 -0.30600646409E+01  0.18039454489E+02 -0.25370408329E+02  0.31280082047E+02  0.51100000000E-03 0. -1.
        -11    1    4    4    0    0  0.73224257251E+01 -0.93275737160E+00  0.13583448698E+01  0.75055350150E+01  0.51100000000E-03 0.  1.
         12    1    4    4    0    0 -0.14405367231E+02  0.29443338784E+01 -0.51573633057E+01  0.15581466661E+02  0.00000000000E+00 0. -1.
</event>
<event>
 8    1  0.2558382E-006  0.9118800E+02  0.7816164E-02  0.1184000E+00
        -11   -1    0    0    0    0  0.00000000000E+00  0.00000000000E+00  0.45593999997E+02  0.45594000000E+02  0.51100000000E-03 0.  1.
         11   -1    0    0    0    0 -0.00000000000E+00 -0.00000000000E+00 -0.45593999997E+02  0.45594000000E+02  0.51100000000E-03 0. -1.
         23    2    1    2    0    0 -0.17763568394E-14  0.44408920985E-15 -0.71054273576E-14  0.91188000000E+02  0.91188000000E+02 0.  0.
    9900012    2    3    3    0    0  0.10734676162E+02 -0.24918705062E+01  0.35133138698E+02  0.54367080326E+02  0.39999991218E+02 0.  0.
         12    1    3    3    0    0 -0.10734676162E+02  0.24918705062E+01 -0.35133138698E+02  0.36820919674E+02  0.00000000000E+00 0. -1.
         11    1    4    4    0    0  0.99596395573E+01 -0.99294497845E+01  0.23965674850E+01  0.14266461688E+02  0.51100000000E-03 0. -1.
        -11    1    4    4    0    0  0.85655427324E+01 -0.38435019546E+01  0.14760374943E+02  0.17493132890E+02  0.51100000000E-03 0.  1.
         12    1    4    4    0    0 -0.77905061276E+01  0.11281081233E+02  0.17976196270E+02  0.22607485748E+02  0.00000000000E+00 0. -1.
</event>
<event>
 8    1  0.2558382E-006  0.9118800E+02  0.7816164E-02  0.1184000E+00
        -11   -1    0    0    0    0  0.00000000000E+00  0.00000000000E+00  0.45593999997E+02  0.45594000000E+02  0.51100000000E-03 0.  1.
         11   -1    0    0    0    0 -0.00000000000E+00 -0.00000000000E+00 -0.45593999997E+02  0.45594000000E+02  0.51100000000E-03 0. -1.
         23    2    1    2    0    0  0.00000000000E+00  0.00000000000E+00  0.00000000000E+00  0.91188000000E+02  0.91188000000E+02 0.  0.
    9900012    2    3    3    0    0  0.10450159857E+02  0.67424703316E+01  0.34657090668E+02  0.54367072788E+02  0.39999974034E+02 0.  0.
         12    1    3    3    0    0 -0.10450159857E+02 -0.67424703316E+01 -0.34657090668E+02  0.36820927212E+02  0.00000000000E+00 0. -1.
         11    1    4    4    0    0  0.97601626386E+01 -0.86966259753E+01  0.14088356444E+02  0.19219101583E+02  0.51100000000E-03 0. -1.
        -11    1    4    4    0    0  0.12061530136E+02  0.87763831077E+01  0.13847867339E+02  0.20353595254E+02  0.51100000000E-03 0.  1.
         12    1    4    4    0    0 -0.11371532918E+02  0.66627131992E+01  0.67208668848E+01  0.14794375951E+02  0.00000000000E+00 0. -1.
</event>
<event>
 8    1  0.2558382E-006  0.9118800E+02  0.7816164E-02  0.1184000E+00
        -11   -1    0    0    0    0  0.00000000000E+00  0.00000000000E+00  0.45593999997E+02  0.45594000000E+02  0.51100000000E-03 0.  1.
         11   -1    0    0    0    0 -0.00000000000E+00 -0.00000000000E+00 -0.45593999997E+02  0.45594000000E+02  0.51100000000E-03 0. -1.
         23    2    1    2    0    0  0.17763568394E-14 -0.35527136788E-14  0.00000000000E+00  0.91188000000E+02  0.91188000000E+02 0.  0.
    9900012    2    3    3    0    0 -0.14736027114E+02 -0.28883489990E+02  0.17446291965E+02  0.54367087567E+02  0.40000007726E+02 0.  0.
         12    1    3    3    0    0  0.14736027114E+02  0.28883489990E+02 -0.17446291965E+02  0.36820912433E+02  0.00000000000E+00 0. -1.
         11    1    4    4    0    0 -0.56352032495E+01 -0.14154269668E+02  0.42760233018E+01  0.15823502805E+02  0.51100000000E-03 0. -1.
        -11    1    4    4    0    0 -0.13988903668E+02 -0.19134928593E+02  0.18505965188E+02  0.30071675476E+02  0.51100000000E-03 0.  1.
         12    1    4    4    0    0  0.48880798037E+01  0.44057082710E+01 -0.53356965254E+01  0.84719092859E+01  0.00000000000E+00 0. -1.
</event>
<event>
 8    1  0.2558382E-006  0.9118800E+02  0.7816164E-02  0.1184000E+00
        -11   -1    0    0    0    0  0.00000000000E+00  0.00000000000E+00  0.45593999997E+02  0.45594000000E+02  0.51100000000E-03 0.  1.
         11   -1    0    0    0    0 -0.00000000000E+00 -0.00000000000E+00 -0.45593999997E+02  0.45594000000E+02  0.51100000000E-03 0. -1.
         23    2    1    2    0    0  0.00000000000E+00 -0.17763568394E-14  0.00000000000E+00  0.91188000000E+02  0.91188000000E+02 0.  0.
    9900012    2    3    3    0    0 -0.13459845339E+02  0.15073573932E+02 -0.30779871019E+02  0.54367074868E+02  0.39999978776E+02 0.  0.
        -12    1    3    3    0    0  0.13459845339E+02 -0.15073573932E+02  0.30779871019E+02  0.36820925132E+02  0.00000000000E+00 0.  1.
         11    1    4    4    0    0 -0.45060149793E+01  0.38896258390E+01 -0.14022376973E+02  0.15233529348E+02  0.51100000000E-03 0. -1.
        -11    1    4    4    0    0 -0.12292005213E+02 -0.64297387667E+01  0.99002154506E+00  0.13907374867E+02  0.51100000000E-03 0.  1.
        -12    1    4    4    0    0  0.33381748529E+01  0.17613686860E+02 -0.17747515591E+02  0.25226170653E+02  0.00000000000E+00 0.  1.
</event>
<event>
 8    1  0.2558382E-006  0.9118800E+02  0.7816164E-02  0.1184000E+00
        -11   -1    0    0    0    0  0.00000000000E+00  0.00000000000E+00  0.45593999997E+02  0.45594000000E+02  0.51100000000E-03 0. -1.
         11   -1    0    0    0    0 -0.00000000000E+00 -0.00000000000E+00 -0.45593999997E+02  0.45594000000E+02  0.51100000000E-03 0.  1.
         23    2    1    2    0    0  0.00000000000E+00 -0.35527136788E-14  0.17763568394E-14  0.91188000000E+02  0.91188000000E+02 0.  0.
    9900012    2    3    3    0    0 -0.28552452340E+02  0.19337407015E+02 -0.12907344964E+02  0.54367117355E+02  0.40000075635E+02 0.  0.
         12    1    3    3    0    0  0.28552452340E+02 -0.19337407015E+02  0.12907344964E+02  0.36820882645E+02  0.00000000000E+00 0. -1.
         11    1    4    4    0    0 -0.71461964664E+01  0.11750482455E+02 -0.39011369219E+01  0.14295482902E+02  0.51100000000E-03 0. -1.
        -11    1    4    4    0    0 -0.16010374020E+02 -0.72361418586E+01  0.57343139349E+01  0.18481779725E+02  0.51100000000E-03 0.  1.
        -12    1    4    4    0    0 -0.53958818545E+01  0.14823066418E+02 -0.14740521977E+02  0.21589854728E+02  0.00000000000E+00 0.  1.
</event>
<event>
 8    1  0.2558382E-006  0.9118800E+02  0.7816164E-02  0.1184000E+00
        -11   -1    0    0    0    0  0.00000000000E+00  0.00000000000E+00  0.45593999997E+02  0.45594000000E+02  0.51100000000E-03 0.  1.
         11   -1    0    0    0    0 -0.00000000000E+00 -0.00000000000E+00 -0.45593999997E+02  0.45594000000E+02  0.51100000000E-03 0. -1.
         23    2    1    2    0    0  0.35527136788E-14  0.00000000000E+00 -0.88817841970E-15  0.91188000000E+02  0.91188000000E+02 0.  0.
    9900012    2    3    3    0    0 -0.12198243391E+02  0.34452697994E+02  0.44716390188E+01  0.54367067144E+02  0.39999961167E+02 0.  0.
         12    1    3    3    0    0  0.12198243391E+02 -0.34452697994E+02 -0.44716390188E+01  0.36820932856E+02  0.00000000000E+00 0. -1.
         11    1    4    4    0    0  0.36927487472E+01  0.59912658864E+01  0.70836270143E+00  0.70734318552E+01  0.51100000000E-03 0. -1.
        -11    1    4    4    0    0 -0.10534764471E+02  0.11165656895E+02  0.18434756575E+02  0.23989443649E+02  0.51100000000E-03 0.  1.
         12    1    4    4    0    0 -0.53562276672E+01  0.17295775213E+02 -0.14671480257E+02  0.23304191639E+02  0.00000000000E+00 0. -1.
</event>
<event>
 8    1  0.2558382E-006  0.9118800E+02  0.7816164E-02  0.1184000E+00
        -11   -1    0    0    0    0  0.00000000000E+00  0.00000000000E+00  0.45593999997E+02  0.45594000000E+02  0.51100000000E-03 0.  1.
         11   -1    0    0    0    0 -0.00000000000E+00 -0.00000000000E+00 -0.45593999997E+02  0.45594000000E+02  0.51100000000E-03 0. -1.
         23    2    1    2    0    0 -0.17763568394E-14  0.00000000000E+00  0.00000000000E+00  0.91188000000E+02  0.91188000000E+02 0.  0.
    9900012    2    3    3    0    0  0.14249333284E+02  0.30826059903E+02  0.14229930001E+02  0.54367076927E+02  0.39999983470E+02 0.  0.
         12    1    3    3    0    0 -0.14249333284E+02 -0.30826059903E+02 -0.14229930001E+02  0.36820923073E+02  0.00000000000E+00 0. -1.
         11    1    4    4    0    0  0.64841486368E+00  0.17237301745E+02  0.14457342389E+02  0.22506882558E+02  0.51100000000E-03 0. -1.
        -11    1    4    4    0    0 -0.45335597778E+01 -0.15933013684E+01  0.57225454558E+01  0.74725698568E+01  0.51100000000E-03 0.  1.
         12    1    4    4    0    0  0.18134478198E+02  0.15182059526E+02 -0.59499578443E+01  0.24387624512E+02  0.00000000000E+00 0. -1.
</event>
<event>
 8    1  0.2558382E-006  0.9118800E+02  0.7816164E-02  0.1184000E+00
        -11   -1    0    0    0    0  0.00000000000E+00  0.00000000000E+00  0.45593999997E+02  0.45594000000E+02  0.51100000000E-03 0. -1.
         11   -1    0    0    0    0 -0.00000000000E+00 -0.00000000000E+00 -0.45593999997E+02  0.45594000000E+02  0.51100000000E-03 0.  1.
         23    2    1    2    0    0  0.00000000000E+00  0.44408920985E-15 -0.35527136788E-14  0.91188000000E+02  0.91188000000E+02 0.  0.
    9900012    2    3    3    0    0 -0.24366987636E+02  0.20515434180E+01 -0.27528554151E+02  0.54367079173E+02  0.39999988591E+02 0.  0.
        -12    1    3    3    0    0  0.24366987636E+02 -0.20515434180E+01  0.27528554151E+02  0.36820920827E+02  0.00000000000E+00 0.  1.
         11    1    4    4    0    0 -0.10369542888E+01 -0.13266208007E+02 -0.70105799675E+01  0.15040471430E+02  0.51100000000E-03 0. -1.
        -11    1    4    4    0    0  0.25756959380E+01  0.48250285739E+01 -0.46971187838E+01  0.72095794214E+01  0.51100000000E-03 0.  1.
         12    1    4    4    0    0 -0.25905729286E+02  0.10492722851E+02 -0.15820855400E+02  0.32117028322E+02  0.00000000000E+00 0. -1.
</event>
<event>
 8    1  0.2558382E-006  0.9118800E+02  0.7816164E-02  0.1184000E+00
        -11   -1    0    0    0    0  0.00000000000E+00  0.00000000000E+00  0.45593999997E+02  0.45594000000E+02  0.51100000000E-03 0.  1.
         11   -1    0    0    0    0 -0.00000000000E+00 -0.00000000000E+00 -0.45593999997E+02  0.45594000000E+02  0.51100000000E-03 0. -1.
         23    2    1    2    0    0  0.00000000000E+00  0.17763568394E-14 -0.17763568394E-14  0.91188000000E+02  0.91188000000E+02 0.  0.
    9900012    2    3    3    0    0 -0.34235421279E+02 -0.67180855957E+01  0.11772121441E+02  0.54367087634E+02  0.40000007879E+02 0.  0.
         12    1    3    3    0    0  0.34235421279E+02  0.67180855957E+01 -0.11772121441E+02  0.36820912366E+02  0.00000000000E+00 0. -1.
         11    1    4    4    0    0 -0.15702594036E+01  0.50292813410E+01 -0.61168117753E+01  0.80730893688E+01  0.51100000000E-03 0. -1.
        -11    1    4    4    0    0 -0.10061203690E+02 -0.16193089062E+02  0.42840407059E+01  0.19539625331E+02  0.51100000000E-03 0.  1.
        -12    1    4    4    0    0 -0.22603958186E+02  0.44457221249E+01  0.13604892510E+02  0.26754372934E+02  0.00000000000E+00 0.  1.
</event>
<event>
 8    1  0.2558382E-006  0.9118800E+02  0.7816164E-02  0.1184000E+00
        -11   -1    0    0    0    0  0.00000000000E+00  0.00000000000E+00  0.45593999997E+02  0.45594000000E+02  0.51100000000E-03 0. -1.
         11   -1    0    0    0    0 -0.00000000000E+00 -0.00000000000E+00 -0.45593999997E+02  0.45594000000E+02  0.51100000000E-03 0.  1.
         23    2    1    2    0    0  0.00000000000E+00  0.00000000000E+00  0.35527136788E-14  0.91188000000E+02  0.91188000000E+02 0.  0.
    9900012    2    3    3    0    0  0.20059056011E+02 -0.26140694999E+02 -0.16433986095E+02  0.54367115137E+02  0.40000070578E+02 0.  0.
         12    1    3    3    0    0 -0.20059056011E+02  0.26140694999E+02  0.16433986095E+02  0.36820884863E+02  0.00000000000E+00 0. -1.
         11    1    4    4    0    0  0.14086382565E+02 -0.42705832355E+01 -0.66050684567E+00  0.14734324705E+02  0.51100000000E-03 0. -1.
        -11    1    4    4    0    0  0.10810893929E+02 -0.15699447725E+02 -0.22367139980E+02  0.29387702148E+02  0.51100000000E-03 0.  1.
        -12    1    4    4    0    0 -0.48382204831E+01 -0.61706640390E+01  0.65936607307E+01  0.10245088285E+02  0.00000000000E+00 0.  1.
</event>
<event>
 8    1  0.2558382E-006  0.9118800E+02  0.7816164E-02  0.1184000E+00
        -11   -1    0    0    0    0  0.00000000000E+00  0.00000000000E+00  0.45593999997E+02  0.45594000000E+02  0.51100000000E-03 0.  1.
         11   -1    0    0    0    0 -0.00000000000E+00 -0.00000000000E+00 -0.45593999997E+02  0.45594000000E+02  0.51100000000E-03 0. -1.
         23    2    1    2    0    0 -0.71054273576E-14  0.00000000000E+00  0.00000000000E+00  0.91188000000E+02  0.91188000000E+02 0.  0.
    9900012    2    3    3    0    0  0.34099569754E+02 -0.88434838708E+01 -0.10714058303E+02  0.54367096837E+02  0.40000028860E+02 0.  0.
        -12    1    3    3    0    0 -0.34099569754E+02  0.88434838708E+01  0.10714058303E+02  0.36820903163E+02  0.00000000000E+00 0.  1.
         11    1    4    4    0    0  0.26453205439E+02 -0.27809817944E+01 -0.97581834438E+01  0.28332456338E+02  0.51100000000E-03 0. -1.
        -11    1    4    4    0    0 -0.68880933768E+01  0.36461378587E+01  0.25648419511E+01  0.82047892202E+01  0.51100000000E-03 0.  1.
        -12    1    4    4    0    0  0.14534457692E+02 -0.97086399351E+01 -0.35207168102E+01  0.17829851279E+02  0.00000000000E+00 0.  1.
</event>
<event>
 8    1  0.2558382E-006  0.9118800E+02  0.7816164E-02  0.1184000E+00
        -11   -1    0    0    0    0  0.00000000000E+00  0.00000000000E+00  0.45593999997E+02  0.45594000000E+02  0.51100000000E-03 0.  1.
         11   -1    0    0    0    0 -0.00000000000E+00 -0.00000000000E+00 -0.45593999997E+02  0.45594000000E+02  0.51100000000E-03 0. -1.
         23    2    1    2    0    0  0.35527136788E-14  0.17763568394E-14 -0.35527136788E-14  0.91188000000E+02  0.91188000000E+02 0.  0.
    9900012    2    3    3    0    0 -0.19893950363E+02 -0.94203739571E+01  0.29517204227E+02  0.54367108486E+02  0.40000055415E+02 0.  0.
         12    1    3    3    0    0  0.19893950363E+02  0.94203739571E+01 -0.29517204227E+02  0.36820891514E+02  0.00000000000E+00 0. -1.
         11    1    4    4    0    0 -0.24876293908E+02 -0.65593619008E+01  0.11853352057E+02  0.28325910089E+02  0.51100000000E-03 0. -1.
        -11    1    4    4    0    0 -0.20851006772E+01 -0.73477383650E+01  0.14223037716E+01  0.77691603275E+01  0.51100000000E-03 0.  1.
        -12    1    4    4    0    0  0.70674442227E+01  0.44867263088E+01  0.16241548399E+02  0.18272038069E+02  0.00000000000E+00 0.  1.
</event>
<event>
 8    1  0.2558382E-006  0.9118800E+02  0.7816164E-02  0.1184000E+00
        -11   -1    0    0    0    0  0.00000000000E+00  0.00000000000E+00  0.45593999997E+02  0.45594000000E+02  0.51100000000E-03 0.  1.
         11   -1    0    0    0    0 -0.00000000000E+00 -0.00000000000E+00 -0.45593999997E+02  0.45594000000E+02  0.51100000000E-03 0. -1.
         23    2    1    2    0    0  0.00000000000E+00  0.00000000000E+00  0.00000000000E+00  0.91188000000E+02  0.91188000000E+02 0.  0.
    9900012    2    3    3    0    0  0.14204034436E+02 -0.32967558992E+02  0.81955013092E+01  0.54367071415E+02  0.39999970906E+02 0.  0.
        -12    1    3    3    0    0 -0.14204034436E+02  0.32967558992E+02 -0.81955013092E+01  0.36820928585E+02  0.00000000000E+00 0.  1.
         11    1    4    4    0    0  0.14553247676E+02 -0.30432909008E+02 -0.91445732768E+00  0.33746039784E+02  0.51100000000E-03 0. -1.
        -11    1    4    4    0    0  0.62486420184E+00 -0.99700196559E+01  0.84661227805E+01  0.13094540175E+02  0.51100000000E-03 0.  1.
         12    1    4    4    0    0 -0.97407744154E+00  0.74353696726E+01  0.64383585633E+00  0.75264914562E+01  0.00000000000E+00 0. -1.
</event>
<event>
 8    1  0.2558382E-006  0.9118800E+02  0.7816164E-02  0.1184000E+00
        -11   -1    0    0    0    0  0.00000000000E+00  0.00000000000E+00  0.45593999997E+02  0.45594000000E+02  0.51100000000E-03 0. -1.
         11   -1    0    0    0    0 -0.00000000000E+00 -0.00000000000E+00 -0.45593999997E+02  0.45594000000E+02  0.51100000000E-03 0.  1.
         23    2    1    2    0    0  0.00000000000E+00  0.00000000000E+00  0.71054273576E-14  0.91188000000E+02  0.91188000000E+02 0.  0.
    9900012    2    3    3    0    0  0.11901052278E+02 -0.13397089683E+02  0.32166161792E+02  0.54367095316E+02  0.40000025393E+02 0.  0.
        -12    1    3    3    0    0 -0.11901052278E+02  0.13397089683E+02 -0.32166161792E+02  0.36820904684E+02  0.00000000000E+00 0.  1.
         11    1    4    4    0    0  0.59940028512E+01 -0.46376496749E+01  0.85027026836E+01  0.11389987615E+02  0.51100000000E-03 0. -1.
        -11    1    4    4    0    0  0.11342184179E+01 -0.16242695840E+02 -0.14448038646E+01  0.16346225193E+02  0.51100000000E-03 0.  1.
        -12    1    4    4    0    0  0.47728310088E+01  0.74832558319E+01  0.25108262973E+02  0.26630882509E+02  0.00000000000E+00 0.  1.
</event>
<event>
 8    1  0.2558382E-006  0.9118800E+02  0.7816164E-02  0.1184000E+00
        -11   -1    0    0    0    0  0.00000000000E+00  0.00000000000E+00  0.45593999997E+02  0.45594000000E+02  0.51100000000E-03 0.  1.
         11   -1    0    0    0    0 -0.00000000000E+00 -0.00000000000E+00 -0.45593999997E+02  0.45594000000E+02  0.51100000000E-03 0. -1.
         23    2    1    2    0    0 -0.35527136788E-14  0.00000000000E+00  0.00000000000E+00  0.91188000000E+02  0.91188000000E+02 0.  0.
    9900012    2    3    3    0    0 -0.20470360761E+02  0.27144509495E+02  0.14139180107E+02  0.54367129838E+02  0.40000104091E+02 0.  0.
         12    1    3    3    0    0  0.20470360761E+02 -0.27144509495E+02 -0.14139180107E+02  0.36820870162E+02  0.00000000000E+00 0. -1.
         11    1    4    4    0    0 -0.13660338290E+02  0.34520812960E+02  0.80824422417E+01  0.37994963383E+02  0.51100000000E-03 0. -1.
        -11    1    4    4    0    0 -0.55563532471E+01  0.16777245596E+01  0.88831829809E+00  0.58717059501E+01  0.51100000000E-03 0.  1.
         12    1    4    4    0    0 -0.12536692238E+01 -0.90540280246E+01  0.51684195668E+01  0.10500460505E+02  0.00000000000E+00 0. -1.
</event>
<event>
 8    1  0.2558382E-006  0.9118800E+02  0.7816164E-02  0.1184000E+00
        -11   -1    0    0    0    0  0.00000000000E+00  0.00000000000E+00  0.45593999997E+02  0.45594000000E+02  0.51100000000E-03 0.  1.
         11   -1    0    0    0    0 -0.00000000000E+00 -0.00000000000E+00 -0.45593999997E+02  0.45594000000E+02  0.51100000000E-03 0. -1.
         23    2    1    2    0    0  0.35527136788E-14  0.00000000000E+00 -0.35527136788E-14  0.91188000000E+02  0.91188000000E+02 0.  0.
    9900012    2    3    3    0    0 -0.26232541535E+02 -0.19646386207E+02  0.16782580344E+02  0.54367058548E+02  0.39999941573E+02 0.  0.
        -12    1    3    3    0    0  0.26232541535E+02  0.19646386207E+02 -0.16782580344E+02  0.36820941452E+02  0.00000000000E+00 0.  1.
         11    1    4    4    0    0 -0.64968014083E+01  0.36632492232E+01  0.19676126134E+01  0.77135804311E+01  0.51100000000E-03 0. -1.
        -11    1    4    4    0    0  0.27686360532E+01 -0.65522480428E+01  0.17082102973E+02  0.18503933156E+02  0.51100000000E-03 0.  1.
         12    1    4    4    0    0 -0.22504376180E+02 -0.16757387387E+02 -0.22671352422E+01  0.28149544961E+02  0.00000000000E+00 0. -1.
</event>
<event>
 8    1  0.2558382E-006  0.9118800E+02  0.7816164E-02  0.1184000E+00
        -11   -1    0    0    0    0  0.00000000000E+00  0.00000000000E+00  0.45593999997E+02  0.45594000000E+02  0.51100000000E-03 0. -1.
         11   -1    0    0    0    0 -0.00000000000E+00 -0.00000000000E+00 -0.45593999997E+02  0.45594000000E+02  0.51100000000E-03 0.  1.
         23    2    1    2    0    0 -0.35527136788E-14  0.00000000000E+00 -0.35527136788E-14  0.91188000000E+02  0.91188000000E+02 0.  0.
    9900012    2    3    3    0    0  0.22914554831E+02 -0.80465643712E+01  0.27675895165E+02  0.54367092971E+02  0.40000020046E+02 0.  0.
        -12    1    3    3    0    0 -0.22914554831E+02  0.80465643712E+01 -0.27675895165E+02  0.36820907029E+02  0.00000000000E+00 0.  1.
         11    1    4    4    0    0  0.97498259447E+01 -0.21733988970E+02  0.50770090810E+01  0.24355726308E+02  0.51100000000E-03 0. -1.
        -11    1    4    4    0    0  0.11739157644E+02  0.11148723152E+02  0.15829216908E+02  0.22642127954E+02  0.51100000000E-03 0.  1.
         12    1    4    4    0    0  0.14255712422E+01  0.25387014466E+01  0.67696691760E+01  0.73692387092E+01  0.00000000000E+00 0. -1.
</event>
<event>
 8    1  0.2558382E-006  0.9118800E+02  0.7816164E-02  0.1184000E+00
        -11   -1    0    0    0    0  0.00000000000E+00  0.00000000000E+00  0.45593999997E+02  0.45594000000E+02  0.51100000000E-03 0. -1.
         11   -1    0    0    0    0 -0.00000000000E+00 -0.00000000000E+00 -0.45593999997E+02  0.45594000000E+02  0.51100000000E-03 0.  1.
         23    2    1    2    0    0 -0.17763568394E-14 -0.88817841970E-15  0.00000000000E+00  0.91188000000E+02  0.91188000000E+02 0.  0.
    9900012    2    3    3    0    0 -0.14118550396E+02 -0.57826783941E+01  0.33511049749E+02  0.54367308943E+02  0.40000512393E+02 0.  0.
        -12    1    3    3    0    0  0.14118550396E+02  0.57826783941E+01 -0.33511049749E+02  0.36820691057E+02  0.00000000000E+00 0.  1.
         11    1    4    4    0    0 -0.44784756342E+01  0.13725548544E+01 -0.41194845114E+01  0.62378524939E+01  0.51100000000E-03 0.  1.
        -11    1    4    4    0    0  0.88385178868E+01 -0.71562295696E+01  0.12005437045E+02  0.16536672549E+02  0.51100000000E-03 0. -1.
         12    1    4    4    0    0 -0.18478592648E+02  0.99632100977E-03  0.25625097216E+02  0.31592783900E+02  0.00000000000E+00 0. -1.
</event>
<event>
 8    1  0.2558382E-006  0.9118800E+02  0.7816164E-02  0.1184000E+00
        -11   -1    0    0    0    0  0.00000000000E+00  0.00000000000E+00  0.45593999997E+02  0.45594000000E+02  0.51100000000E-03 0. -1.
         11   -1    0    0    0    0 -0.00000000000E+00 -0.00000000000E+00 -0.45593999997E+02  0.45594000000E+02  0.51100000000E-03 0.  1.
         23    2    1    2    0    0  0.00000000000E+00 -0.35527136788E-14  0.00000000000E+00  0.91188000000E+02  0.91188000000E+02 0.  0.
    9900012    2    3    3    0    0 -0.32445199796E+02 -0.13609256718E+02  0.10857099397E+02  0.54367089289E+02  0.40000011653E+02 0.  0.
        -12    1    3    3    0    0  0.32445199796E+02  0.13609256718E+02 -0.10857099397E+02  0.36820910711E+02  0.00000000000E+00 0.  1.
         11    1    4    4    0    0 -0.93624537966E+01 -0.82721116575E+01 -0.11094753165E+02  0.16708588224E+02  0.51100000000E-03 0.  1.
        -11    1    4    4    0    0 -0.12283507930E+02  0.66472953663E+01  0.13592037278E+02  0.19488832197E+02  0.51100000000E-03 0. -1.
        -12    1    4    4    0    0 -0.10799238070E+02 -0.11984440427E+02  0.83598152846E+01  0.18169668869E+02  0.00000000000E+00 0.  1.
</event>
<event>
 8    1  0.2558382E-006  0.9118800E+02  0.7816164E-02  0.1184000E+00
        -11   -1    0    0    0    0  0.00000000000E+00  0.00000000000E+00  0.45593999997E+02  0.45594000000E+02  0.51100000000E-03 0. -1.
         11   -1    0    0    0    0 -0.00000000000E+00 -0.00000000000E+00 -0.45593999997E+02  0.45594000000E+02  0.51100000000E-03 0.  1.
         23    2    1    2    0    0  0.00000000000E+00 -0.22204460493E-15  0.00000000000E+00  0.91188000000E+02  0.91188000000E+02 0.  0.
    9900012    2    3    3    0    0 -0.32842151461E+02 -0.10795923318E+01  0.16613467234E+02  0.54367085757E+02  0.40000003600E+02 0.  0.
        -12    1    3    3    0    0  0.32842151461E+02  0.10795923318E+01 -0.16613467234E+02  0.36820914243E+02  0.00000000000E+00 0.  1.
         11    1    4    4    0    0 -0.17409260932E+00 -0.46824698787E+01  0.17386051258E+02  0.18006404722E+02  0.51100000000E-03 0. -1.
        -11    1    4    4    0    0  0.13506895924E+01  0.74955646259E-02 -0.16610714318E+01  0.21409290323E+01  0.51100000000E-03 0.  1.
         12    1    4    4    0    0 -0.34018748444E+02  0.35953819823E+01  0.88848740758E+00  0.34219752003E+02  0.00000000000E+00 0. -1.
</event>
<event>
 8    1  0.2558382E-006  0.9118800E+02  0.7816164E-02  0.1184000E+00
        -11   -1    0    0    0    0  0.00000000000E+00  0.00000000000E+00  0.45593999997E+02  0.45594000000E+02  0.51100000000E-03 0.  1.
         11   -1    0    0    0    0 -0.00000000000E+00 -0.00000000000E+00 -0.45593999997E+02  0.45594000000E+02  0.51100000000E-03 0. -1.
         23    2    1    2    0    0  0.00000000000E+00  0.00000000000E+00 -0.17763568394E-14  0.91188000000E+02  0.91188000000E+02 0.  0.
    9900012    2    3    3    0    0 -0.34753932111E+02  0.10558120759E+02 -0.60387083580E+01  0.54367140290E+02  0.40000127920E+02 0.  0.
        -12    1    3    3    0    0  0.34753932111E+02 -0.10558120759E+02  0.60387083580E+01  0.36820859710E+02  0.00000000000E+00 0.  1.
         11    1    4    4    0    0 -0.89453208281E+01 -0.59466932636E+01 -0.13319091660E+02  0.17110819045E+02  0.51100000000E-03 0. -1.
        -11    1    4    4    0    0 -0.14590491621E+02  0.12021652632E+02  0.13914616115E+02  0.23473796447E+02  0.51100000000E-03 0.  1.
        -12    1    4    4    0    0 -0.11218119662E+02  0.44831613912E+01 -0.66342328127E+01  0.13782524798E+02  0.00000000000E+00 0.  1.
</event>
<event>
 8    1  0.2558382E-006  0.9118800E+02  0.7816164E-02  0.1184000E+00
        -11   -1    0    0    0    0  0.00000000000E+00  0.00000000000E+00  0.45593999997E+02  0.45594000000E+02  0.51100000000E-03 0.  1.
         11   -1    0    0    0    0 -0.00000000000E+00 -0.00000000000E+00 -0.45593999997E+02  0.45594000000E+02  0.51100000000E-03 0. -1.
         23    2    1    2    0    0 -0.35527136788E-14  0.00000000000E+00 -0.35527136788E-14  0.91188000000E+02  0.91188000000E+02 0.  0.
    9900012    2    3    3    0    0  0.28572565074E+02  0.98479201182E+01  0.21033479260E+02  0.54367078565E+02  0.39999987204E+02 0.  0.
         12    1    3    3    0    0 -0.28572565074E+02 -0.98479201182E+01 -0.21033479260E+02  0.36820921435E+02  0.00000000000E+00 0. -1.
         11    1    4    4    0    0  0.12459776223E+02  0.15150203060E+02  0.25067714515E+02  0.31830252709E+02  0.51100000000E-03 0. -1.
        -11    1    4    4    0    0  0.21783763348E+00 -0.59249257138E+01  0.62394501089E+00  0.59616696979E+01  0.51100000000E-03 0.  1.
        -12    1    4    4    0    0  0.15894951218E+02  0.62264277238E+00 -0.46581802662E+01  0.16575156158E+02  0.00000000000E+00 0.  1.
</event>
<event>
 8    1  0.2558382E-006  0.9118800E+02  0.7816164E-02  0.1184000E+00
        -11   -1    0    0    0    0  0.00000000000E+00  0.00000000000E+00  0.45593999997E+02  0.45594000000E+02  0.51100000000E-03 0.  1.
         11   -1    0    0    0    0 -0.00000000000E+00 -0.00000000000E+00 -0.45593999997E+02  0.45594000000E+02  0.51100000000E-03 0. -1.
         23    2    1    2    0    0  0.00000000000E+00  0.00000000000E+00  0.88817841970E-15  0.91188000000E+02  0.91188000000E+02 0.  0.
    9900012    2    3    3    0    0 -0.33845521162E+02 -0.14457421993E+02 -0.11148466968E+01  0.54367092399E+02  0.40000018743E+02 0.  0.
         12    1    3    3    0    0  0.33845521162E+02  0.14457421993E+02  0.11148466968E+01  0.36820907601E+02  0.00000000000E+00 0. -1.
         11    1    4    4    0    0 -0.30628885897E+02  0.26013694478E+01  0.23515703463E+01  0.30828974321E+02  0.51100000000E-03 0. -1.
        -11    1    4    4    0    0 -0.93511463125E+01 -0.91078531650E+01 -0.48548640776E+00  0.13062642303E+02  0.51100000000E-03 0.  1.
         12    1    4    4    0    0  0.61345110484E+01 -0.79509382755E+01 -0.29809306353E+01  0.10475475775E+02  0.00000000000E+00 0. -1.
</event>
<event>
 8    1  0.2558382E-006  0.9118800E+02  0.7816164E-02  0.1184000E+00
        -11   -1    0    0    0    0  0.00000000000E+00  0.00000000000E+00  0.45593999997E+02  0.45594000000E+02  0.51100000000E-03 0.  1.
         11   -1    0    0    0    0 -0.00000000000E+00 -0.00000000000E+00 -0.45593999997E+02  0.45594000000E+02  0.51100000000E-03 0. -1.
         23    2    1    2    0    0  0.17763568394E-14  0.00000000000E+00  0.00000000000E+00  0.91188000000E+02  0.91188000000E+02 0.  0.
    9900012    2    3    3    0    0 -0.79566556945E+01  0.31626005149E+02 -0.17095787874E+02  0.54367101931E+02  0.40000040472E+02 0.  0.
         12    1    3    3    0    0  0.79566556945E+01 -0.31626005149E+02  0.17095787874E+02  0.36820898069E+02  0.00000000000E+00 0. -1.
         11    1    4    4    0    0 -0.18995504127E+02  0.18906252833E+02 -0.17112093422E+02  0.31797787891E+02  0.51100000000E-03 0. -1.
        -11    1    4    4    0    0  0.49746888690E+01  0.10166255744E+02  0.67308162852E+01  0.13168301839E+02  0.51100000000E-03 0.  1.
         12    1    4    4    0    0  0.60641595640E+01  0.25534965732E+01 -0.67145107374E+01  0.94010122013E+01  0.00000000000E+00 0. -1.
</event>
<event>
 8    1  0.2558382E-006  0.9118800E+02  0.7816164E-02  0.1184000E+00
        -11   -1    0    0    0    0  0.00000000000E+00  0.00000000000E+00  0.45593999997E+02  0.45594000000E+02  0.51100000000E-03 0.  1.
         11   -1    0    0    0    0 -0.00000000000E+00 -0.00000000000E+00 -0.45593999997E+02  0.45594000000E+02  0.51100000000E-03 0. -1.
         23    2    1    2    0    0  0.00000000000E+00  0.00000000000E+00 -0.35527136788E-14  0.91188000000E+02  0.91188000000E+02 0.  0.
    9900012    2    3    3    0    0  0.11976198367E+02 -0.30380485093E+02 -0.17010873059E+02  0.54367177032E+02  0.40000211679E+02 0.  0.
        -12    1    3    3    0    0 -0.11976198367E+02  0.30380485093E+02  0.17010873059E+02  0.36820822968E+02  0.00000000000E+00 0.  1.
         11    1    4    4    0    0  0.81449113163E+01 -0.38005972605E+01 -0.81516719345E+01  0.12133996682E+02  0.51100000000E-03 0. -1.
        -11    1    4    4    0    0  0.92409553698E+01  0.29622293697E+01  0.26671326744E+01  0.10063978137E+02  0.51100000000E-03 0.  1.
        -12    1    4    4    0    0 -0.54096683190E+01 -0.29542117203E+02 -0.11526333799E+02  0.32169202212E+02  0.00000000000E+00 0.  1.
</event>
<event>
 8    1  0.2558382E-006  0.9118800E+02  0.7816164E-02  0.1184000E+00
        -11   -1    0    0    0    0  0.00000000000E+00  0.00000000000E+00  0.45593999997E+02  0.45594000000E+02  0.51100000000E-03 0.  1.
         11   -1    0    0    0    0 -0.00000000000E+00 -0.00000000000E+00 -0.45593999997E+02  0.45594000000E+02  0.51100000000E-03 0. -1.
         23    2    1    2    0    0  0.00000000000E+00  0.00000000000E+00  0.00000000000E+00  0.91188000000E+02  0.91188000000E+02 0.  0.
    9900012    2    3    3    0    0  0.26386286422E+02 -0.12133046254E+02 -0.22634750513E+02  0.54367097603E+02  0.40000030605E+02 0.  0.
        -12    1    3    3    0    0 -0.26386286422E+02  0.12133046254E+02  0.22634750513E+02  0.36820902397E+02  0.00000000000E+00 0.  1.
         11    1    4    4    0    0  0.32939159838E+02 -0.12381414320E+02 -0.16778784958E+02  0.38984808533E+02  0.51100000000E-03 0. -1.
        -11    1    4    4    0    0 -0.69646054183E+01  0.26004993749E+01 -0.88464326533E+01  0.11555418494E+02  0.51100000000E-03 0.  1.
         12    1    4    4    0    0  0.41173200165E+00 -0.23521313091E+01  0.29904670982E+01  0.38268705755E+01  0.00000000000E+00 0. -1.
</event>
<event>
 8    1  0.2558382E-006  0.9118800E+02  0.7816164E-02  0.1184000E+00
        -11   -1    0    0    0    0  0.00000000000E+00  0.00000000000E+00  0.45593999997E+02  0.45594000000E+02  0.51100000000E-03 0. -1.
         11   -1    0    0    0    0 -0.00000000000E+00 -0.00000000000E+00 -0.45593999997E+02  0.45594000000E+02  0.51100000000E-03 0.  1.
         23    2    1    2    0    0  0.00000000000E+00  0.00000000000E+00 -0.71054273576E-14  0.91188000000E+02  0.91188000000E+02 0.  0.
    9900012    2    3    3    0    0  0.53686119508E+01 -0.32609275909E+01 -0.36281164172E+02  0.54367102174E+02  0.40000041025E+02 0.  0.
         12    1    3    3    0    0 -0.53686119508E+01  0.32609275909E+01  0.36281164172E+02  0.36820897826E+02  0.00000000000E+00 0. -1.
         11    1    4    4    0    0 -0.49966480489E+01  0.31871349907E+00 -0.15808241481E+02  0.16582176245E+02  0.51100000000E-03 0. -1.
        -11    1    4    4    0    0 -0.29938517983E+01 -0.39690567094E+01  0.62023314974E+01  0.79489292372E+01  0.51100000000E-03 0.  1.
        -12    1    4    4    0    0  0.13359111798E+02  0.38941561940E+00 -0.26675254189E+02  0.29835996692E+02  0.00000000000E+00 0.  1.
</event>
<event>
 8    1  0.2558382E-006  0.9118800E+02  0.7816164E-02  0.1184000E+00
        -11   -1    0    0    0    0  0.00000000000E+00  0.00000000000E+00  0.45593999997E+02  0.45594000000E+02  0.51100000000E-03 0.  1.
         11   -1    0    0    0    0 -0.00000000000E+00 -0.00000000000E+00 -0.45593999997E+02  0.45594000000E+02  0.51100000000E-03 0. -1.
         23    2    1    2    0    0 -0.17763568394E-14  0.00000000000E+00  0.00000000000E+00  0.91188000000E+02  0.91188000000E+02 0.  0.
    9900012    2    3    3    0    0 -0.10895335662E+02 -0.33504808518E+02 -0.10700421753E+02  0.54367088024E+02  0.40000008769E+02 0.  0.
        -12    1    3    3    0    0  0.10895335662E+02  0.33504808518E+02  0.10700421753E+02  0.36820911976E+02  0.00000000000E+00 0.  1.
         11    1    4    4    0    0  0.50391725492E+01 -0.26438194525E+02  0.25156257128E+01  0.27031458760E+02  0.51100000000E-03 0. -1.
        -11    1    4    4    0    0  0.28672295838E+01  0.12940860077E+01 -0.30614586400E+01  0.43895550284E+01  0.51100000000E-03 0.  1.
         12    1    4    4    0    0 -0.18801737795E+02 -0.83607000009E+01 -0.10154588825E+02  0.22946074236E+02  0.00000000000E+00 0. -1.
</event>
<event>
 8    1  0.2558382E-006  0.9118800E+02  0.7816164E-02  0.1184000E+00
        -11   -1    0    0    0    0  0.00000000000E+00  0.00000000000E+00  0.45593999997E+02  0.45594000000E+02  0.51100000000E-03 0. -1.
         11   -1    0    0    0    0 -0.00000000000E+00 -0.00000000000E+00 -0.45593999997E+02  0.45594000000E+02  0.51100000000E-03 0.  1.
         23    2    1    2    0    0 -0.35527136788E-14  0.00000000000E+00  0.00000000000E+00  0.91188000000E+02  0.91188000000E+02 0.  0.
    9900012    2    3    3    0    0 -0.20611951296E+02 -0.24299456375E+02  0.18451708391E+02  0.54367059506E+02  0.39999943756E+02 0.  0.
        -12    1    3    3    0    0  0.20611951296E+02  0.24299456375E+02 -0.18451708391E+02  0.36820940494E+02  0.00000000000E+00 0.  1.
         11    1    4    4    0    0  0.19091403631E+01 -0.17169507503E+02  0.20707014430E+02  0.26966965934E+02  0.51100000000E-03 0. -1.
        -11    1    4    4    0    0 -0.24875513612E+01 -0.37639653042E+01 -0.51877575095E+01  0.68751854393E+01  0.51100000000E-03 0.  1.
         12    1    4    4    0    0 -0.20033540298E+02 -0.33659835674E+01  0.29324514708E+01  0.20524908133E+02  0.00000000000E+00 0. -1.
</event>
<event>
 8    1  0.2558382E-006  0.9118800E+02  0.7816164E-02  0.1184000E+00
        -11   -1    0    0    0    0  0.00000000000E+00  0.00000000000E+00  0.45593999997E+02  0.45594000000E+02  0.51100000000E-03 0. -1.
         11   -1    0    0    0    0 -0.00000000000E+00 -0.00000000000E+00 -0.45593999997E+02  0.45594000000E+02  0.51100000000E-03 0.  1.
         23    2    1    2    0    0 -0.17763568394E-14  0.00000000000E+00  0.00000000000E+00  0.91188000000E+02  0.91188000000E+02 0.  0.
    9900012    2    3    3    0    0  0.99789515743E+01 -0.25701950485E+02  0.24405153467E+02  0.54367065072E+02  0.39999956444E+02 0.  0.
        -12    1    3    3    0    0 -0.99789515743E+01  0.25701950485E+02 -0.24405153467E+02  0.36820934928E+02  0.00000000000E+00 0.  1.
         11    1    4    4    0    0  0.46990103949E+01  0.25250062824E+01  0.19526455823E+02  0.20242006637E+02  0.51100000000E-03 0. -1.
        -11    1    4    4    0    0  0.88367034681E+01 -0.76362481353E+01  0.61337514883E+01  0.13191759600E+02  0.51100000000E-03 0.  1.
        -12    1    4    4    0    0 -0.35567622887E+01 -0.20590708632E+02 -0.12550538442E+01  0.20933298834E+02  0.00000000000E+00 0.  1.
</event>
<event>
 8    1  0.2558382E-006  0.9118800E+02  0.7816164E-02  0.1184000E+00
        -11   -1    0    0    0    0  0.00000000000E+00  0.00000000000E+00  0.45593999997E+02  0.45594000000E+02  0.51100000000E-03 0. -1.
         11   -1    0    0    0    0 -0.00000000000E+00 -0.00000000000E+00 -0.45593999997E+02  0.45594000000E+02  0.51100000000E-03 0.  1.
         23    2    1    2    0    0  0.00000000000E+00 -0.88817841970E-15 -0.35527136788E-14  0.91188000000E+02  0.91188000000E+02 0.  0.
    9900012    2    3    3    0    0 -0.24984789012E+02 -0.26750146674E+01  0.26914378569E+02  0.54367093449E+02  0.40000021137E+02 0.  0.
        -12    1    3    3    0    0  0.24984789012E+02  0.26750146674E+01 -0.26914378569E+02  0.36820906551E+02  0.00000000000E+00 0.  1.
         11    1    4    4    0    0 -0.11606070355E+02 -0.72786290157E+01 -0.68065857649E+01  0.15297350080E+02  0.51100000000E-03 0.  1.
        -11    1    4    4    0    0 -0.15203707989E+02  0.56206662160E+01  0.33154879061E+02  0.36905157243E+02  0.51100000000E-03 0. -1.
         12    1    4    4    0    0  0.18249893315E+01 -0.10170518678E+01  0.56608527269E+00  0.21645861262E+01  0.00000000000E+00 0. -1.
</event>
<event>
 8    1  0.2558382E-006  0.9118800E+02  0.7816164E-02  0.1184000E+00
        -11   -1    0    0    0    0  0.00000000000E+00  0.00000000000E+00  0.45593999997E+02  0.45594000000E+02  0.51100000000E-03 0. -1.
         11   -1    0    0    0    0 -0.00000000000E+00 -0.00000000000E+00 -0.45593999997E+02  0.45594000000E+02  0.51100000000E-03 0.  1.
         23    2    1    2    0    0  0.00000000000E+00  0.17763568394E-14 -0.44408920985E-15  0.91188000000E+02  0.91188000000E+02 0.  0.
    9900012    2    3    3    0    0  0.35052112059E+02  0.11061576845E+02 -0.21842522046E+01  0.54367082035E+02  0.39999995116E+02 0.  0.
         12    1    3    3    0    0 -0.35052112059E+02 -0.11061576845E+02  0.21842522046E+01  0.36820917965E+02  0.00000000000E+00 0. -1.
         11    1    4    4    0    0  0.11414041234E+02  0.21619966754E+01  0.10490143229E+02  0.15652401482E+02  0.51100000000E-03 0. -1.
        -11    1    4    4    0    0  0.13440993524E+02  0.15939999315E+02 -0.15529881450E+02  0.25998482709E+02  0.51100000000E-03 0.  1.
         12    1    4    4    0    0  0.10197077301E+02 -0.70404191456E+01  0.28554860161E+01  0.12716197844E+02  0.00000000000E+00 0. -1.
</event>
<event>
 8    1  0.2558382E-006  0.9118800E+02  0.7816164E-02  0.1184000E+00
        -11   -1    0    0    0    0  0.00000000000E+00  0.00000000000E+00  0.45593999997E+02  0.45594000000E+02  0.51100000000E-03 0.  1.
         11   -1    0    0    0    0 -0.00000000000E+00 -0.00000000000E+00 -0.45593999997E+02  0.45594000000E+02  0.51100000000E-03 0. -1.
         23    2    1    2    0    0  0.00000000000E+00  0.35527136788E-14  0.71054273576E-14  0.91188000000E+02  0.91188000000E+02 0.  0.
    9900012    2    3    3    0    0 -0.19482183674E+02 -0.20618675959E+02 -0.23475311516E+02  0.54367142734E+02  0.40000133490E+02 0.  0.
        -12    1    3    3    0    0  0.19482183674E+02  0.20618675959E+02  0.23475311516E+02  0.36820857266E+02  0.00000000000E+00 0.  1.
         11    1    4    4    0    0 -0.21146747347E+01 -0.14337251820E+01 -0.14472048404E+02  0.14695836227E+02  0.51100000000E-03 0. -1.
        -11    1    4    4    0    0 -0.15198356509E+02 -0.26632166082E+02 -0.54698555888E+01  0.31147738781E+02  0.51100000000E-03 0.  1.
         12    1    4    4    0    0 -0.21691524298E+01  0.74472153041E+01 -0.35334075234E+01  0.85235677257E+01  0.00000000000E+00 0. -1.
</event>
<event>
 8    1  0.2558382E-006  0.9118800E+02  0.7816164E-02  0.1184000E+00
        -11   -1    0    0    0    0  0.00000000000E+00  0.00000000000E+00  0.45593999997E+02  0.45594000000E+02  0.51100000000E-03 0.  1.
         11   -1    0    0    0    0 -0.00000000000E+00 -0.00000000000E+00 -0.45593999997E+02  0.45594000000E+02  0.51100000000E-03 0. -1.
         23    2    1    2    0    0  0.88817841970E-15  0.00000000000E+00 -0.71054273576E-14  0.91188000000E+02  0.91188000000E+02 0.  0.
    9900012    2    3    3    0    0 -0.64086185110E+01  0.23844509258E+02  0.27315744432E+02  0.54367069718E+02  0.39999967036E+02 0.  0.
         12    1    3    3    0    0  0.64086185110E+01 -0.23844509258E+02 -0.27315744432E+02  0.36820930282E+02  0.00000000000E+00 0. -1.
         11    1    4    4    0    0 -0.17903628881E+01  0.49026460327E+01  0.41666992086E+01  0.66785267799E+01  0.51100000000E-03 0. -1.
        -11    1    4    4    0    0  0.29678784522E+00  0.20199048510E+02  0.31791640212E+02  0.37666935518E+02  0.51100000000E-03 0.  1.
         12    1    4    4    0    0 -0.49150434682E+01 -0.12571852846E+01 -0.86425949887E+01  0.10021607420E+02  0.00000000000E+00 0. -1.
</event>
<event>
 8    1  0.2558382E-006  0.9118800E+02  0.7816164E-02  0.1184000E+00
        -11   -1    0    0    0    0  0.00000000000E+00  0.00000000000E+00  0.45593999997E+02  0.45594000000E+02  0.51100000000E-03 0. -1.
         11   -1    0    0    0    0 -0.00000000000E+00 -0.00000000000E+00 -0.45593999997E+02  0.45594000000E+02  0.51100000000E-03 0.  1.
         23    2    1    2    0    0  0.44408920985E-15  0.35527136788E-14  0.00000000000E+00  0.91188000000E+02  0.91188000000E+02 0.  0.
    9900012    2    3    3    0    0 -0.30531939291E+01  0.28945108171E+02  0.22552899105E+02  0.54367156198E+02  0.40000164185E+02 0.  0.
        -12    1    3    3    0    0  0.30531939291E+01 -0.28945108171E+02 -0.22552899105E+02  0.36820843802E+02  0.00000000000E+00 0.  1.
         11    1    4    4    0    0  0.38772679474E+01  0.16472910369E+02 -0.35021156572E+01  0.17281631784E+02  0.51100000000E-03 0.  1.
        -11    1    4    4    0    0 -0.25731033890E+01  0.15819619606E+02  0.27107206959E+02  0.31490981168E+02  0.51100000000E-03 0. -1.
        -12    1    4    4    0    0 -0.43573584875E+01 -0.33474218039E+01 -0.10521921969E+01  0.55945432469E+01  0.00000000000E+00 0.  1.
</event>
<event>
 8    1  0.2558382E-006  0.9118800E+02  0.7816164E-02  0.1184000E+00
        -11   -1    0    0    0    0  0.00000000000E+00  0.00000000000E+00  0.45593999997E+02  0.45594000000E+02  0.51100000000E-03 0. -1.
         11   -1    0    0    0    0 -0.00000000000E+00 -0.00000000000E+00 -0.45593999997E+02  0.45594000000E+02  0.51100000000E-03 0.  1.
         23    2    1    2    0    0  0.35527136788E-14  0.00000000000E+00  0.00000000000E+00  0.91188000000E+02  0.91188000000E+02 0.  0.
    9900012    2    3    3    0    0 -0.26099209282E+02 -0.13141982570E+02 -0.22402916729E+02  0.54367202765E+02  0.40000270343E+02 0.  0.
         12    1    3    3    0    0  0.26099209282E+02  0.13141982570E+02  0.22402916729E+02  0.36820797235E+02  0.00000000000E+00 0. -1.
         11    1    4    4    0    0 -0.22844433601E+02 -0.12338795936E+02 -0.10989130898E+02  0.28193528155E+02  0.51100000000E-03 0. -1.
        -11    1    4    4    0    0 -0.10885819832E+02  0.11455709894E+01 -0.14101991992E+02  0.17851598940E+02  0.51100000000E-03 0.  1.
         12    1    4    4    0    0  0.76310441501E+01 -0.19487576232E+01  0.26882061611E+01  0.83220756702E+01  0.00000000000E+00 0. -1.
</event>
<event>
 8    1  0.2558382E-006  0.9118800E+02  0.7816164E-02  0.1184000E+00
        -11   -1    0    0    0    0  0.00000000000E+00  0.00000000000E+00  0.45593999997E+02  0.45594000000E+02  0.51100000000E-03 0.  1.
         11   -1    0    0    0    0 -0.00000000000E+00 -0.00000000000E+00 -0.45593999997E+02  0.45594000000E+02  0.51100000000E-03 0. -1.
         23    2    1    2    0    0  0.00000000000E+00 -0.17763568394E-14  0.00000000000E+00  0.91188000000E+02  0.91188000000E+02 0.  0.
    9900012    2    3    3    0    0 -0.24127972552E+02  0.11303585765E+02  0.25413644780E+02  0.54367035161E+02  0.39999888257E+02 0.  0.
         12    1    3    3    0    0  0.24127972552E+02 -0.11303585765E+02 -0.25413644780E+02  0.36820964839E+02  0.00000000000E+00 0. -1.
         11    1    4    4    0    0  0.62141318661E+00 -0.87187516886E+01  0.88868085540E+01  0.12465077292E+02  0.51100000000E-03 0. -1.
        -11    1    4    4    0    0 -0.24086665847E+02  0.20004142306E+02  0.66573240477E+01  0.32010203760E+02  0.51100000000E-03 0.  1.
        -12    1    4    4    0    0 -0.66271989157E+00  0.18195147379E-01  0.98695121788E+01  0.98917541096E+01  0.00000000000E+00 0.  1.
</event>
<event>
 8    1  0.2558382E-006  0.9118800E+02  0.7816164E-02  0.1184000E+00
        -11   -1    0    0    0    0  0.00000000000E+00  0.00000000000E+00  0.45593999997E+02  0.45594000000E+02  0.51100000000E-03 0. -1.
         11   -1    0    0    0    0 -0.00000000000E+00 -0.00000000000E+00 -0.45593999997E+02  0.45594000000E+02  0.51100000000E-03 0.  1.
         23    2    1    2    0    0  0.00000000000E+00  0.00000000000E+00  0.00000000000E+00  0.91188000000E+02  0.91188000000E+02 0.  0.
    9900012    2    3    3    0    0 -0.74576410271E+00 -0.36397474692E+02 -0.55179704428E+01  0.54367077607E+02  0.39999985022E+02 0.  0.
        -12    1    3    3    0    0  0.74576410271E+00  0.36397474692E+02  0.55179704428E+01  0.36820922393E+02  0.00000000000E+00 0.  1.
         11    1    4    4    0    0 -0.67831193083E+00 -0.21204328169E+02  0.86314567920E+01  0.22903835634E+02  0.51100000000E-03 0. -1.
        -11    1    4    4    0    0  0.31460477308E+01 -0.15741413634E+02  0.88727829586E+00  0.16077219366E+02  0.51100000000E-03 0.  1.
        -12    1    4    4    0    0 -0.32134999026E+01  0.54826711024E+00 -0.15036705531E+02  0.15386022607E+02  0.00000000000E+00 0.  1.
</event>
<event>
 8    1  0.2558382E-006  0.9118800E+02  0.7816164E-02  0.1184000E+00
        -11   -1    0    0    0    0  0.00000000000E+00  0.00000000000E+00  0.45593999997E+02  0.45594000000E+02  0.51100000000E-03 0.  1.
         11   -1    0    0    0    0 -0.00000000000E+00 -0.00000000000E+00 -0.45593999997E+02  0.45594000000E+02  0.51100000000E-03 0. -1.
         23    2    1    2    0    0  0.00000000000E+00 -0.88817841970E-15  0.00000000000E+00  0.91188000000E+02  0.91188000000E+02 0.  0.
    9900012    2    3    3    0    0 -0.13408464654E+02  0.51764256443E+01  0.33899733122E+02  0.54367160621E+02  0.40000174268E+02 0.  0.
         12    1    3    3    0    0  0.13408464654E+02 -0.51764256443E+01 -0.33899733122E+02  0.36820839379E+02  0.00000000000E+00 0. -1.
         11    1    4    4    0    0 -0.20449905743E+01  0.49170729335E+01 -0.13800404774E+01  0.55012820927E+01  0.51100000000E-03 0. -1.
        -11    1    4    4    0    0 -0.13842208054E+02 -0.11129297501E+02  0.32259149666E+02  0.36825544451E+02  0.51100000000E-03 0.  1.
        -12    1    4    4    0    0  0.24787339741E+01  0.11388650212E+02  0.30206239326E+01  0.12040334077E+02  0.00000000000E+00 0.  1.
</event>
<event>
 8    1  0.2558382E-006  0.9118800E+02  0.7816164E-02  0.1184000E+00
        -11   -1    0    0    0    0  0.00000000000E+00  0.00000000000E+00  0.45593999997E+02  0.45594000000E+02  0.51100000000E-03 0. -1.
         11   -1    0    0    0    0 -0.00000000000E+00 -0.00000000000E+00 -0.45593999997E+02  0.45594000000E+02  0.51100000000E-03 0.  1.
         23    2    1    2    0    0  0.00000000000E+00  0.00000000000E+00 -0.35527136788E-14  0.91188000000E+02  0.91188000000E+02 0.  0.
    9900012    2    3    3    0    0 -0.94163550708E+01 -0.26421465138E+02  0.23854116384E+02  0.54367076175E+02  0.39999981757E+02 0.  0.
        -12    1    3    3    0    0  0.94163550708E+01  0.26421465138E+02 -0.23854116384E+02  0.36820923825E+02  0.00000000000E+00 0.  1.
         11    1    4    4    0    0 -0.31983529151E+01 -0.11867726616E+02  0.27374888545E+02  0.30007614359E+02  0.51100000000E-03 0. -1.
        -11    1    4    4    0    0 -0.10743031510E+02 -0.31958197153E+01  0.11595154959E+01  0.11268117240E+02  0.51100000000E-03 0.  1.
        -12    1    4    4    0    0  0.45250293544E+01 -0.11357918806E+02 -0.46802876572E+01  0.13091344577E+02  0.00000000000E+00 0.  1.
</event>
<event>
 8    1  0.2558382E-006  0.9118800E+02  0.7816164E-02  0.1184000E+00
        -11   -1    0    0    0    0  0.00000000000E+00  0.00000000000E+00  0.45593999997E+02  0.45594000000E+02  0.51100000000E-03 0.  1.
         11   -1    0    0    0    0 -0.00000000000E+00 -0.00000000000E+00 -0.45593999997E+02  0.45594000000E+02  0.51100000000E-03 0. -1.
         23    2    1    2    0    0  0.00000000000E+00  0.00000000000E+00  0.00000000000E+00  0.91188000000E+02  0.91188000000E+02 0.  0.
    9900012    2    3    3    0    0  0.33964619972E+02  0.14064776119E+02  0.20901539993E+01  0.54367053776E+02  0.39999930692E+02 0.  0.
         12    1    3    3    0    0 -0.33964619972E+02 -0.14064776119E+02 -0.20901539993E+01  0.36820946224E+02  0.00000000000E+00 0. -1.
         11    1    4    4    0    0  0.27602238129E+02  0.10497426402E+02 -0.14678856126E+02  0.32977997638E+02  0.51100000000E-03 0. -1.
        -11    1    4    4    0    0  0.57838692048E+01  0.68745565687E+01  0.81144301502E+01  0.12106058315E+02  0.51100000000E-03 0.  1.
        -12    1    4    4    0    0  0.57851263778E+00 -0.33072068521E+01  0.86545799745E+01  0.92829978224E+01  0.00000000000E+00 0.  1.
</event>
<event>
 8    1  0.2558382E-006  0.9118800E+02  0.7816164E-02  0.1184000E+00
        -11   -1    0    0    0    0  0.00000000000E+00  0.00000000000E+00  0.45593999997E+02  0.45594000000E+02  0.51100000000E-03 0.  1.
         11   -1    0    0    0    0 -0.00000000000E+00 -0.00000000000E+00 -0.45593999997E+02  0.45594000000E+02  0.51100000000E-03 0. -1.
         23    2    1    2    0    0  0.00000000000E+00  0.00000000000E+00  0.35527136788E-14  0.91188000000E+02  0.91188000000E+02 0.  0.
    9900012    2    3    3    0    0  0.15560695328E+02 -0.27032875377E+02 -0.19566991797E+02  0.54367098895E+02  0.40000033551E+02 0.  0.
         12    1    3    3    0    0 -0.15560695328E+02  0.27032875377E+02  0.19566991797E+02  0.36820901105E+02  0.00000000000E+00 0. -1.
         11    1    4    4    0    0 -0.11078766698E+02  0.43966759274E+00 -0.33837821096E+00  0.11092649783E+02  0.51100000000E-03 0. -1.
        -11    1    4    4    0    0  0.46620170532E+01 -0.80698216022E+01 -0.61961101792E+01  0.11191434462E+02  0.51100000000E-03 0.  1.
         12    1    4    4    0    0  0.21977444973E+02 -0.19402721367E+02 -0.13032503407E+02  0.32083014650E+02  0.00000000000E+00 0. -1.
</event>
<event>
 8    1  0.2558382E-006  0.9118800E+02  0.7816164E-02  0.1184000E+00
        -11   -1    0    0    0    0  0.00000000000E+00  0.00000000000E+00  0.45593999997E+02  0.45594000000E+02  0.51100000000E-03 0. -1.
         11   -1    0    0    0    0 -0.00000000000E+00 -0.00000000000E+00 -0.45593999997E+02  0.45594000000E+02  0.51100000000E-03 0.  1.
         23    2    1    2    0    0  0.35527136788E-14  0.00000000000E+00 -0.17763568394E-14  0.91188000000E+02  0.91188000000E+02 0.  0.
    9900012    2    3    3    0    0 -0.29816115566E+02 -0.19756624246E+02  0.87438027204E+01  0.54367095135E+02  0.40000024980E+02 0.  0.
        -12    1    3    3    0    0  0.29816115566E+02  0.19756624246E+02 -0.87438027204E+01  0.36820904865E+02  0.00000000000E+00 0.  1.
         11    1    4    4    0    0 -0.76051768867E+01  0.30392265519E+01  0.99636857177E+01  0.12897699285E+02  0.51100000000E-03 0. -1.
        -11    1    4    4    0    0 -0.14453871704E+02 -0.17397769892E+02 -0.13217053160E+02  0.26197085696E+02  0.51100000000E-03 0.  1.
        -12    1    4    4    0    0 -0.77570669749E+01 -0.53980809059E+01  0.11997170163E+02  0.15272310154E+02  0.00000000000E+00 0.  1.
</event>
<event>
 8    1  0.2558382E-006  0.9118800E+02  0.7816164E-02  0.1184000E+00
        -11   -1    0    0    0    0  0.00000000000E+00  0.00000000000E+00  0.45593999997E+02  0.45594000000E+02  0.51100000000E-03 0. -1.
         11   -1    0    0    0    0 -0.00000000000E+00 -0.00000000000E+00 -0.45593999997E+02  0.45594000000E+02  0.51100000000E-03 0.  1.
         23    2    1    2    0    0 -0.35527136788E-14 -0.17763568394E-14 -0.35527136788E-14  0.91188000000E+02  0.91188000000E+02 0.  0.
    9900012    2    3    3    0    0 -0.14769389514E+02 -0.10953412520E+02 -0.31900920449E+02  0.54367070653E+02  0.39999969168E+02 0.  0.
         12    1    3    3    0    0  0.14769389514E+02  0.10953412520E+02  0.31900920449E+02  0.36820929347E+02  0.00000000000E+00 0. -1.
         11    1    4    4    0    0  0.15699479824E+01 -0.25811052301E+01 -0.36094537721E+01  0.47069095668E+01  0.51100000000E-03 0. -1.
        -11    1    4    4    0    0  0.49722912223E+01  0.35152414649E+01 -0.24153099155E+02  0.24908890012E+02  0.51100000000E-03 0.  1.
         12    1    4    4    0    0 -0.21311628719E+02 -0.11887548755E+02 -0.41383675214E+01  0.24751271074E+02  0.00000000000E+00 0. -1.
</event>
<event>
 8    1  0.2558382E-006  0.9118800E+02  0.7816164E-02  0.1184000E+00
        -11   -1    0    0    0    0  0.00000000000E+00  0.00000000000E+00  0.45593999997E+02  0.45594000000E+02  0.51100000000E-03 0.  1.
         11   -1    0    0    0    0 -0.00000000000E+00 -0.00000000000E+00 -0.45593999997E+02  0.45594000000E+02  0.51100000000E-03 0. -1.
         23    2    1    2    0    0  0.17763568394E-14 -0.71054273576E-14 -0.35527136788E-14  0.91188000000E+02  0.91188000000E+02 0.  0.
    9900012    2    3    3    0    0  0.13063958812E+02 -0.27026207570E+02 -0.21323639941E+02  0.54367074756E+02  0.39999978521E+02 0.  0.
        -12    1    3    3    0    0 -0.13063958812E+02  0.27026207570E+02  0.21323639941E+02  0.36820925244E+02  0.00000000000E+00 0.  1.
         11    1    4    4    0    0  0.18877733386E+02 -0.97308727712E+01 -0.11445943088E+02  0.24126092019E+02  0.51100000000E-03 0.  1.
        -11    1    4    4    0    0  0.69320027592E+01 -0.11475851810E+01 -0.61424261811E+01  0.93326852327E+01  0.51100000000E-03 0. -1.
         12    1    4    4    0    0 -0.12745777332E+02 -0.16147749618E+02 -0.37352706719E+01  0.20908297504E+02  0.00000000000E+00 0. -1.
</event>
<event>
 8    1  0.2558382E-006  0.9118800E+02  0.7816164E-02  0.1184000E+00
        -11   -1    0    0    0    0  0.00000000000E+00  0.00000000000E+00  0.45593999997E+02  0.45594000000E+02  0.51100000000E-03 0.  1.
         11   -1    0    0    0    0 -0.00000000000E+00 -0.00000000000E+00 -0.45593999997E+02  0.45594000000E+02  0.51100000000E-03 0. -1.
         23    2    1    2    0    0  0.71054273576E-14  0.00000000000E+00  0.00000000000E+00  0.91188000000E+02  0.91188000000E+02 0.  0.
    9900012    2    3    3    0    0 -0.34750117300E+02 -0.86700451697E+01 -0.85462327844E+01  0.54367103346E+02  0.40000043699E+02 0.  0.
        -12    1    3    3    0    0  0.34750117300E+02  0.86700451697E+01  0.85462327844E+01  0.36820896654E+02  0.00000000000E+00 0.  1.
         11    1    4    4    0    0 -0.13820673281E+02 -0.17674730941E+01 -0.23119740990E+02  0.26993654713E+02  0.51100000000E-03 0. -1.
        -11    1    4    4    0    0 -0.10989844326E+02  0.10217688188E+00  0.63329893881E+01  0.12684394872E+02  0.51100000000E-03 0.  1.
         12    1    4    4    0    0 -0.99395996924E+01 -0.70047489575E+01  0.82405188174E+01  0.14689053761E+02  0.00000000000E+00 0. -1.
</event>
<event>
 8    1  0.2558382E-006  0.9118800E+02  0.7816164E-02  0.1184000E+00
        -11   -1    0    0    0    0  0.00000000000E+00  0.00000000000E+00  0.45593999997E+02  0.45594000000E+02  0.51100000000E-03 0.  1.
         11   -1    0    0    0    0 -0.00000000000E+00 -0.00000000000E+00 -0.45593999997E+02  0.45594000000E+02  0.51100000000E-03 0. -1.
         23    2    1    2    0    0  0.00000000000E+00  0.17763568394E-14  0.00000000000E+00  0.91188000000E+02  0.91188000000E+02 0.  0.
    9900012    2    3    3    0    0  0.32899760233E+02  0.14450197756E+02  0.80360846602E+01  0.54367067159E+02  0.39999961203E+02 0.  0.
         12    1    3    3    0    0 -0.32899760233E+02 -0.14450197756E+02 -0.80360846602E+01  0.36820932841E+02  0.00000000000E+00 0. -1.
         11    1    4    4    0    0  0.12106656573E+02 -0.89595055647E+01  0.92916036605E+01  0.17696829439E+02  0.51100000000E-03 0. -1.
        -11    1    4    4    0    0  0.23037422549E+02  0.23653365711E+02  0.15676742199E+01  0.33055440549E+02  0.51100000000E-03 0.  1.
        -12    1    4    4    0    0 -0.22443188884E+01 -0.24366239100E+00 -0.28231932202E+01  0.36147971717E+01  0.00000000000E+00 0.  1.
</event>
<event>
 8    1  0.2558382E-006  0.9118800E+02  0.7816164E-02  0.1184000E+00
        -11   -1    0    0    0    0  0.00000000000E+00  0.00000000000E+00  0.45593999997E+02  0.45594000000E+02  0.51100000000E-03 0.  1.
         11   -1    0    0    0    0 -0.00000000000E+00 -0.00000000000E+00 -0.45593999997E+02  0.45594000000E+02  0.51100000000E-03 0. -1.
         23    2    1    2    0    0 -0.88817841970E-15  0.00000000000E+00  0.00000000000E+00  0.91188000000E+02  0.91188000000E+02 0.  0.
    9900012    2    3    3    0    0  0.73600962730E+01  0.81044541089E+01  0.35155777113E+02  0.54367056802E+02  0.39999937591E+02 0.  0.
         12    1    3    3    0    0 -0.73600962730E+01 -0.81044541089E+01 -0.35155777113E+02  0.36820943198E+02  0.00000000000E+00 0. -1.
         11    1    4    4    0    0  0.84208170251E+01  0.19465539598E+02  0.22883219417E+02  0.31200306446E+02  0.51100000000E-03 0. -1.
        -11    1    4    4    0    0 -0.75315085961E+01 -0.90196947562E+01  0.40147825556E+01  0.12417608242E+02  0.51100000000E-03 0.  1.
         12    1    4    4    0    0  0.64707878440E+01 -0.23413907333E+01  0.82577751412E+01  0.10749142113E+02  0.00000000000E+00 0. -1.
</event>
<event>
 8    1  0.2558382E-006  0.9118800E+02  0.7816164E-02  0.1184000E+00
        -11   -1    0    0    0    0  0.00000000000E+00  0.00000000000E+00  0.45593999997E+02  0.45594000000E+02  0.51100000000E-03 0.  1.
         11   -1    0    0    0    0 -0.00000000000E+00 -0.00000000000E+00 -0.45593999997E+02  0.45594000000E+02  0.51100000000E-03 0. -1.
         23    2    1    2    0    0  0.00000000000E+00  0.00000000000E+00  0.35527136788E-14  0.91188000000E+02  0.91188000000E+02 0.  0.
    9900012    2    3    3    0    0 -0.20724583406E+02 -0.19918641586E+02 -0.23011290134E+02  0.54367080489E+02  0.39999991592E+02 0.  0.
        -12    1    3    3    0    0  0.20724583406E+02  0.19918641586E+02  0.23011290134E+02  0.36820919511E+02  0.00000000000E+00 0.  1.
         11    1    4    4    0    0 -0.13336820457E+02 -0.73082257816E+01  0.37461870730E+01  0.15662530505E+02  0.51100000000E-03 0.  1.
        -11    1    4    4    0    0 -0.36571758213E+01  0.54250000703E+01 -0.40624480007E+00  0.65551960954E+01  0.51100000000E-03 0. -1.
         12    1    4    4    0    0 -0.37305871272E+01 -0.18035415875E+02 -0.26351232407E+02  0.32149353889E+02  0.00000000000E+00 0. -1.
</event>
<event>
 8    1  0.2558382E-006  0.9118800E+02  0.7816164E-02  0.1184000E+00
        -11   -1    0    0    0    0  0.00000000000E+00  0.00000000000E+00  0.45593999997E+02  0.45594000000E+02  0.51100000000E-03 0.  1.
         11   -1    0    0    0    0 -0.00000000000E+00 -0.00000000000E+00 -0.45593999997E+02  0.45594000000E+02  0.51100000000E-03 0. -1.
         23    2    1    2    0    0  0.00000000000E+00  0.88817841970E-15  0.00000000000E+00  0.91188000000E+02  0.91188000000E+02 0.  0.
    9900012    2    3    3    0    0 -0.12199175423E+02  0.57361373933E+01 -0.34264508379E+02  0.54367086273E+02  0.40000004778E+02 0.  0.
        -12    1    3    3    0    0  0.12199175423E+02 -0.57361373933E+01  0.34264508379E+02  0.36820913727E+02  0.00000000000E+00 0.  1.
         11    1    4    4    0    0 -0.24199714399E+01 -0.26861612363E+01 -0.74598436430E+01  0.82898125067E+01  0.51100000000E-03 0. -1.
        -11    1    4    4    0    0 -0.77561147191E+01 -0.12687727630E+02 -0.50708830547E+01  0.15711448156E+02  0.51100000000E-03 0.  1.
         12    1    4    4    0    0 -0.20230892636E+01  0.21110026259E+02 -0.21733781682E+02  0.30365825611E+02  0.00000000000E+00 0. -1.
</event>
<event>
 8    1  0.2558382E-006  0.9118800E+02  0.7816164E-02  0.1184000E+00
        -11   -1    0    0    0    0  0.00000000000E+00  0.00000000000E+00  0.45593999997E+02  0.45594000000E+02  0.51100000000E-03 0. -1.
         11   -1    0    0    0    0 -0.00000000000E+00 -0.00000000000E+00 -0.45593999997E+02  0.45594000000E+02  0.51100000000E-03 0.  1.
         23    2    1    2    0    0  0.00000000000E+00  0.00000000000E+00  0.44408920985E-15  0.91188000000E+02  0.91188000000E+02 0.  0.
    9900012    2    3    3    0    0 -0.34402956208E+02  0.12924764138E+02  0.22732970403E+01  0.54367071124E+02  0.39999970240E+02 0.  0.
         12    1    3    3    0    0  0.34402956208E+02 -0.12924764138E+02 -0.22732970403E+01  0.36820928876E+02  0.00000000000E+00 0. -1.
         11    1    4    4    0    0 -0.11661255288E+02  0.26834159376E+01  0.13858056076E+02  0.18309323157E+02  0.51100000000E-03 0. -1.
        -11    1    4    4    0    0 -0.11819343482E+02  0.75047920625E+01  0.59552234077E+01  0.15214580847E+02  0.51100000000E-03 0.  1.
        -12    1    4    4    0    0 -0.10922357438E+02  0.27365561376E+01 -0.17539982443E+02  0.20843167120E+02  0.00000000000E+00 0.  1.
</event>
<event>
 8    1  0.2558382E-006  0.9118800E+02  0.7816164E-02  0.1184000E+00
        -11   -1    0    0    0    0  0.00000000000E+00  0.00000000000E+00  0.45593999997E+02  0.45594000000E+02  0.51100000000E-03 0.  1.
         11   -1    0    0    0    0 -0.00000000000E+00 -0.00000000000E+00 -0.45593999997E+02  0.45594000000E+02  0.51100000000E-03 0. -1.
         23    2    1    2    0    0  0.35527136788E-14  0.00000000000E+00 -0.35527136788E-14  0.91188000000E+02  0.91188000000E+02 0.  0.
    9900012    2    3    3    0    0 -0.19156686047E+02  0.13554781931E+02 -0.28373725647E+02  0.54367095060E+02  0.40000024808E+02 0.  0.
        -12    1    3    3    0    0  0.19156686047E+02 -0.13554781931E+02  0.28373725647E+02  0.36820904940E+02  0.00000000000E+00 0.  1.
         11    1    4    4    0    0 -0.13489173119E+02 -0.53971054677E+00 -0.21011482920E+02  0.24974616987E+02  0.51100000000E-03 0. -1.
        -11    1    4    4    0    0  0.66560499774E+00  0.92940034369E+01 -0.15457355887E+02  0.18048583911E+02  0.51100000000E-03 0.  1.
        -12    1    4    4    0    0 -0.63331179261E+01  0.48004890409E+01  0.80951131596E+01  0.11343894162E+02  0.00000000000E+00 0.  1.
</event>
<event>
 8    1  0.2558382E-006  0.9118800E+02  0.7816164E-02  0.1184000E+00
        -11   -1    0    0    0    0  0.00000000000E+00  0.00000000000E+00  0.45593999997E+02  0.45594000000E+02  0.51100000000E-03 0.  1.
         11   -1    0    0    0    0 -0.00000000000E+00 -0.00000000000E+00 -0.45593999997E+02  0.45594000000E+02  0.51100000000E-03 0. -1.
         23    2    1    2    0    0  0.35527136788E-14  0.35527136788E-14  0.00000000000E+00  0.91188000000E+02  0.91188000000E+02 0.  0.
    9900012    2    3    3    0    0 -0.17642642772E+02 -0.25895941174E+02  0.19336910893E+02  0.54367099194E+02  0.40000034233E+02 0.  0.
         12    1    3    3    0    0  0.17642642772E+02  0.25895941174E+02 -0.19336910893E+02  0.36820900806E+02  0.00000000000E+00 0. -1.
         11    1    4    4    0    0 -0.12274989773E+00 -0.17012977025E+01 -0.20846470806E+01  0.26935543658E+01  0.51100000000E-03 0. -1.
        -11    1    4    4    0    0 -0.28394514605E+02 -0.12596081769E+02  0.15415426676E+02  0.34677732270E+02  0.51100000000E-03 0.  1.
         12    1    4    4    0    0  0.10874621731E+02 -0.11598561702E+02  0.60061312981E+01  0.16995812558E+02  0.00000000000E+00 0. -1.
</event>
<event>
 8    1  0.2558382E-006  0.9118800E+02  0.7816164E-02  0.1184000E+00
        -11   -1    0    0    0    0  0.00000000000E+00  0.00000000000E+00  0.45593999997E+02  0.45594000000E+02  0.51100000000E-03 0.  1.
         11   -1    0    0    0    0 -0.00000000000E+00 -0.00000000000E+00 -0.45593999997E+02  0.45594000000E+02  0.51100000000E-03 0. -1.
         23    2    1    2    0    0  0.88817841970E-15  0.00000000000E+00  0.00000000000E+00  0.91188000000E+02  0.91188000000E+02 0.  0.
    9900012    2    3    3    0    0  0.65491886278E+01 -0.90675034284E+01  0.35080903111E+02  0.54367065015E+02  0.39999956315E+02 0.  0.
         12    1    3    3    0    0 -0.65491886278E+01  0.90675034284E+01 -0.35080903111E+02  0.36820934985E+02  0.00000000000E+00 0. -1.
         11    1    4    4    0    0  0.33544844031E+01  0.33813893562E+01 -0.45326065520E+01  0.65750195441E+01  0.51100000000E-03 0. -1.
        -11    1    4    4    0    0  0.55573657621E+01 -0.20795418145E+00 -0.69048625358E+00  0.56039566989E+01  0.51100000000E-03 0.  1.
        -12    1    4    4    0    0 -0.23626615374E+01 -0.12240938603E+02  0.40303995916E+02  0.42188088772E+02  0.00000000000E+00 0.  1.
</event>
<event>
 8    1  0.2558382E-006  0.9118800E+02  0.7816164E-02  0.1184000E+00
        -11   -1    0    0    0    0  0.00000000000E+00  0.00000000000E+00  0.45593999997E+02  0.45594000000E+02  0.51100000000E-03 0. -1.
         11   -1    0    0    0    0 -0.00000000000E+00 -0.00000000000E+00 -0.45593999997E+02  0.45594000000E+02  0.51100000000E-03 0.  1.
         23    2    1    2    0    0 -0.88817841970E-15  0.35527136788E-14  0.35527136788E-14  0.91188000000E+02  0.91188000000E+02 0.  0.
    9900012    2    3    3    0    0 -0.45655548213E+01 -0.19058432783E+02  0.31172304328E+02  0.54367072417E+02  0.39999973189E+02 0.  0.
        -12    1    3    3    0    0  0.45655548213E+01  0.19058432783E+02 -0.31172304328E+02  0.36820927583E+02  0.00000000000E+00 0.  1.
         11    1    4    4    0    0  0.91637287203E+01 -0.13079388335E+02  0.12218798791E+02  0.20108291012E+02  0.51100000000E-03 0. -1.
        -11    1    4    4    0    0 -0.18410601403E+02 -0.10579516309E+02  0.17548074681E+02  0.27546530356E+02  0.51100000000E-03 0.  1.
         12    1    4    4    0    0  0.46813178614E+01  0.46004718609E+01  0.14054308555E+01  0.67122510495E+01  0.00000000000E+00 0. -1.
</event>
<event>
 8    1  0.2558382E-006  0.9118800E+02  0.7816164E-02  0.1184000E+00
        -11   -1    0    0    0    0  0.00000000000E+00  0.00000000000E+00  0.45593999997E+02  0.45594000000E+02  0.51100000000E-03 0.  1.
         11   -1    0    0    0    0 -0.00000000000E+00 -0.00000000000E+00 -0.45593999997E+02  0.45594000000E+02  0.51100000000E-03 0. -1.
         23    2    1    2    0    0  0.00000000000E+00  0.88817841970E-15  0.00000000000E+00  0.91188000000E+02  0.91188000000E+02 0.  0.
    9900012    2    3    3    0    0  0.35742476086E+02  0.32151674180E+01 -0.82412296226E+01  0.54367085237E+02  0.40000002415E+02 0.  0.
        -12    1    3    3    0    0 -0.35742476086E+02 -0.32151674180E+01  0.82412296226E+01  0.36820914763E+02  0.00000000000E+00 0.  1.
         11    1    4    4    0    0 -0.49896535619E+01 -0.42234997992E+00 -0.84801553533E+00  0.50787944221E+01  0.51100000000E-03 0. -1.
        -11    1    4    4    0    0 -0.45262340748E+00  0.27531236432E+01  0.54632304348E+01  0.61344473907E+01  0.51100000000E-03 0.  1.
         12    1    4    4    0    0  0.41184753055E+02  0.88439375468E+00 -0.12856444522E+02  0.43153843424E+02  0.00000000000E+00 0. -1.
</event>
<event>
 8    1  0.2558382E-006  0.9118800E+02  0.7816164E-02  0.1184000E+00
        -11   -1    0    0    0    0  0.00000000000E+00  0.00000000000E+00  0.45593999997E+02  0.45594000000E+02  0.51100000000E-03 0.  1.
         11   -1    0    0    0    0 -0.00000000000E+00 -0.00000000000E+00 -0.45593999997E+02  0.45594000000E+02  0.51100000000E-03 0. -1.
         23    2    1    2    0    0  0.71054273576E-14  0.35527136788E-14 -0.44408920985E-15  0.91188000000E+02  0.91188000000E+02 0.  0.
    9900012    2    3    3    0    0 -0.34877003924E+02 -0.11146303264E+02  0.38906204318E+01  0.54367049353E+02  0.39999920611E+02 0.  0.
         12    1    3    3    0    0  0.34877003924E+02  0.11146303264E+02 -0.38906204318E+01  0.36820950647E+02  0.00000000000E+00 0. -1.
         11    1    4    4    0    0 -0.35670391962E+02 -0.17626957950E+02 -0.45520791964E+01  0.40047570895E+02  0.51100000000E-03 0. -1.
        -11    1    4    4    0    0  0.79951126262E-01  0.36064290332E+01 -0.15285089352E+01  0.39177879447E+01  0.51100000000E-03 0.  1.
        -12    1    4    4    0    0  0.71343691134E+00  0.28742256532E+01  0.99712085634E+01  0.10401690514E+02  0.00000000000E+00 0.  1.
</event>
<event>
 8    1  0.2558382E-006  0.9118800E+02  0.7816164E-02  0.1184000E+00
        -11   -1    0    0    0    0  0.00000000000E+00  0.00000000000E+00  0.45593999997E+02  0.45594000000E+02  0.51100000000E-03 0. -1.
         11   -1    0    0    0    0 -0.00000000000E+00 -0.00000000000E+00 -0.45593999997E+02  0.45594000000E+02  0.51100000000E-03 0.  1.
         23    2    1    2    0    0  0.00000000000E+00  0.55511151231E-15 -0.88817841970E-15  0.91188000000E+02  0.91188000000E+02 0.  0.
    9900012    2    3    3    0    0 -0.36492274976E+02 -0.99090399223E+00  0.48071844550E+01  0.54367122145E+02  0.40000086554E+02 0.  0.
        -12    1    3    3    0    0  0.36492274976E+02  0.99090399223E+00 -0.48071844550E+01  0.36820877855E+02  0.00000000000E+00 0.  1.
         11    1    4    4    0    0 -0.52680046634E+01 -0.13768785716E+02 -0.47932908013E+01  0.15501837639E+02  0.51100000000E-03 0. -1.
        -11    1    4    4    0    0  0.12288602743E+01  0.14265696053E+01 -0.18381229321E+01  0.26313294334E+01  0.51100000000E-03 0.  1.
        -12    1    4    4    0    0 -0.32453130587E+02  0.11351312118E+02  0.11438598188E+02  0.36233955073E+02  0.00000000000E+00 0.  1.
</event>
<event>
 8    1  0.2558382E-006  0.9118800E+02  0.7816164E-02  0.1184000E+00
        -11   -1    0    0    0    0  0.00000000000E+00  0.00000000000E+00  0.45593999997E+02  0.45594000000E+02  0.51100000000E-03 0.  1.
         11   -1    0    0    0    0 -0.00000000000E+00 -0.00000000000E+00 -0.45593999997E+02  0.45594000000E+02  0.51100000000E-03 0. -1.
         23    2    1    2    0    0 -0.35527136788E-14 -0.88817841970E-15  0.35527136788E-14  0.91188000000E+02  0.91188000000E+02 0.  0.
    9900012    2    3    3    0    0 -0.19801523342E+02  0.70502146085E+01  0.30232000787E+02  0.54367085776E+02  0.40000003644E+02 0.  0.
         12    1    3    3    0    0  0.19801523342E+02 -0.70502146085E+01 -0.30232000787E+02  0.36820914224E+02  0.00000000000E+00 0. -1.
         11    1    4    4    0    0  0.31579557895E+00 -0.22555335692E+01  0.17534554944E+01  0.28743286106E+01  0.51100000000E-03 0. -1.
        -11    1    4    4    0    0 -0.11169126029E+02 -0.79929885978E+01 -0.33876327815E+01  0.14146140785E+02  0.51100000000E-03 0.  1.
         12    1    4    4    0    0 -0.89481928919E+01  0.17298736776E+02  0.31866178074E+02  0.37346616381E+02  0.00000000000E+00 0. -1.
</event>
<event>
 8    1  0.2558382E-006  0.9118800E+02  0.7816164E-02  0.1184000E+00
        -11   -1    0    0    0    0  0.00000000000E+00  0.00000000000E+00  0.45593999997E+02  0.45594000000E+02  0.51100000000E-03 0.  1.
         11   -1    0    0    0    0 -0.00000000000E+00 -0.00000000000E+00 -0.45593999997E+02  0.45594000000E+02  0.51100000000E-03 0. -1.
         23    2    1    2    0    0 -0.35527136788E-14 -0.71054273576E-14  0.17763568394E-14  0.91188000000E+02  0.91188000000E+02 0.  0.
    9900012    2    3    3    0    0  0.16101227886E+02 -0.32504869291E+02  0.63216536521E+01  0.54367090560E+02  0.40000014550E+02 0.  0.
        -12    1    3    3    0    0 -0.16101227886E+02  0.32504869291E+02 -0.63216536521E+01  0.36820909440E+02  0.00000000000E+00 0.  1.
         11    1    4    4    0    0 -0.32704722908E+01  0.51271276685E+01  0.11510482838E+01  0.61893731142E+01  0.51100000000E-03 0.  1.
        -11    1    4    4    0    0  0.22554301464E+01 -0.59904990146E+01 -0.76612513990E+01  0.99833770263E+01  0.51100000000E-03 0. -1.
        -12    1    4    4    0    0  0.17116270031E+02 -0.31641497945E+02  0.12831856767E+02  0.38194340419E+02  0.00000000000E+00 0.  1.
</event>
<event>
 8    1  0.2558382E-006  0.9118800E+02  0.7816164E-02  0.1184000E+00
        -11   -1    0    0    0    0  0.00000000000E+00  0.00000000000E+00  0.45593999997E+02  0.45594000000E+02  0.51100000000E-03 0. -1.
         11   -1    0    0    0    0 -0.00000000000E+00 -0.00000000000E+00 -0.45593999997E+02  0.45594000000E+02  0.51100000000E-03 0.  1.
         23    2    1    2    0    0  0.00000000000E+00  0.00000000000E+00  0.00000000000E+00  0.91188000000E+02  0.91188000000E+02 0.  0.
    9900012    2    3    3    0    0  0.97964871210E+01 -0.20454704229E+02 -0.29007165811E+02  0.54367058222E+02  0.39999940829E+02 0.  0.
         12    1    3    3    0    0 -0.97964871210E+01  0.20454704229E+02  0.29007165811E+02  0.36820941778E+02  0.00000000000E+00 0. -1.
         11    1    4    4    0    0  0.12171360883E+02 -0.12842328220E+02 -0.21652107736E+02  0.27962138500E+02  0.51100000000E-03 0. -1.
        -11    1    4    4    0    0  0.53156382229E+01  0.57917800353E+01 -0.76209857520E+01  0.10948979395E+02  0.51100000000E-03 0.  1.
         12    1    4    4    0    0 -0.76905119852E+01 -0.13404156045E+02  0.26592767655E+00  0.15455940327E+02  0.00000000000E+00 0. -1.
</event>
<event>
 8    1  0.2558382E-006  0.9118800E+02  0.7816164E-02  0.1184000E+00
        -11   -1    0    0    0    0  0.00000000000E+00  0.00000000000E+00  0.45593999997E+02  0.45594000000E+02  0.51100000000E-03 0. -1.
         11   -1    0    0    0    0 -0.00000000000E+00 -0.00000000000E+00 -0.45593999997E+02  0.45594000000E+02  0.51100000000E-03 0.  1.
         23    2    1    2    0    0  0.00000000000E+00  0.00000000000E+00  0.00000000000E+00  0.91188000000E+02  0.91188000000E+02 0.  0.
    9900012    2    3    3    0    0 -0.20674001486E+02  0.24004589682E+02 -0.18765532028E+02  0.54367083994E+02  0.39999999581E+02 0.  0.
        -12    1    3    3    0    0  0.20674001486E+02 -0.24004589682E+02  0.18765532028E+02  0.36820916006E+02  0.00000000000E+00 0.  1.
         11    1    4    4    0    0 -0.59655929454E+01  0.70057439902E+01 -0.47898416930E+01  0.10373588181E+02  0.51100000000E-03 0.  1.
        -11    1    4    4    0    0 -0.25186249970E+02  0.48108462761E+01 -0.86689422080E+01  0.27067360210E+02  0.51100000000E-03 0. -1.
        -12    1    4    4    0    0  0.10477841430E+02  0.12187999415E+02 -0.53067481268E+01  0.16926135603E+02  0.00000000000E+00 0.  1.
</event>
<event>
 8    1  0.2558382E-006  0.9118800E+02  0.7816164E-02  0.1184000E+00
        -11   -1    0    0    0    0  0.00000000000E+00  0.00000000000E+00  0.45593999997E+02  0.45594000000E+02  0.51100000000E-03 0.  1.
         11   -1    0    0    0    0 -0.00000000000E+00 -0.00000000000E+00 -0.45593999997E+02  0.45594000000E+02  0.51100000000E-03 0. -1.
         23    2    1    2    0    0 -0.71054273576E-14  0.00000000000E+00  0.00000000000E+00  0.91188000000E+02  0.91188000000E+02 0.  0.
    9900012    2    3    3    0    0  0.34317139537E+02  0.10066895549E+02  0.87619635636E+01  0.54367075820E+02  0.39999980947E+02 0.  0.
        -12    1    3    3    0    0 -0.34317139537E+02 -0.10066895549E+02 -0.87619635636E+01  0.36820924180E+02  0.00000000000E+00 0.  1.
         11    1    4    4    0    0  0.44987855715E+01 -0.11227972565E+01  0.22012496989E+01  0.51327620046E+01  0.51100000000E-03 0. -1.
        -11    1    4    4    0    0 -0.75812206024E+01  0.28843267522E+01  0.73057236487E+01  0.10916402563E+02  0.51100000000E-03 0.  1.
        -12    1    4    4    0    0  0.37399574568E+02  0.83053660536E+01 -0.74500978393E+00  0.38317911252E+02  0.00000000000E+00 0.  1.
</event>
<event>
 8    1  0.2558382E-006  0.9118800E+02  0.7816164E-02  0.1184000E+00
        -11   -1    0    0    0    0  0.00000000000E+00  0.00000000000E+00  0.45593999997E+02  0.45594000000E+02  0.51100000000E-03 0. -1.
         11   -1    0    0    0    0 -0.00000000000E+00 -0.00000000000E+00 -0.45593999997E+02  0.45594000000E+02  0.51100000000E-03 0.  1.
         23    2    1    2    0    0 -0.35527136788E-14 -0.17763568394E-14  0.35527136788E-14  0.91188000000E+02  0.91188000000E+02 0.  0.
    9900012    2    3    3    0    0  0.30926581582E+02  0.15869918537E+02 -0.12143818450E+02  0.54367080820E+02  0.39999992345E+02 0.  0.
         12    1    3    3    0    0 -0.30926581582E+02 -0.15869918537E+02  0.12143818450E+02  0.36820919180E+02  0.00000000000E+00 0. -1.
         11    1    4    4    0    0 -0.20203591926E+00  0.39067064480E+01  0.31639921513E+01  0.50313040435E+01  0.51100000000E-03 0. -1.
        -11    1    4    4    0    0  0.32284878135E+02  0.14509147978E+02 -0.16919218352E+01  0.35435735226E+02  0.51100000000E-03 0.  1.
         12    1    4    4    0    0 -0.11562606342E+01 -0.25459358886E+01 -0.13615888767E+02  0.13900041551E+02  0.00000000000E+00 0. -1.
</event>
<event>
 8    1  0.2558382E-006  0.9118800E+02  0.7816164E-02  0.1184000E+00
        -11   -1    0    0    0    0  0.00000000000E+00  0.00000000000E+00  0.45593999997E+02  0.45594000000E+02  0.51100000000E-03 0. -1.
         11   -1    0    0    0    0 -0.00000000000E+00 -0.00000000000E+00 -0.45593999997E+02  0.45594000000E+02  0.51100000000E-03 0.  1.
         23    2    1    2    0    0  0.00000000000E+00  0.00000000000E+00  0.88817841970E-15  0.91188000000E+02  0.91188000000E+02 0.  0.
    9900012    2    3    3    0    0  0.61872245822E+01  0.36296485751E+02  0.25183187146E+00  0.54367081418E+02  0.39999993709E+02 0.  0.
         12    1    3    3    0    0 -0.61872245822E+01 -0.36296485751E+02 -0.25183187146E+00  0.36820918582E+02  0.00000000000E+00 0. -1.
         11    1    4    4    0    0  0.13698128889E+02  0.19945584258E+02 -0.53680940011E+01  0.24784702941E+02  0.51100000000E-03 0. -1.
        -11    1    4    4    0    0 -0.79668108705E+01  0.13699273766E+02 -0.65285798737E+01  0.17139502110E+02  0.51100000000E-03 0.  1.
         12    1    4    4    0    0  0.45590656385E+00  0.26516277280E+01  0.12148505746E+02  0.12442876366E+02  0.00000000000E+00 0. -1.
</event>
<event>
 8    1  0.2558382E-006  0.9118800E+02  0.7816164E-02  0.1184000E+00
        -11   -1    0    0    0    0  0.00000000000E+00  0.00000000000E+00  0.45593999997E+02  0.45594000000E+02  0.51100000000E-03 0.  1.
         11   -1    0    0    0    0 -0.00000000000E+00 -0.00000000000E+00 -0.45593999997E+02  0.45594000000E+02  0.51100000000E-03 0. -1.
         23    2    1    2    0    0  0.00000000000E+00  0.00000000000E+00  0.00000000000E+00  0.91188000000E+02  0.91188000000E+02 0.  0.
    9900012    2    3    3    0    0 -0.44609975287E+01  0.27427564841E+02 -0.24158213796E+02  0.54366931224E+02  0.39999651309E+02 0.  0.
        -12    1    3    3    0    0  0.44609975287E+01 -0.27427564841E+02  0.24158213796E+02  0.36821068776E+02  0.00000000000E+00 0.  1.
         11    1    4    4    0    0 -0.85877565212E+01  0.27093283476E+02 -0.21123949457E+02  0.35412099804E+02  0.51100000000E-03 0. -1.
        -11    1    4    4    0    0  0.11126139944E+02 -0.13275096921E+01 -0.15511480900E+00  0.11206129256E+02  0.51100000000E-03 0.  1.
         12    1    4    4    0    0 -0.69993809511E+01  0.16617910566E+01 -0.28791495300E+01  0.77487021643E+01  0.00000000000E+00 0. -1.
</event>
<event>
 8    1  0.2558382E-006  0.9118800E+02  0.7816164E-02  0.1184000E+00
        -11   -1    0    0    0    0  0.00000000000E+00  0.00000000000E+00  0.45593999997E+02  0.45594000000E+02  0.51100000000E-03 0.  1.
         11   -1    0    0    0    0 -0.00000000000E+00 -0.00000000000E+00 -0.45593999997E+02  0.45594000000E+02  0.51100000000E-03 0. -1.
         23    2    1    2    0    0  0.00000000000E+00 -0.88817841970E-15  0.35527136788E-14  0.91188000000E+02  0.91188000000E+02 0.  0.
    9900012    2    3    3    0    0  0.24746193120E+02  0.42529867847E+01  0.26931724257E+02  0.54367085535E+02  0.40000003095E+02 0.  0.
         12    1    3    3    0    0 -0.24746193120E+02 -0.42529867847E+01 -0.26931724257E+02  0.36820914465E+02  0.00000000000E+00 0. -1.
         11    1    4    4    0    0  0.62318215014E+01  0.16398969437E+02  0.12888703271E+02  0.21768795788E+02  0.51100000000E-03 0. -1.
        -11    1    4    4    0    0 -0.32785133658E+01 -0.17724395202E+01  0.61746396907E+01  0.72122373306E+01  0.51100000000E-03 0.  1.
        -12    1    4    4    0    0  0.21792884985E+02 -0.10373543132E+02  0.78683812960E+01  0.25386052416E+02  0.00000000000E+00 0.  1.
</event>
<event>
 8    1  0.2558382E-006  0.9118800E+02  0.7816164E-02  0.1184000E+00
        -11   -1    0    0    0    0  0.00000000000E+00  0.00000000000E+00  0.45593999997E+02  0.45594000000E+02  0.51100000000E-03 0.  1.
         11   -1    0    0    0    0 -0.00000000000E+00 -0.00000000000E+00 -0.45593999997E+02  0.45594000000E+02  0.51100000000E-03 0. -1.
         23    2    1    2    0    0 -0.35527136788E-14 -0.14432899320E-14  0.00000000000E+00  0.91188000000E+02  0.91188000000E+02 0.  0.
    9900012    2    3    3    0    0 -0.23132464618E+02  0.23872847179E+00 -0.28646365278E+02  0.54367052779E+02  0.39999928420E+02 0.  0.
        -12    1    3    3    0    0  0.23132464618E+02 -0.23872847179E+00  0.28646365278E+02  0.36820947221E+02  0.00000000000E+00 0.  1.
         11    1    4    4    0    0 -0.91006601340E+01  0.18176694533E+02 -0.16586011836E+02  0.26235663283E+02  0.51100000000E-03 0.  1.
        -11    1    4    4    0    0 -0.12666675810E+01 -0.99744310017E+01 -0.70253275200E+01  0.12265763229E+02  0.51100000000E-03 0. -1.
         12    1    4    4    0    0 -0.12765136903E+02 -0.79635350596E+01 -0.50350259222E+01  0.15865626267E+02  0.00000000000E+00 0. -1.
</event>
<event>
 8    1  0.2558382E-006  0.9118800E+02  0.7816164E-02  0.1184000E+00
        -11   -1    0    0    0    0  0.00000000000E+00  0.00000000000E+00  0.45593999997E+02  0.45594000000E+02  0.51100000000E-03 0. -1.
         11   -1    0    0    0    0 -0.00000000000E+00 -0.00000000000E+00 -0.45593999997E+02  0.45594000000E+02  0.51100000000E-03 0.  1.
         23    2    1    2    0    0  0.00000000000E+00 -0.35527136788E-14 -0.35527136788E-14  0.91188000000E+02  0.91188000000E+02 0.  0.
    9900012    2    3    3    0    0 -0.16408622146E+02  0.26263463627E+02 -0.19919022503E+02  0.54367083935E+02  0.39999999447E+02 0.  0.
         12    1    3    3    0    0  0.16408622146E+02 -0.26263463627E+02  0.19919022503E+02  0.36820916065E+02  0.00000000000E+00 0. -1.
         11    1    4    4    0    0 -0.91857695118E+01  0.17389070593E+02 -0.27057506628E+02  0.33449466405E+02  0.51100000000E-03 0. -1.
        -11    1    4    4    0    0 -0.68919415346E+01  0.26134852812E+01 -0.38128222755E+01  0.82986009301E+01  0.51100000000E-03 0.  1.
         12    1    4    4    0    0 -0.33091109938E+00  0.62609077530E+01  0.10951306401E+02  0.12619016600E+02  0.00000000000E+00 0. -1.
</event>
<event>
 8    1  0.2558382E-006  0.9118800E+02  0.7816164E-02  0.1184000E+00
        -11   -1    0    0    0    0  0.00000000000E+00  0.00000000000E+00  0.45593999997E+02  0.45594000000E+02  0.51100000000E-03 0. -1.
         11   -1    0    0    0    0 -0.00000000000E+00 -0.00000000000E+00 -0.45593999997E+02  0.45594000000E+02  0.51100000000E-03 0.  1.
         23    2    1    2    0    0  0.00000000000E+00  0.13322676296E-14  0.00000000000E+00  0.91188000000E+02  0.91188000000E+02 0.  0.
    9900012    2    3    3    0    0  0.11933696923E+02  0.24380163326E+01 -0.34748098530E+02  0.54366981582E+02  0.39999766112E+02 0.  0.
         12    1    3    3    0    0 -0.11933696923E+02 -0.24380163326E+01  0.34748098530E+02  0.36821018418E+02  0.00000000000E+00 0. -1.
         11    1    4    4    0    0  0.10138818330E+02 -0.11485277746E+02 -0.47428746730E+01  0.16037521706E+02  0.51100000000E-03 0. -1.
        -11    1    4    4    0    0  0.38964287436E+01 -0.41209455365E+01 -0.66150357948E+01  0.87133832635E+01  0.51100000000E-03 0.  1.
         12    1    4    4    0    0 -0.21015501512E+01  0.18044239615E+02 -0.23390188062E+02  0.29616076613E+02  0.00000000000E+00 0. -1.
</event>
<event>
 8    1  0.2558382E-006  0.9118800E+02  0.7816164E-02  0.1184000E+00
        -11   -1    0    0    0    0  0.00000000000E+00  0.00000000000E+00  0.45593999997E+02  0.45594000000E+02  0.51100000000E-03 0.  1.
         11   -1    0    0    0    0 -0.00000000000E+00 -0.00000000000E+00 -0.45593999997E+02  0.45594000000E+02  0.51100000000E-03 0. -1.
         23    2    1    2    0    0 -0.35527136788E-14  0.00000000000E+00  0.35527136788E-14  0.91188000000E+02  0.91188000000E+02 0.  0.
    9900012    2    3    3    0    0 -0.28789373153E+02 -0.11358186425E+02  0.19948484140E+02  0.54367103421E+02  0.40000043868E+02 0.  0.
        -12    1    3    3    0    0  0.28789373153E+02  0.11358186425E+02 -0.19948484140E+02  0.36820896579E+02  0.00000000000E+00 0.  1.
         11    1    4    4    0    0 -0.17169647773E+02 -0.65856355819E+01  0.23434418549E+02  0.29788242205E+02  0.51100000000E-03 0.  1.
        -11    1    4    4    0    0  0.68744765793E-01 -0.16036188815E-01 -0.10257394822E+02  0.10257637730E+02  0.51100000000E-03 0. -1.
         12    1    4    4    0    0 -0.11688470146E+02 -0.47565146544E+01  0.67714604136E+01  0.14321223486E+02  0.00000000000E+00 0. -1.
</event>
<event>
 8    1  0.2558382E-006  0.9118800E+02  0.7816164E-02  0.1184000E+00
        -11   -1    0    0    0    0  0.00000000000E+00  0.00000000000E+00  0.45593999997E+02  0.45594000000E+02  0.51100000000E-03 0.  1.
         11   -1    0    0    0    0 -0.00000000000E+00 -0.00000000000E+00 -0.45593999997E+02  0.45594000000E+02  0.51100000000E-03 0. -1.
         23    2    1    2    0    0 -0.22204460493E-15 -0.17763568394E-14  0.00000000000E+00  0.91188000000E+02  0.91188000000E+02 0.  0.
    9900012    2    3    3    0    0  0.18177800551E+01 -0.84356477410E+01  0.35795474162E+02  0.54367075954E+02  0.39999981252E+02 0.  0.
         12    1    3    3    0    0 -0.18177800551E+01  0.84356477410E+01 -0.35795474162E+02  0.36820924046E+02  0.00000000000E+00 0. -1.
         11    1    4    4    0    0 -0.13640788082E+00 -0.12186887539E+02  0.37400234808E+02  0.39335942838E+02  0.51100000000E-03 0. -1.
        -11    1    4    4    0    0  0.61272873272E+01  0.29570058125E+00  0.39304338102E+01  0.72855609957E+01  0.51100000000E-03 0.  1.
         12    1    4    4    0    0 -0.41730993913E+01  0.34555392168E+01 -0.55351944558E+01  0.77455721204E+01  0.00000000000E+00 0. -1.
</event>
<event>
 8    1  0.2558382E-006  0.9118800E+02  0.7816164E-02  0.1184000E+00
        -11   -1    0    0    0    0  0.00000000000E+00  0.00000000000E+00  0.45593999997E+02  0.45594000000E+02  0.51100000000E-03 0.  1.
         11   -1    0    0    0    0 -0.00000000000E+00 -0.00000000000E+00 -0.45593999997E+02  0.45594000000E+02  0.51100000000E-03 0. -1.
         23    2    1    2    0    0  0.00000000000E+00 -0.35527136788E-14  0.17763568394E-14  0.91188000000E+02  0.91188000000E+02 0.  0.
    9900012    2    3    3    0    0  0.19630585754E+02 -0.27262727496E+02  0.15071920692E+02  0.54367095598E+02  0.40000026036E+02 0.  0.
         12    1    3    3    0    0 -0.19630585754E+02  0.27262727496E+02 -0.15071920692E+02  0.36820904402E+02  0.00000000000E+00 0. -1.
         11    1    4    4    0    0  0.19466238960E+02 -0.22284834438E+01  0.21166779510E+01  0.19707382463E+02  0.51100000000E-03 0. -1.
        -11    1    4    4    0    0  0.30751867986E+01 -0.82689578242E+01  0.15120848625E+02  0.17506356010E+02  0.51100000000E-03 0.  1.
        -12    1    4    4    0    0 -0.29108400051E+01 -0.16765286228E+02 -0.21656058833E+01  0.17153357126E+02  0.00000000000E+00 0.  1.
</event>
<event>
 8    1  0.2558382E-006  0.9118800E+02  0.7816164E-02  0.1184000E+00
        -11   -1    0    0    0    0  0.00000000000E+00  0.00000000000E+00  0.45593999997E+02  0.45594000000E+02  0.51100000000E-03 0.  1.
         11   -1    0    0    0    0 -0.00000000000E+00 -0.00000000000E+00 -0.45593999997E+02  0.45594000000E+02  0.51100000000E-03 0. -1.
         23    2    1    2    0    0  0.17763568394E-14 -0.88817841970E-15  0.00000000000E+00  0.91188000000E+02  0.91188000000E+02 0.  0.
    9900012    2    3    3    0    0  0.14761143401E+02 -0.79746475377E+01  0.32776401888E+02  0.54367097260E+02  0.40000029824E+02 0.  0.
        -12    1    3    3    0    0 -0.14761143401E+02  0.79746475377E+01 -0.32776401888E+02  0.36820902740E+02  0.00000000000E+00 0.  1.
         11    1    4    4    0    0 -0.27260913873E+01 -0.91923937757E+01 -0.26937476290E+01  0.99593149428E+01  0.51100000000E-03 0. -1.
        -11    1    4    4    0    0 -0.21004564869E+01  0.50953446084E+01  0.29619272919E+01  0.62567937217E+01  0.51100000000E-03 0.  1.
         12    1    4    4    0    0  0.19587691275E+02 -0.38775983704E+01  0.32508222225E+02  0.38150988596E+02  0.00000000000E+00 0. -1.
</event>
<event>
 8    1  0.2558382E-006  0.9118800E+02  0.7816164E-02  0.1184000E+00
        -11   -1    0    0    0    0  0.00000000000E+00  0.00000000000E+00  0.45593999997E+02  0.45594000000E+02  0.51100000000E-03 0.  1.
         11   -1    0    0    0    0 -0.00000000000E+00 -0.00000000000E+00 -0.45593999997E+02  0.45594000000E+02  0.51100000000E-03 0. -1.
         23    2    1    2    0    0  0.26645352591E-14  0.00000000000E+00  0.00000000000E+00  0.91188000000E+02  0.91188000000E+02 0.  0.
    9900012    2    3    3    0    0 -0.74425125783E+01 -0.51319641542E+01  0.35693866548E+02  0.54367079877E+02  0.39999990195E+02 0.  0.
         12    1    3    3    0    0  0.74425125783E+01  0.51319641542E+01 -0.35693866548E+02  0.36820920123E+02  0.00000000000E+00 0. -1.
         11    1    4    4    0    0  0.31189594560E+01 -0.20316450951E+01 -0.32155215933E+01  0.49188483671E+01  0.51100000000E-03 0. -1.
        -11    1    4    4    0    0  0.57877598532E+01 -0.10988562750E+01 -0.12675811242E+01  0.60259780450E+01  0.51100000000E-03 0.  1.
        -12    1    4    4    0    0 -0.16349231887E+02 -0.20014627841E+01  0.40176969266E+02  0.43422253465E+02  0.00000000000E+00 0.  1.
</event>
<event>
 8    1  0.2558382E-006  0.9118800E+02  0.7816164E-02  0.1184000E+00
        -11   -1    0    0    0    0  0.00000000000E+00  0.00000000000E+00  0.45593999997E+02  0.45594000000E+02  0.51100000000E-03 0. -1.
         11   -1    0    0    0    0 -0.00000000000E+00 -0.00000000000E+00 -0.45593999997E+02  0.45594000000E+02  0.51100000000E-03 0.  1.
         23    2    1    2    0    0  0.00000000000E+00  0.00000000000E+00  0.00000000000E+00  0.91188000000E+02  0.91188000000E+02 0.  0.
    9900012    2    3    3    0    0  0.40089297035E+01  0.31792944510E+02  0.18136088326E+02  0.54367074730E+02  0.39999978463E+02 0.  0.
         12    1    3    3    0    0 -0.40089297035E+01 -0.31792944510E+02 -0.18136088326E+02  0.36820925270E+02  0.00000000000E+00 0. -1.
         11    1    4    4    0    0 -0.81036070598E+01 -0.37943731858E+01  0.60123161348E+01  0.10780244006E+02  0.51100000000E-03 0. -1.
        -11    1    4    4    0    0  0.42461741887E+01  0.20264385913E+02 -0.26772760468E+01  0.20876856539E+02  0.51100000000E-03 0.  1.
        -12    1    4    4    0    0  0.78663625746E+01  0.15322931782E+02  0.14801048238E+02  0.22709974185E+02  0.00000000000E+00 0.  1.
</event>
<event>
 8    1  0.2558382E-006  0.9118800E+02  0.7816164E-02  0.1184000E+00
        -11   -1    0    0    0    0  0.00000000000E+00  0.00000000000E+00  0.45593999997E+02  0.45594000000E+02  0.51100000000E-03 0. -1.
         11   -1    0    0    0    0 -0.00000000000E+00 -0.00000000000E+00 -0.45593999997E+02  0.45594000000E+02  0.51100000000E-03 0.  1.
         23    2    1    2    0    0  0.00000000000E+00  0.00000000000E+00  0.00000000000E+00  0.91188000000E+02  0.91188000000E+02 0.  0.
    9900012    2    3    3    0    0 -0.73715810808E+01 -0.18948789555E+02 -0.30698286373E+02  0.54367060041E+02  0.39999944975E+02 0.  0.
         12    1    3    3    0    0  0.73715810808E+01  0.18948789555E+02  0.30698286373E+02  0.36820939959E+02  0.00000000000E+00 0. -1.
         11    1    4    4    0    0  0.19803369899E+01  0.95590692842E+01 -0.53558223720E-01  0.97621928335E+01  0.51100000000E-03 0. -1.
        -11    1    4    4    0    0 -0.11313527953E+02 -0.15149430181E+02 -0.17636625519E+02  0.25856366905E+02  0.51100000000E-03 0.  1.
         12    1    4    4    0    0  0.19616098826E+01 -0.13358428658E+02 -0.13008102631E+02  0.18748500303E+02  0.00000000000E+00 0. -1.
</event>
<event>
 8    1  0.2558382E-006  0.9118800E+02  0.7816164E-02  0.1184000E+00
        -11   -1    0    0    0    0  0.00000000000E+00  0.00000000000E+00  0.45593999997E+02  0.45594000000E+02  0.51100000000E-03 0.  1.
         11   -1    0    0    0    0 -0.00000000000E+00 -0.00000000000E+00 -0.45593999997E+02  0.45594000000E+02  0.51100000000E-03 0. -1.
         23    2    1    2    0    0  0.17763568394E-14  0.00000000000E+00  0.00000000000E+00  0.91188000000E+02  0.91188000000E+02 0.  0.
    9900012    2    3    3    0    0 -0.51515792499E+01  0.12442744774E+02  0.34269798202E+02  0.54367085629E+02  0.40000003308E+02 0.  0.
         12    1    3    3    0    0  0.51515792499E+01 -0.12442744774E+02 -0.34269798202E+02  0.36820914371E+02  0.00000000000E+00 0. -1.
         11    1    4    4    0    0  0.11351376585E+02 -0.34468604709E+01  0.78979245824E+01  0.14251730086E+02  0.51100000000E-03 0. -1.
        -11    1    4    4    0    0 -0.55958265598E-01 -0.31641538309E+00  0.13840423720E+02  0.13844153244E+02  0.51100000000E-03 0.  1.
        -12    1    4    4    0    0 -0.16446997569E+02  0.16206020628E+02  0.12531449900E+02  0.26271202299E+02  0.00000000000E+00 0.  1.
</event>
<event>
 8    1  0.2558382E-006  0.9118800E+02  0.7816164E-02  0.1184000E+00
        -11   -1    0    0    0    0  0.00000000000E+00  0.00000000000E+00  0.45593999997E+02  0.45594000000E+02  0.51100000000E-03 0.  1.
         11   -1    0    0    0    0 -0.00000000000E+00 -0.00000000000E+00 -0.45593999997E+02  0.45594000000E+02  0.51100000000E-03 0. -1.
         23    2    1    2    0    0 -0.17763568394E-14  0.17763568394E-14 -0.35527136788E-14  0.91188000000E+02  0.91188000000E+02 0.  0.
    9900012    2    3    3    0    0  0.13273501700E+02 -0.12983718863E+02  0.31796493735E+02  0.54367084521E+02  0.40000000782E+02 0.  0.
         12    1    3    3    0    0 -0.13273501700E+02  0.12983718863E+02 -0.31796493735E+02  0.36820915479E+02  0.00000000000E+00 0. -1.
         11    1    4    4    0    0  0.17021739683E+02 -0.40746456510E+01  0.22612760159E+02  0.28595091909E+02  0.51100000000E-03 0. -1.
        -11    1    4    4    0    0 -0.79497230958E+00  0.10444655280E+01  0.14186527831E+02  0.14247121161E+02  0.51100000000E-03 0.  1.
         12    1    4    4    0    0 -0.29532656729E+01 -0.99535387402E+01 -0.50027942556E+01  0.11524871451E+02  0.00000000000E+00 0. -1.
</event>
<event>
 8    1  0.2558382E-006  0.9118800E+02  0.7816164E-02  0.1184000E+00
        -11   -1    0    0    0    0  0.00000000000E+00  0.00000000000E+00  0.45593999997E+02  0.45594000000E+02  0.51100000000E-03 0. -1.
         11   -1    0    0    0    0 -0.00000000000E+00 -0.00000000000E+00 -0.45593999997E+02  0.45594000000E+02  0.51100000000E-03 0.  1.
         23    2    1    2    0    0  0.00000000000E+00 -0.66613381478E-15  0.14210854715E-13  0.91188000000E+02  0.91188000000E+02 0.  0.
    9900012    2    3    3    0    0  0.12820888948E+02 -0.10222259152E+01  0.34501596195E+02  0.54367078240E+02  0.39999986463E+02 0.  0.
        -12    1    3    3    0    0 -0.12820888948E+02  0.10222259152E+01 -0.34501596195E+02  0.36820921760E+02  0.00000000000E+00 0.  1.
         11    1    4    4    0    0  0.81104201258E+01 -0.37558512654E+01  0.25546780290E+02  0.27065167962E+02  0.51100000000E-03 0. -1.
        -11    1    4    4    0    0 -0.20021607259E+01 -0.10462274335E+02  0.59281205969E+01  0.12190588415E+02  0.51100000000E-03 0.  1.
        -12    1    4    4    0    0  0.67126295487E+01  0.13195899685E+02  0.30266953081E+01  0.15111321863E+02  0.00000000000E+00 0.  1.
</event>
<event>
 8    1  0.2558382E-006  0.9118800E+02  0.7816164E-02  0.1184000E+00
        -11   -1    0    0    0    0  0.00000000000E+00  0.00000000000E+00  0.45593999997E+02  0.45594000000E+02  0.51100000000E-03 0. -1.
         11   -1    0    0    0    0 -0.00000000000E+00 -0.00000000000E+00 -0.45593999997E+02  0.45594000000E+02  0.51100000000E-03 0.  1.
         23    2    1    2    0    0  0.00000000000E+00  0.35527136788E-14  0.00000000000E+00  0.91188000000E+02  0.91188000000E+02 0.  0.
    9900012    2    3    3    0    0  0.16004910611E+02 -0.26620559132E+02 -0.19772941140E+02  0.54367074788E+02  0.39999978594E+02 0.  0.
         12    1    3    3    0    0 -0.16004910611E+02  0.26620559132E+02  0.19772941140E+02  0.36820925212E+02  0.00000000000E+00 0. -1.
         11    1    4    4    0    0  0.26343240199E+01 -0.18760616390E+02 -0.29221852522E+01  0.19168712979E+02  0.51100000000E-03 0. -1.
        -11    1    4    4    0    0 -0.36494990337E+01 -0.73528002335E+01 -0.16196808426E+02  0.18158169454E+02  0.51100000000E-03 0.  1.
         12    1    4    4    0    0  0.17020085625E+02 -0.50714250834E+00 -0.65394746198E+00  0.17040192355E+02  0.00000000000E+00 0. -1.
</event>
<event>
 8    1  0.2558382E-006  0.9118800E+02  0.7816164E-02  0.1184000E+00
        -11   -1    0    0    0    0  0.00000000000E+00  0.00000000000E+00  0.45593999997E+02  0.45594000000E+02  0.51100000000E-03 0.  1.
         11   -1    0    0    0    0 -0.00000000000E+00 -0.00000000000E+00 -0.45593999997E+02  0.45594000000E+02  0.51100000000E-03 0. -1.
         23    2    1    2    0    0 -0.88817841970E-15 -0.35527136788E-14  0.35527136788E-14  0.91188000000E+02  0.91188000000E+02 0.  0.
    9900012    2    3    3    0    0  0.54076416387E+01  0.24219937743E+02 -0.27201688162E+02  0.54367084595E+02  0.40000000952E+02 0.  0.
        -12    1    3    3    0    0 -0.54076416387E+01 -0.24219937743E+02  0.27201688162E+02  0.36820915405E+02  0.00000000000E+00 0.  1.
         11    1    4    4    0    0  0.98724074132E+00  0.18659092293E+02  0.18603603110E+01  0.18777574664E+02  0.51100000000E-03 0. -1.
        -11    1    4    4    0    0  0.50890143641E+01 -0.66155142799E+01 -0.12037367585E+02  0.14647911627E+02  0.51100000000E-03 0.  1.
         12    1    4    4    0    0 -0.66861346673E+00  0.12176359729E+02 -0.17024680889E+02  0.20941598305E+02  0.00000000000E+00 0. -1.
</event>
<event>
 8    1  0.2558382E-006  0.9118800E+02  0.7816164E-02  0.1184000E+00
        -11   -1    0    0    0    0  0.00000000000E+00  0.00000000000E+00  0.45593999997E+02  0.45594000000E+02  0.51100000000E-03 0. -1.
         11   -1    0    0    0    0 -0.00000000000E+00 -0.00000000000E+00 -0.45593999997E+02  0.45594000000E+02  0.51100000000E-03 0.  1.
         23    2    1    2    0    0  0.16653345369E-14 -0.44408920985E-15  0.00000000000E+00  0.91188000000E+02  0.91188000000E+02 0.  0.
    9900012    2    3    3    0    0 -0.73925975573E+00 -0.19077662720E+01 -0.36764025297E+02  0.54367087013E+02  0.40000006464E+02 0.  0.
         12    1    3    3    0    0  0.73925975573E+00  0.19077662720E+01  0.36764025297E+02  0.36820912987E+02  0.00000000000E+00 0. -1.
         11    1    4    4    0    0 -0.16306147394E+02 -0.23823340424E+01 -0.11586047428E+02  0.20144539051E+02  0.51100000000E-03 0. -1.
        -11    1    4    4    0    0  0.16281489169E+01  0.28661707616E+01  0.18048694116E+01  0.37581055845E+01  0.51100000000E-03 0.  1.
        -12    1    4    4    0    0  0.13938738721E+02 -0.23916029912E+01 -0.26982847281E+02  0.30464442378E+02  0.00000000000E+00 0.  1.
</event>
<event>
 8    1  0.2558382E-006  0.9118800E+02  0.7816164E-02  0.1184000E+00
        -11   -1    0    0    0    0  0.00000000000E+00  0.00000000000E+00  0.45593999997E+02  0.45594000000E+02  0.51100000000E-03 0.  1.
         11   -1    0    0    0    0 -0.00000000000E+00 -0.00000000000E+00 -0.45593999997E+02  0.45594000000E+02  0.51100000000E-03 0. -1.
         23    2    1    2    0    0  0.88817841970E-15  0.71054273576E-14  0.00000000000E+00  0.91188000000E+02  0.91188000000E+02 0.  0.
    9900012    2    3    3    0    0 -0.70207318490E+01  0.33731515910E+02  0.12987450697E+02  0.54367085877E+02  0.40000003873E+02 0.  0.
        -12    1    3    3    0    0  0.70207318490E+01 -0.33731515910E+02 -0.12987450697E+02  0.36820914123E+02  0.00000000000E+00 0.  1.
         11    1    4    4    0    0 -0.54935509167E+01 -0.74230068216E+00 -0.12459054245E+01  0.56817596363E+01  0.51100000000E-03 0. -1.
        -11    1    4    4    0    0 -0.12183765477E+02  0.96397873868E+01  0.15075765868E+02  0.21648287666E+02  0.51100000000E-03 0.  1.
         12    1    4    4    0    0  0.10656584545E+02  0.24834029205E+02 -0.84240974660E+00  0.27037038575E+02  0.00000000000E+00 0. -1.
</event>
<event>
 8    1  0.2558382E-006  0.9118800E+02  0.7816164E-02  0.1184000E+00
        -11   -1    0    0    0    0  0.00000000000E+00  0.00000000000E+00  0.45593999997E+02  0.45594000000E+02  0.51100000000E-03 0.  1.
         11   -1    0    0    0    0 -0.00000000000E+00 -0.00000000000E+00 -0.45593999997E+02  0.45594000000E+02  0.51100000000E-03 0. -1.
         23    2    1    2    0    0  0.71054273576E-14  0.17763568394E-14 -0.71054273576E-14  0.91188000000E+02  0.91188000000E+02 0.  0.
    9900012    2    3    3    0    0  0.23373793747E+02  0.10524774856E+02 -0.26432424092E+02  0.54367106973E+02  0.40000051967E+02 0.  0.
        -12    1    3    3    0    0 -0.23373793747E+02 -0.10524774856E+02  0.26432424092E+02  0.36820893027E+02  0.00000000000E+00 0.  1.
         11    1    4    4    0    0  0.40534931184E+01 -0.46225007000E+01  0.66973261513E+01  0.90913418713E+01  0.51100000000E-03 0. -1.
        -11    1    4    4    0    0  0.20720996146E+00 -0.38806274979E+01 -0.39454400245E+01  0.55379330976E+01  0.51100000000E-03 0.  1.
        -12    1    4    4    0    0  0.19113090667E+02  0.19027903054E+02 -0.29184310219E+02  0.39737832005E+02  0.00000000000E+00 0.  1.
</event>
<event>
 8    1  0.2558382E-006  0.9118800E+02  0.7816164E-02  0.1184000E+00
        -11   -1    0    0    0    0  0.00000000000E+00  0.00000000000E+00  0.45593999997E+02  0.45594000000E+02  0.51100000000E-03 0.  1.
         11   -1    0    0    0    0 -0.00000000000E+00 -0.00000000000E+00 -0.45593999997E+02  0.45594000000E+02  0.51100000000E-03 0. -1.
         23    2    1    2    0    0  0.35527136788E-14  0.00000000000E+00  0.71054273576E-14  0.91188000000E+02  0.91188000000E+02 0.  0.
    9900012    2    3    3    0    0 -0.16811218419E+02  0.19093636832E+02  0.26619468238E+02  0.54367080382E+02  0.39999991348E+02 0.  0.
         12    1    3    3    0    0  0.16811218419E+02 -0.19093636832E+02 -0.26619468238E+02  0.36820919618E+02  0.00000000000E+00 0. -1.
         11    1    4    4    0    0 -0.72658260860E+01  0.14031839403E+02 -0.27054849642E+01  0.16031356614E+02  0.51100000000E-03 0. -1.
        -11    1    4    4    0    0  0.44001972365E+01 -0.47701065967E+01  0.34732926589E+01  0.73606667375E+01  0.51100000000E-03 0.  1.
        -12    1    4    4    0    0 -0.13945589570E+02  0.98319040261E+01  0.25851660543E+02  0.30975057031E+02  0.00000000000E+00 0.  1.
</event>
<event>
 8    1  0.2558382E-006  0.9118800E+02  0.7816164E-02  0.1184000E+00
        -11   -1    0    0    0    0  0.00000000000E+00  0.00000000000E+00  0.45593999997E+02  0.45594000000E+02  0.51100000000E-03 0. -1.
         11   -1    0    0    0    0 -0.00000000000E+00 -0.00000000000E+00 -0.45593999997E+02  0.45594000000E+02  0.51100000000E-03 0.  1.
         23    2    1    2    0    0 -0.35527136788E-14  0.00000000000E+00  0.00000000000E+00  0.91188000000E+02  0.91188000000E+02 0.  0.
    9900012    2    3    3    0    0 -0.21175269426E+02 -0.17669167519E+02 -0.24396469934E+02  0.54367092063E+02  0.40000017975E+02 0.  0.
         12    1    3    3    0    0  0.21175269426E+02  0.17669167519E+02  0.24396469934E+02  0.36820907937E+02  0.00000000000E+00 0. -1.
         11    1    4    4    0    0  0.89375311565E+00 -0.15553715524E+02  0.23187204021E+01  0.15750978566E+02  0.51100000000E-03 0. -1.
        -11    1    4    4    0    0  0.21325214244E+01  0.51898815307E+00  0.33953962177E+00  0.22208745449E+01  0.51100000000E-03 0.  1.
        -12    1    4    4    0    0 -0.24201543966E+02 -0.26344401480E+01 -0.27054729958E+02  0.36395238952E+02  0.00000000000E+00 0.  1.
</event>
<event>
 8    1  0.2558382E-006  0.9118800E+02  0.7816164E-02  0.1184000E+00
        -11   -1    0    0    0    0  0.00000000000E+00  0.00000000000E+00  0.45593999997E+02  0.45594000000E+02  0.51100000000E-03 0.  1.
         11   -1    0    0    0    0 -0.00000000000E+00 -0.00000000000E+00 -0.45593999997E+02  0.45594000000E+02  0.51100000000E-03 0. -1.
         23    2    1    2    0    0  0.00000000000E+00  0.00000000000E+00  0.00000000000E+00  0.91188000000E+02  0.91188000000E+02 0.  0.
    9900012    2    3    3    0    0 -0.27337232206E+02 -0.16582541400E+02  0.18261321363E+02  0.54367071143E+02  0.39999970284E+02 0.  0.
         12    1    3    3    0    0  0.27337232206E+02  0.16582541400E+02 -0.18261321363E+02  0.36820928857E+02  0.00000000000E+00 0. -1.
         11    1    4    4    0    0 -0.25038104709E+02 -0.14971782927E+02  0.15822865158E+02  0.33187709073E+02  0.51100000000E-03 0. -1.
        -11    1    4    4    0    0  0.28331072442E+01  0.34425322030E+01  0.98700175654E+01  0.10830271078E+02  0.51100000000E-03 0.  1.
         12    1    4    4    0    0 -0.51322347411E+01 -0.50532906762E+01 -0.74315613604E+01  0.10349090991E+02  0.00000000000E+00 0. -1.
</event>
<event>
 8    1  0.2558382E-006  0.9118800E+02  0.7816164E-02  0.1184000E+00
        -11   -1    0    0    0    0  0.00000000000E+00  0.00000000000E+00  0.45593999997E+02  0.45594000000E+02  0.51100000000E-03 0.  1.
         11   -1    0    0    0    0 -0.00000000000E+00 -0.00000000000E+00 -0.45593999997E+02  0.45594000000E+02  0.51100000000E-03 0. -1.
         23    2    1    2    0    0  0.00000000000E+00 -0.35527136788E-14  0.00000000000E+00  0.91188000000E+02  0.91188000000E+02 0.  0.
    9900012    2    3    3    0    0  0.23259310503E+02 -0.26866715270E+02 -0.96419452626E+01  0.54367040984E+02  0.39999901530E+02 0.  0.
        -12    1    3    3    0    0 -0.23259310503E+02  0.26866715270E+02  0.96419452626E+01  0.36820959016E+02  0.00000000000E+00 0.  1.
         11    1    4    4    0    0  0.17431946434E+02 -0.24368217484E+02  0.54623334603E+01  0.30455210834E+02  0.51100000000E-03 0. -1.
        -11    1    4    4    0    0  0.46424663158E+01 -0.98505457437E+01 -0.72150516593E+01  0.13063028579E+02  0.51100000000E-03 0.  1.
        -12    1    4    4    0    0  0.11848977533E+01  0.73520479584E+01 -0.78892270636E+01  0.10848801571E+02  0.00000000000E+00 0.  1.
</event>
<event>
 8    1  0.2558382E-006  0.9118800E+02  0.7816164E-02  0.1184000E+00
        -11   -1    0    0    0    0  0.00000000000E+00  0.00000000000E+00  0.45593999997E+02  0.45594000000E+02  0.51100000000E-03 0. -1.
         11   -1    0    0    0    0 -0.00000000000E+00 -0.00000000000E+00 -0.45593999997E+02  0.45594000000E+02  0.51100000000E-03 0.  1.
         23    2    1    2    0    0  0.17763568394E-14  0.00000000000E+00 -0.71054273576E-14  0.91188000000E+02  0.91188000000E+02 0.  0.
    9900012    2    3    3    0    0 -0.72058715167E+01 -0.29550705076E+01  0.35987815431E+02  0.54367083587E+02  0.39999998653E+02 0.  0.
        -12    1    3    3    0    0  0.72058715167E+01  0.29550705076E+01 -0.35987815431E+02  0.36820916413E+02  0.00000000000E+00 0.  1.
         11    1    4    4    0    0 -0.72480191598E+01  0.28220430154E+01  0.23751804897E+02  0.24992917890E+02  0.51100000000E-03 0. -1.
        -11    1    4    4    0    0  0.33919222737E+01  0.33509672074E+00  0.19212529302E+02  0.19512526976E+02  0.51100000000E-03 0.  1.
        -12    1    4    4    0    0 -0.33497746306E+01 -0.61122102438E+01 -0.69765187685E+01  0.98616387212E+01  0.00000000000E+00 0.  1.
</event>
<event>
 8    1  0.2558382E-006  0.9118800E+02  0.7816164E-02  0.1184000E+00
        -11   -1    0    0    0    0  0.00000000000E+00  0.00000000000E+00  0.45593999997E+02  0.45594000000E+02  0.51100000000E-03 0.  1.
         11   -1    0    0    0    0 -0.00000000000E+00 -0.00000000000E+00 -0.45593999997E+02  0.45594000000E+02  0.51100000000E-03 0. -1.
         23    2    1    2    0    0 -0.35527136788E-14 -0.35527136788E-14  0.00000000000E+00  0.91188000000E+02  0.91188000000E+02 0.  0.
    9900012    2    3    3    0    0  0.22180658122E+02  0.20422696710E+02 -0.21135543383E+02  0.54367091134E+02  0.40000015858E+02 0.  0.
        -12    1    3    3    0    0 -0.22180658122E+02 -0.20422696710E+02  0.21135543383E+02  0.36820908866E+02  0.00000000000E+00 0.  1.
         11    1    4    4    0    0  0.18151831754E+02  0.28106397120E+02 -0.24844208805E+02  0.41673651946E+02  0.51100000000E-03 0. -1.
        -11    1    4    4    0    0 -0.26179331800E+01 -0.26430599010E+01  0.49062319881E+00  0.37523394249E+01  0.51100000000E-03 0.  1.
         12    1    4    4    0    0  0.66467595475E+01 -0.50406405090E+01  0.32180422233E+01  0.89410997631E+01  0.00000000000E+00 0. -1.
</event>
<event>
 8    1  0.2558382E-006  0.9118800E+02  0.7816164E-02  0.1184000E+00
        -11   -1    0    0    0    0  0.00000000000E+00  0.00000000000E+00  0.45593999997E+02  0.45594000000E+02  0.51100000000E-03 0.  1.
         11   -1    0    0    0    0 -0.00000000000E+00 -0.00000000000E+00 -0.45593999997E+02  0.45594000000E+02  0.51100000000E-03 0. -1.
         23    2    1    2    0    0  0.00000000000E+00  0.35527136788E-14  0.00000000000E+00  0.91188000000E+02  0.91188000000E+02 0.  0.
    9900012    2    3    3    0    0  0.29851279263E+02 -0.19902112044E+02 -0.82817783240E+01  0.54367071309E+02  0.39999970662E+02 0.  0.
        -12    1    3    3    0    0 -0.29851279263E+02  0.19902112044E+02  0.82817783240E+01  0.36820928691E+02  0.00000000000E+00 0.  1.
         11    1    4    4    0    0  0.18433432626E+02  0.97712447567E+01 -0.23593087748E+00  0.20864427289E+02  0.51100000000E-03 0. -1.
        -11    1    4    4    0    0  0.55611223074E+01 -0.99744062310E+01  0.34619825522E-01  0.11419985104E+02  0.51100000000E-03 0.  1.
         12    1    4    4    0    0  0.58567243300E+01 -0.19698950570E+02 -0.80804672720E+01  0.22082658915E+02  0.00000000000E+00 0. -1.
</event>
<event>
 8    1  0.2558382E-006  0.9118800E+02  0.7816164E-02  0.1184000E+00
        -11   -1    0    0    0    0  0.00000000000E+00  0.00000000000E+00  0.45593999997E+02  0.45594000000E+02  0.51100000000E-03 0.  1.
         11   -1    0    0    0    0 -0.00000000000E+00 -0.00000000000E+00 -0.45593999997E+02  0.45594000000E+02  0.51100000000E-03 0. -1.
         23    2    1    2    0    0  0.71054273576E-14 -0.35527136788E-14 -0.35527136788E-14  0.91188000000E+02  0.91188000000E+02 0.  0.
    9900012    2    3    3    0    0 -0.26070312321E+02  0.17774858894E+02  0.18978243075E+02  0.54367075196E+02  0.39999979523E+02 0.  0.
         12    1    3    3    0    0  0.26070312321E+02 -0.17774858894E+02 -0.18978243075E+02  0.36820924804E+02  0.00000000000E+00 0. -1.
         11    1    4    4    0    0 -0.21238993908E+02  0.92309530533E+01 -0.57870556114E+01  0.23870386871E+02  0.51100000000E-03 0. -1.
        -11    1    4    4    0    0 -0.10172872151E+01  0.37480341337E+01 -0.10020089828E+01  0.40108172993E+01  0.51100000000E-03 0.  1.
        -12    1    4    4    0    0 -0.38140311984E+01  0.47958717074E+01  0.25767307669E+02  0.26485871025E+02  0.00000000000E+00 0.  1.
</event>
<event>
 8    1  0.2558382E-006  0.9118800E+02  0.7816164E-02  0.1184000E+00
        -11   -1    0    0    0    0  0.00000000000E+00  0.00000000000E+00  0.45593999997E+02  0.45594000000E+02  0.51100000000E-03 0. -1.
         11   -1    0    0    0    0 -0.00000000000E+00 -0.00000000000E+00 -0.45593999997E+02  0.45594000000E+02  0.51100000000E-03 0.  1.
         23    2    1    2    0    0  0.00000000000E+00  0.00000000000E+00 -0.17763568394E-14  0.91188000000E+02  0.91188000000E+02 0.  0.
    9900012    2    3    3    0    0 -0.31615669103E+02  0.13098815134E+02 -0.13588589802E+02  0.54367092032E+02  0.40000017906E+02 0.  0.
         12    1    3    3    0    0  0.31615669103E+02 -0.13098815134E+02  0.13588589802E+02  0.36820907968E+02  0.00000000000E+00 0. -1.
         11    1    4    4    0    0 -0.71828118290E+01  0.41259143484E+01  0.85461709630E+01  0.11901806307E+02  0.51100000000E-03 0. -1.
        -11    1    4    4    0    0 -0.23763985430E+02 -0.20258639909E+01 -0.94275605932E+01  0.25645857900E+02  0.51100000000E-03 0.  1.
         12    1    4    4    0    0 -0.66887184411E+00  0.10998764776E+02 -0.12707200172E+02  0.16819427825E+02  0.00000000000E+00 0. -1.
</event>
<event>
 8    1  0.2558382E-006  0.9118800E+02  0.7816164E-02  0.1184000E+00
        -11   -1    0    0    0    0  0.00000000000E+00  0.00000000000E+00  0.45593999997E+02  0.45594000000E+02  0.51100000000E-03 0.  1.
         11   -1    0    0    0    0 -0.00000000000E+00 -0.00000000000E+00 -0.45593999997E+02  0.45594000000E+02  0.51100000000E-03 0. -1.
         23    2    1    2    0    0 -0.44408920985E-15  0.00000000000E+00  0.00000000000E+00  0.91188000000E+02  0.91188000000E+02 0.  0.
    9900012    2    3    3    0    0 -0.30018178681E+01 -0.24572191761E+02 -0.27257600831E+02  0.54367077666E+02  0.39999985155E+02 0.  0.
        -12    1    3    3    0    0  0.30018178681E+01  0.24572191761E+02  0.27257600831E+02  0.36820922334E+02  0.00000000000E+00 0.  1.
         11    1    4    4    0    0  0.36521490621E+01 -0.75471153332E+01 -0.10524927015E+02  0.13456271087E+02  0.51100000000E-03 0. -1.
        -11    1    4    4    0    0  0.10180390860E+02  0.15486676365E-01 -0.13243761615E+02  0.16704425158E+02  0.51100000000E-03 0.  1.
         12    1    4    4    0    0 -0.16834357790E+02 -0.17040563104E+02 -0.34889122013E+01  0.24206381421E+02  0.00000000000E+00 0. -1.
</event>
<event>
 8    1  0.2558382E-006  0.9118800E+02  0.7816164E-02  0.1184000E+00
        -11   -1    0    0    0    0  0.00000000000E+00  0.00000000000E+00  0.45593999997E+02  0.45594000000E+02  0.51100000000E-03 0.  1.
         11   -1    0    0    0    0 -0.00000000000E+00 -0.00000000000E+00 -0.45593999997E+02  0.45594000000E+02  0.51100000000E-03 0. -1.
         23    2    1    2    0    0  0.88817841970E-15 -0.88817841970E-15  0.71054273576E-14  0.91188000000E+02  0.91188000000E+02 0.  0.
    9900012    2    3    3    0    0 -0.73370484710E+01  0.48453598656E+01 -0.35755690375E+02  0.54367093076E+02  0.40000020285E+02 0.  0.
        -12    1    3    3    0    0  0.73370484710E+01 -0.48453598656E+01  0.35755690375E+02  0.36820906924E+02  0.00000000000E+00 0.  1.
         11    1    4    4    0    0 -0.11844894578E+02 -0.25055965226E+01 -0.47977400093E+01  0.13022973968E+02  0.51100000000E-03 0. -1.
        -11    1    4    4    0    0  0.18959512435E+00 -0.95304571743E+01 -0.75362942589E+01  0.12151596261E+02  0.51100000000E-03 0.  1.
        -12    1    4    4    0    0  0.43182509828E+01  0.16881413563E+02 -0.23421656107E+02  0.29192522848E+02  0.00000000000E+00 0.  1.
</event>
<event>
 8    1  0.2558382E-006  0.9118800E+02  0.7816164E-02  0.1184000E+00
        -11   -1    0    0    0    0  0.00000000000E+00  0.00000000000E+00  0.45593999997E+02  0.45594000000E+02  0.51100000000E-03 0.  1.
         11   -1    0    0    0    0 -0.00000000000E+00 -0.00000000000E+00 -0.45593999997E+02  0.45594000000E+02  0.51100000000E-03 0. -1.
         23    2    1    2    0    0 -0.35527136788E-14  0.00000000000E+00  0.00000000000E+00  0.91188000000E+02  0.91188000000E+02 0.  0.
    9900012    2    3    3    0    0  0.24488087685E+02  0.17684733751E+02  0.21056197417E+02  0.54367086161E+02  0.40000004521E+02 0.  0.
         12    1    3    3    0    0 -0.24488087685E+02 -0.17684733751E+02 -0.21056197417E+02  0.36820913839E+02  0.00000000000E+00 0. -1.
         11    1    4    4    0    0 -0.37997459496E+01  0.83628225452E+01  0.17955245987E+02  0.20168433973E+02  0.51100000000E-03 0. -1.
        -11    1    4    4    0    0  0.17061738849E+02 -0.68051605675E+00 -0.40499991155E+01  0.17549032103E+02  0.51100000000E-03 0.  1.
         12    1    4    4    0    0  0.11226094785E+02  0.10002427262E+02  0.71509505452E+01  0.16649620085E+02  0.00000000000E+00 0. -1.
</event>
<event>
 8    1  0.2558382E-006  0.9118800E+02  0.7816164E-02  0.1184000E+00
        -11   -1    0    0    0    0  0.00000000000E+00  0.00000000000E+00  0.45593999997E+02  0.45594000000E+02  0.51100000000E-03 0. -1.
         11   -1    0    0    0    0 -0.00000000000E+00 -0.00000000000E+00 -0.45593999997E+02  0.45594000000E+02  0.51100000000E-03 0.  1.
         23    2    1    2    0    0  0.00000000000E+00  0.26645352591E-14 -0.35527136788E-14  0.91188000000E+02  0.91188000000E+02 0.  0.
    9900012    2    3    3    0    0  0.21765987939E+02 -0.65861690367E+01  0.28959349776E+02  0.54367084843E+02  0.40000001517E+02 0.  0.
        -12    1    3    3    0    0 -0.21765987939E+02  0.65861690367E+01 -0.28959349776E+02  0.36820915157E+02  0.00000000000E+00 0.  1.
         11    1    4    4    0    0  0.46736840886E+01  0.68118517816E+01  0.11487023481E+01  0.83405134734E+01  0.51100000000E-03 0.  1.
        -11    1    4    4    0    0  0.17414302092E+02  0.46032912007E+01  0.18247474071E+02  0.25640173897E+02  0.51100000000E-03 0. -1.
        -12    1    4    4    0    0 -0.32199824140E+00 -0.18001312019E+02  0.95631733567E+01  0.20386397473E+02  0.00000000000E+00 0.  1.
</event>
<event>
 8    1  0.2558382E-006  0.9118800E+02  0.7816164E-02  0.1184000E+00
        -11   -1    0    0    0    0  0.00000000000E+00  0.00000000000E+00  0.45593999997E+02  0.45594000000E+02  0.51100000000E-03 0.  1.
         11   -1    0    0    0    0 -0.00000000000E+00 -0.00000000000E+00 -0.45593999997E+02  0.45594000000E+02  0.51100000000E-03 0. -1.
         23    2    1    2    0    0  0.00000000000E+00  0.71054273576E-14 -0.71054273576E-14  0.91188000000E+02  0.91188000000E+02 0.  0.
    9900012    2    3    3    0    0  0.58994573232E+01 -0.16462485665E+02  0.32403094798E+02  0.54367114847E+02  0.40000069917E+02 0.  0.
         12    1    3    3    0    0 -0.58994573232E+01  0.16462485665E+02 -0.32403094798E+02  0.36820885153E+02  0.00000000000E+00 0. -1.
         11    1    4    4    0    0 -0.24780100587E+01 -0.18647602998E+01 -0.11787939335E+01  0.33177432429E+01  0.51100000000E-03 0. -1.
        -11    1    4    4    0    0  0.45056376531E-01  0.96130569820E+01  0.10802258095E+01  0.96736643872E+01  0.51100000000E-03 0.  1.
        -12    1    4    4    0    0  0.83324110054E+01 -0.24210782347E+02  0.32501662922E+02  0.41375707217E+02  0.00000000000E+00 0.  1.
</event>
<event>
 8    1  0.2558382E-006  0.9118800E+02  0.7816164E-02  0.1184000E+00
        -11   -1    0    0    0    0  0.00000000000E+00  0.00000000000E+00  0.45593999997E+02  0.45594000000E+02  0.51100000000E-03 0.  1.
         11   -1    0    0    0    0 -0.00000000000E+00 -0.00000000000E+00 -0.45593999997E+02  0.45594000000E+02  0.51100000000E-03 0. -1.
         23    2    1    2    0    0  0.00000000000E+00  0.17763568394E-14  0.00000000000E+00  0.91188000000E+02  0.91188000000E+02 0.  0.
    9900012    2    3    3    0    0  0.31520851486E+02 -0.12585024772E+02  0.14277003439E+02  0.54367085372E+02  0.40000002721E+02 0.  0.
         12    1    3    3    0    0 -0.31520851486E+02  0.12585024772E+02 -0.14277003439E+02  0.36820914628E+02  0.00000000000E+00 0. -1.
         11    1    4    4    0    0 -0.60659000921E+00  0.85684490126E+01 -0.25325824636E+01  0.89554589004E+01  0.51100000000E-03 0. -1.
        -11    1    4    4    0    0  0.14134299778E+02 -0.31451823724E+01  0.13397292475E+02  0.19727089200E+02  0.51100000000E-03 0.  1.
         12    1    4    4    0    0  0.17993141717E+02 -0.18008291412E+02  0.34122934276E+01  0.25684537271E+02  0.00000000000E+00 0. -1.
</event>
<event>
 8    1  0.2558382E-006  0.9118800E+02  0.7816164E-02  0.1184000E+00
        -11   -1    0    0    0    0  0.00000000000E+00  0.00000000000E+00  0.45593999997E+02  0.45594000000E+02  0.51100000000E-03 0.  1.
         11   -1    0    0    0    0 -0.00000000000E+00 -0.00000000000E+00 -0.45593999997E+02  0.45594000000E+02  0.51100000000E-03 0. -1.
         23    2    1    2    0    0  0.00000000000E+00  0.35527136788E-14 -0.17763568394E-14  0.91188000000E+02  0.91188000000E+02 0.  0.
    9900012    2    3    3    0    0  0.29095025780E+02 -0.21772839685E+02  0.59332099402E+01  0.54367081308E+02  0.39999993458E+02 0.  0.
         12    1    3    3    0    0 -0.29095025780E+02  0.21772839685E+02 -0.59332099402E+01  0.36820918692E+02  0.00000000000E+00 0. -1.
         11    1    4    4    0    0 -0.25068468376E+01  0.13627500053E+01 -0.89679668094E+01  0.94109403144E+01  0.51100000000E-03 0. -1.
        -11    1    4    4    0    0  0.21739997342E+02 -0.20022026868E+02  0.38236107465E+01  0.29801493984E+02  0.51100000000E-03 0.  1.
         12    1    4    4    0    0  0.98618752763E+01 -0.31135628230E+01  0.11077566003E+02  0.15154647009E+02  0.00000000000E+00 0. -1.
</event>
<event>
 8    1  0.2558382E-006  0.9118800E+02  0.7816164E-02  0.1184000E+00
        -11   -1    0    0    0    0  0.00000000000E+00  0.00000000000E+00  0.45593999997E+02  0.45594000000E+02  0.51100000000E-03 0.  1.
         11   -1    0    0    0    0 -0.00000000000E+00 -0.00000000000E+00 -0.45593999997E+02  0.45594000000E+02  0.51100000000E-03 0. -1.
         23    2    1    2    0    0 -0.35527136788E-14  0.55511151231E-16 -0.35527136788E-14  0.91188000000E+02  0.91188000000E+02 0.  0.
    9900012    2    3    3    0    0  0.20950638844E+02 -0.45827854701E+00  0.30276063290E+02  0.54367091599E+02  0.40000016918E+02 0.  0.
         12    1    3    3    0    0 -0.20950638844E+02  0.45827854701E+00 -0.30276063290E+02  0.36820908401E+02  0.00000000000E+00 0. -1.
         11    1    4    4    0    0 -0.72639447035E+00 -0.26635627536E+01 -0.19823083612E+01  0.33987883383E+01  0.51100000000E-03 0. -1.
        -11    1    4    4    0    0  0.28178659892E+02 -0.79415140884E+00  0.14246172960E+02  0.31585138816E+02  0.51100000000E-03 0.  1.
        -12    1    4    4    0    0 -0.65016265784E+01  0.29994356154E+01  0.18012198691E+02  0.19383164444E+02  0.00000000000E+00 0.  1.
</event>
<event>
 8    1  0.2558382E-006  0.9118800E+02  0.7816164E-02  0.1184000E+00
        -11   -1    0    0    0    0  0.00000000000E+00  0.00000000000E+00  0.45593999997E+02  0.45594000000E+02  0.51100000000E-03 0.  1.
         11   -1    0    0    0    0 -0.00000000000E+00 -0.00000000000E+00 -0.45593999997E+02  0.45594000000E+02  0.51100000000E-03 0. -1.
         23    2    1    2    0    0  0.00000000000E+00  0.00000000000E+00  0.00000000000E+00  0.91188000000E+02  0.91188000000E+02 0.  0.
    9900012    2    3    3    0    0 -0.35065524527E+02 -0.78142496022E+01  0.80702136629E+01  0.54367056832E+02  0.39999937660E+02 0.  0.
        -12    1    3    3    0    0  0.35065524527E+02  0.78142496022E+01 -0.80702136629E+01  0.36820943168E+02  0.00000000000E+00 0.  1.
         11    1    4    4    0    0 -0.17757483938E+02 -0.12036725181E+02 -0.45736582202E+01  0.21934660669E+02  0.51100000000E-03 0. -1.
        -11    1    4    4    0    0 -0.23415767422E+02  0.33259555928E+01  0.93168398112E+01  0.25419749190E+02  0.51100000000E-03 0.  1.
        -12    1    4    4    0    0  0.61077268329E+01  0.89651998618E+00  0.33270320718E+01  0.70126469723E+01  0.00000000000E+00 0.  1.
</event>
<event>
 8    1  0.2558382E-006  0.9118800E+02  0.7816164E-02  0.1184000E+00
        -11   -1    0    0    0    0  0.00000000000E+00  0.00000000000E+00  0.45593999997E+02  0.45594000000E+02  0.51100000000E-03 0.  1.
         11   -1    0    0    0    0 -0.00000000000E+00 -0.00000000000E+00 -0.45593999997E+02  0.45594000000E+02  0.51100000000E-03 0. -1.
         23    2    1    2    0    0  0.71054273576E-14 -0.35527136788E-14  0.00000000000E+00  0.91188000000E+02  0.91188000000E+02 0.  0.
    9900012    2    3    3    0    0  0.31210731727E+02 -0.17391586792E+02  0.88996470882E+01  0.54367071381E+02  0.39999970827E+02 0.  0.
         12    1    3    3    0    0 -0.31210731727E+02  0.17391586792E+02 -0.88996470882E+01  0.36820928619E+02  0.00000000000E+00 0. -1.
         11    1    4    4    0    0  0.16951374348E+02  0.54629795019E+01  0.82668849450E+01  0.19635035632E+02  0.51100000000E-03 0. -1.
        -11    1    4    4    0    0  0.10148188327E+02 -0.66900546592E+01  0.98774198449E+01  0.15662246988E+02  0.51100000000E-03 0.  1.
         12    1    4    4    0    0  0.41111690526E+01 -0.16164511634E+02 -0.92446577017E+01  0.19069788761E+02  0.00000000000E+00 0. -1.
</event>
<event>
 8    1  0.2558382E-006  0.9118800E+02  0.7816164E-02  0.1184000E+00
        -11   -1    0    0    0    0  0.00000000000E+00  0.00000000000E+00  0.45593999997E+02  0.45594000000E+02  0.51100000000E-03 0.  1.
         11   -1    0    0    0    0 -0.00000000000E+00 -0.00000000000E+00 -0.45593999997E+02  0.45594000000E+02  0.51100000000E-03 0. -1.
         23    2    1    2    0    0 -0.35527136788E-14 -0.71054273576E-14  0.00000000000E+00  0.91188000000E+02  0.91188000000E+02 0.  0.
    9900012    2    3    3    0    0 -0.11927917073E+02 -0.28525160523E+02  0.19995271264E+02  0.54367206127E+02  0.40000278006E+02 0.  0.
         12    1    3    3    0    0  0.11927917073E+02  0.28525160523E+02 -0.19995271264E+02  0.36820793873E+02  0.00000000000E+00 0. -1.
         11    1    4    4    0    0  0.80148015175E+01 -0.54363150245E+01 -0.38527417772E+01  0.10422772370E+02  0.51100000000E-03 0. -1.
        -11    1    4    4    0    0  0.20252619228E+01  0.22998153194E+01  0.64054656792E+00  0.31306766882E+01  0.51100000000E-03 0.  1.
        -12    1    4    4    0    0 -0.21967980514E+02 -0.25388660818E+02  0.23207466473E+02  0.40813757069E+02  0.00000000000E+00 0.  1.
</event>
<event>
 8    1  0.2558382E-006  0.9118800E+02  0.7816164E-02  0.1184000E+00
        -11   -1    0    0    0    0  0.00000000000E+00  0.00000000000E+00  0.45593999997E+02  0.45594000000E+02  0.51100000000E-03 0.  1.
         11   -1    0    0    0    0 -0.00000000000E+00 -0.00000000000E+00 -0.45593999997E+02  0.45594000000E+02  0.51100000000E-03 0. -1.
         23    2    1    2    0    0 -0.35527136788E-14  0.00000000000E+00  0.88817841970E-15  0.91188000000E+02  0.91188000000E+02 0.  0.
    9900012    2    3    3    0    0 -0.18321797889E+02  0.31395315115E+02 -0.58674778884E+01  0.54367063213E+02  0.39999952207E+02 0.  0.
        -12    1    3    3    0    0  0.18321797889E+02 -0.31395315115E+02  0.58674778884E+01  0.36820936787E+02  0.00000000000E+00 0.  1.
         11    1    4    4    0    0 -0.10534504992E+02  0.15243512185E+02 -0.90795409387E+01  0.20634401447E+02  0.51100000000E-03 0. -1.
        -11    1    4    4    0    0 -0.70439823709E+01 -0.51505191532E+01  0.80534261556E+01  0.11874477180E+02  0.51100000000E-03 0.  1.
         12    1    4    4    0    0 -0.74331052592E+00  0.21302322084E+02 -0.48413631053E+01  0.21858184586E+02  0.00000000000E+00 0. -1.
</event>
<event>
 8    1  0.2558382E-006  0.9118800E+02  0.7816164E-02  0.1184000E+00
        -11   -1    0    0    0    0  0.00000000000E+00  0.00000000000E+00  0.45593999997E+02  0.45594000000E+02  0.51100000000E-03 0. -1.
         11   -1    0    0    0    0 -0.00000000000E+00 -0.00000000000E+00 -0.45593999997E+02  0.45594000000E+02  0.51100000000E-03 0.  1.
         23    2    1    2    0    0  0.00000000000E+00  0.00000000000E+00  0.88817841970E-15  0.91188000000E+02  0.91188000000E+02 0.  0.
    9900012    2    3    3    0    0  0.22605693197E+02  0.28199081050E+02  0.70409147876E+01  0.54367081787E+02  0.39999994550E+02 0.  0.
         12    1    3    3    0    0 -0.22605693197E+02 -0.28199081050E+02 -0.70409147876E+01  0.36820918213E+02  0.00000000000E+00 0. -1.
         11    1    4    4    0    0  0.13208890368E+02  0.98344173871E+01  0.10245453662E+02  0.19394841353E+02  0.51100000000E-03 0. -1.
        -11    1    4    4    0    0  0.16376927914E+02  0.31043003883E+01 -0.64633279501E+01  0.17877781106E+02  0.51100000000E-03 0.  1.
        -12    1    4    4    0    0 -0.69801250854E+01  0.15260363275E+02  0.32587890753E+01  0.17094459328E+02  0.00000000000E+00 0.  1.
</event>
<event>
 8    1  0.2558382E-006  0.9118800E+02  0.7816164E-02  0.1184000E+00
        -11   -1    0    0    0    0  0.00000000000E+00  0.00000000000E+00  0.45593999997E+02  0.45594000000E+02  0.51100000000E-03 0.  1.
         11   -1    0    0    0    0 -0.00000000000E+00 -0.00000000000E+00 -0.45593999997E+02  0.45594000000E+02  0.51100000000E-03 0. -1.
         23    2    1    2    0    0  0.22204460493E-15  0.11102230246E-14  0.00000000000E+00  0.91188000000E+02  0.91188000000E+02 0.  0.
    9900012    2    3    3    0    0 -0.18809791680E+01 -0.50770333656E+00 -0.36769341749E+02  0.54367077442E+02  0.39999984645E+02 0.  0.
        -12    1    3    3    0    0  0.18809791680E+01  0.50770333656E+00  0.36769341749E+02  0.36820922558E+02  0.00000000000E+00 0.  1.
         11    1    4    4    0    0 -0.18542350499E+01 -0.86362560023E+01 -0.60575396795E+01  0.10710597210E+02  0.51100000000E-03 0. -1.
        -11    1    4    4    0    0  0.29332859142E+01 -0.11073105262E+02 -0.94015849647E+01  0.14819164164E+02  0.51100000000E-03 0.  1.
         12    1    4    4    0    0 -0.29600300323E+01  0.19201657928E+02 -0.21310217105E+02  0.28837316069E+02  0.00000000000E+00 0. -1.
</event>
<event>
 8    1  0.2558382E-006  0.9118800E+02  0.7816164E-02  0.1184000E+00
        -11   -1    0    0    0    0  0.00000000000E+00  0.00000000000E+00  0.45593999997E+02  0.45594000000E+02  0.51100000000E-03 0.  1.
         11   -1    0    0    0    0 -0.00000000000E+00 -0.00000000000E+00 -0.45593999997E+02  0.45594000000E+02  0.51100000000E-03 0. -1.
         23    2    1    2    0    0  0.88817841970E-15  0.00000000000E+00 -0.35527136788E-14  0.91188000000E+02  0.91188000000E+02 0.  0.
    9900012    2    3    3    0    0 -0.58151177198E+01 -0.34185498146E+02  0.12382086202E+02  0.54367082897E+02  0.39999997081E+02 0.  0.
         12    1    3    3    0    0  0.58151177198E+01  0.34185498146E+02 -0.12382086202E+02  0.36820917103E+02  0.00000000000E+00 0. -1.
         11    1    4    4    0    0  0.94642943217E+01 -0.37892559012E+01 -0.41117440611E+01  0.10992623289E+02  0.51100000000E-03 0. -1.
        -11    1    4    4    0    0 -0.51559115382E+01 -0.11040777320E+02 -0.45849074739E+01  0.13019353457E+02  0.51100000000E-03 0.  1.
        -12    1    4    4    0    0 -0.10123500503E+02 -0.19355464925E+02  0.21078737737E+02  0.30355106151E+02  0.00000000000E+00 0.  1.
</event>
<event>
 8    1  0.2558382E-006  0.9118800E+02  0.7816164E-02  0.1184000E+00
        -11   -1    0    0    0    0  0.00000000000E+00  0.00000000000E+00  0.45593999997E+02  0.45594000000E+02  0.51100000000E-03 0. -1.
         11   -1    0    0    0    0 -0.00000000000E+00 -0.00000000000E+00 -0.45593999997E+02  0.45594000000E+02  0.51100000000E-03 0.  1.
         23    2    1    2    0    0  0.00000000000E+00  0.72164496601E-15  0.00000000000E+00  0.91188000000E+02  0.91188000000E+02 0.  0.
    9900012    2    3    3    0    0 -0.28034448485E+02 -0.46914349060E+00 -0.23866894054E+02  0.54367095213E+02  0.40000025158E+02 0.  0.
         12    1    3    3    0    0  0.28034448485E+02  0.46914349060E+00  0.23866894054E+02  0.36820904787E+02  0.00000000000E+00 0. -1.
         11    1    4    4    0    0 -0.22311159486E+02  0.72536757935E+01 -0.23040201538E+02  0.32882435087E+02  0.51100000000E-03 0.  1.
        -11    1    4    4    0    0 -0.12727191370E+02 -0.67226047112E+01 -0.50857998621E+00  0.14402550751E+02  0.51100000000E-03 0. -1.
        -12    1    4    4    0    0  0.70039023708E+01 -0.10002145729E+01 -0.31811253037E+00  0.70821093746E+01  0.00000000000E+00 0.  1.
</event>
<event>
 8    1  0.2558382E-006  0.9118800E+02  0.7816164E-02  0.1184000E+00
        -11   -1    0    0    0    0  0.00000000000E+00  0.00000000000E+00  0.45593999997E+02  0.45594000000E+02  0.51100000000E-03 0.  1.
         11   -1    0    0    0    0 -0.00000000000E+00 -0.00000000000E+00 -0.45593999997E+02  0.45594000000E+02  0.51100000000E-03 0. -1.
         23    2    1    2    0    0  0.00000000000E+00  0.35527136788E-14  0.35527136788E-14  0.91188000000E+02  0.91188000000E+02 0.  0.
    9900012    2    3    3    0    0 -0.86055187410E+01  0.31564499113E+02  0.16893994002E+02  0.54367087595E+02  0.40000007789E+02 0.  0.
         12    1    3    3    0    0  0.86055187410E+01 -0.31564499113E+02 -0.16893994002E+02  0.36820912405E+02  0.00000000000E+00 0. -1.
         11    1    4    4    0    0  0.48029575972E+01  0.32854039799E+01 -0.51887993775E+01  0.77965325775E+01  0.51100000000E-03 0. -1.
        -11    1    4    4    0    0 -0.19999860150E+02  0.25596892002E+02  0.22381988194E+02  0.39448050420E+02  0.51100000000E-03 0.  1.
        -12    1    4    4    0    0  0.65913838121E+01  0.26822031303E+01 -0.29919481420E+00  0.71225045966E+01  0.00000000000E+00 0.  1.
</event>
<event>
 8    1  0.2558382E-006  0.9118800E+02  0.7816164E-02  0.1184000E+00
        -11   -1    0    0    0    0  0.00000000000E+00  0.00000000000E+00  0.45593999997E+02  0.45594000000E+02  0.51100000000E-03 0. -1.
         11   -1    0    0    0    0 -0.00000000000E+00 -0.00000000000E+00 -0.45593999997E+02  0.45594000000E+02  0.51100000000E-03 0.  1.
         23    2    1    2    0    0 -0.44408920985E-15  0.00000000000E+00 -0.35527136788E-14  0.91188000000E+02  0.91188000000E+02 0.  0.
    9900012    2    3    3    0    0  0.29163628295E+01  0.32339273348E+02  0.17361953199E+02  0.54367201642E+02  0.40000267783E+02 0.  0.
        -12    1    3    3    0    0 -0.29163628295E+01 -0.32339273348E+02 -0.17361953199E+02  0.36820798358E+02  0.00000000000E+00 0.  1.
         11    1    4    4    0    0  0.16105544408E+02  0.28971916866E+02  0.16129491436E+02  0.36863545975E+02  0.51100000000E-03 0. -1.
        -11    1    4    4    0    0 -0.47620128576E+01 -0.34466452568E+01  0.28728297391E+01  0.65428801726E+01  0.51100000000E-03 0.  1.
         12    1    4    4    0    0 -0.84271687211E+01  0.68140017383E+01 -0.16403679762E+01  0.10960775495E+02  0.00000000000E+00 0. -1.
</event>
<event>
 8    1  0.2558382E-006  0.9118800E+02  0.7816164E-02  0.1184000E+00
        -11   -1    0    0    0    0  0.00000000000E+00  0.00000000000E+00  0.45593999997E+02  0.45594000000E+02  0.51100000000E-03 0.  1.
         11   -1    0    0    0    0 -0.00000000000E+00 -0.00000000000E+00 -0.45593999997E+02  0.45594000000E+02  0.51100000000E-03 0. -1.
         23    2    1    2    0    0  0.00000000000E+00  0.00000000000E+00  0.17763568394E-14  0.91188000000E+02  0.91188000000E+02 0.  0.
    9900012    2    3    3    0    0  0.26274400653E+02  0.20557986389E+02 -0.15582179569E+02  0.54367092160E+02  0.40000018198E+02 0.  0.
        -12    1    3    3    0    0 -0.26274400653E+02 -0.20557986389E+02  0.15582179569E+02  0.36820907840E+02  0.00000000000E+00 0.  1.
         11    1    4    4    0    0  0.24800791454E+01 -0.50219391857E+00 -0.36482740138E+01  0.44399205893E+01  0.51100000000E-03 0. -1.
        -11    1    4    4    0    0  0.67763225507E+01  0.28558418183E+02 -0.10872071069E+02  0.31300219265E+02  0.51100000000E-03 0.  1.
        -12    1    4    4    0    0  0.17017998957E+02 -0.74982378759E+01 -0.10618344855E+01  0.18626952306E+02  0.00000000000E+00 0.  1.
</event>
<event>
 8    1  0.2558382E-006  0.9118800E+02  0.7816164E-02  0.1184000E+00
        -11   -1    0    0    0    0  0.00000000000E+00  0.00000000000E+00  0.45593999997E+02  0.45594000000E+02  0.51100000000E-03 0. -1.
         11   -1    0    0    0    0 -0.00000000000E+00 -0.00000000000E+00 -0.45593999997E+02  0.45594000000E+02  0.51100000000E-03 0.  1.
         23    2    1    2    0    0  0.00000000000E+00  0.00000000000E+00 -0.71054273576E-14  0.91188000000E+02  0.91188000000E+02 0.  0.
    9900012    2    3    3    0    0 -0.18623332891E+02 -0.21449307175E+02 -0.23428178515E+02  0.54367070425E+02  0.39999968647E+02 0.  0.
         12    1    3    3    0    0  0.18623332891E+02  0.21449307175E+02  0.23428178515E+02  0.36820929575E+02  0.00000000000E+00 0. -1.
         11    1    4    4    0    0 -0.76584305930E+01 -0.59586262193E+01  0.86085204668E+01  0.12971638696E+02  0.51100000000E-03 0. -1.
        -11    1    4    4    0    0  0.13128845755E+01 -0.96683952974E+00 -0.17193454532E+02  0.17270591292E+02  0.51100000000E-03 0.  1.
         12    1    4    4    0    0 -0.12277786873E+02 -0.14523841426E+02 -0.14843244450E+02  0.24124840436E+02  0.00000000000E+00 0. -1.
</event>
<event>
 8    1  0.2558382E-006  0.9118800E+02  0.7816164E-02  0.1184000E+00
        -11   -1    0    0    0    0  0.00000000000E+00  0.00000000000E+00  0.45593999997E+02  0.45594000000E+02  0.51100000000E-03 0.  1.
         11   -1    0    0    0    0 -0.00000000000E+00 -0.00000000000E+00 -0.45593999997E+02  0.45594000000E+02  0.51100000000E-03 0. -1.
         23    2    1    2    0    0  0.00000000000E+00  0.00000000000E+00  0.35527136788E-14  0.91188000000E+02  0.91188000000E+02 0.  0.
    9900012    2    3    3    0    0 -0.22544100726E+02  0.17657147582E+02 -0.23146679297E+02  0.54367080664E+02  0.39999991989E+02 0.  0.
        -12    1    3    3    0    0  0.22544100726E+02 -0.17657147582E+02  0.23146679297E+02  0.36820919336E+02  0.00000000000E+00 0.  1.
         11    1    4    4    0    0 -0.10095684995E+02  0.11179665813E+02 -0.13798163674E+02  0.20427851190E+02  0.51100000000E-03 0. -1.
        -11    1    4    4    0    0 -0.13999683540E+02 -0.28342264127E+01 -0.16699296150E+02  0.21974768957E+02  0.51100000000E-03 0.  1.
        -12    1    4    4    0    0  0.15512678082E+01  0.93117081820E+01  0.73507805275E+01  0.11964460516E+02  0.00000000000E+00 0.  1.
</event>
<event>
 8    1  0.2558382E-006  0.9118800E+02  0.7816164E-02  0.1184000E+00
        -11   -1    0    0    0    0  0.00000000000E+00  0.00000000000E+00  0.45593999997E+02  0.45594000000E+02  0.51100000000E-03 0.  1.
         11   -1    0    0    0    0 -0.00000000000E+00 -0.00000000000E+00 -0.45593999997E+02  0.45594000000E+02  0.51100000000E-03 0. -1.
         23    2    1    2    0    0 -0.17763568394E-14  0.00000000000E+00  0.00000000000E+00  0.91188000000E+02  0.91188000000E+02 0.  0.
    9900012    2    3    3    0    0 -0.11807047021E+02  0.22796125536E+02 -0.26395242790E+02  0.54367101848E+02  0.40000040283E+02 0.  0.
        -12    1    3    3    0    0  0.11807047021E+02 -0.22796125536E+02  0.26395242790E+02  0.36820898152E+02  0.00000000000E+00 0.  1.
         11    1    4    4    0    0  0.42623913715E+01  0.22576625028E+02 -0.27221037590E+01  0.23136158432E+02  0.51100000000E-03 0. -1.
        -11    1    4    4    0    0 -0.27109635103E+01  0.33209703485E+01 -0.51625488572E+00  0.43179493487E+01  0.51100000000E-03 0.  1.
         12    1    4    4    0    0 -0.13358474882E+02 -0.31014698409E+01 -0.23156884145E+02  0.26912994067E+02  0.00000000000E+00 0. -1.
</event>
<event>
 8    1  0.2558382E-006  0.9118800E+02  0.7816164E-02  0.1184000E+00
        -11   -1    0    0    0    0  0.00000000000E+00  0.00000000000E+00  0.45593999997E+02  0.45594000000E+02  0.51100000000E-03 0.  1.
         11   -1    0    0    0    0 -0.00000000000E+00 -0.00000000000E+00 -0.45593999997E+02  0.45594000000E+02  0.51100000000E-03 0. -1.
         23    2    1    2    0    0  0.00000000000E+00  0.00000000000E+00  0.00000000000E+00  0.91188000000E+02  0.91188000000E+02 0.  0.
    9900012    2    3    3    0    0 -0.31876384529E+02 -0.40408071832E+01  0.17981811667E+02  0.54367115109E+02  0.40000070513E+02 0.  0.
         12    1    3    3    0    0  0.31876384529E+02  0.40408071832E+01 -0.17981811667E+02  0.36820884891E+02  0.00000000000E+00 0. -1.
         11    1    4    4    0    0 -0.91030146360E+01 -0.15261691296E+02  0.22388983156E+02  0.28584098091E+02  0.51100000000E-03 0. -1.
        -11    1    4    4    0    0 -0.13245087308E+02  0.60367040465E+01 -0.24570783260E+01  0.14761821287E+02  0.51100000000E-03 0.  1.
         12    1    4    4    0    0 -0.95282825851E+01  0.51841800659E+01 -0.19500931631E+01  0.11021195730E+02  0.00000000000E+00 0. -1.
</event>
<event>
 8    1  0.2558382E-006  0.9118800E+02  0.7816164E-02  0.1184000E+00
        -11   -1    0    0    0    0  0.00000000000E+00  0.00000000000E+00  0.45593999997E+02  0.45594000000E+02  0.51100000000E-03 0. -1.
         11   -1    0    0    0    0 -0.00000000000E+00 -0.00000000000E+00 -0.45593999997E+02  0.45594000000E+02  0.51100000000E-03 0.  1.
         23    2    1    2    0    0  0.00000000000E+00  0.00000000000E+00  0.35527136788E-14  0.91188000000E+02  0.91188000000E+02 0.  0.
    9900012    2    3    3    0    0 -0.11999047248E+02  0.25425609993E+02 -0.23776911429E+02  0.54367078020E+02  0.39999985963E+02 0.  0.
         12    1    3    3    0    0  0.11999047248E+02 -0.25425609993E+02  0.23776911429E+02  0.36820921980E+02  0.00000000000E+00 0. -1.
         11    1    4    4    0    0 -0.12929196167E+02  0.22111710829E+02 -0.12670817823E+02  0.28576939897E+02  0.51100000000E-03 0. -1.
        -11    1    4    4    0    0 -0.10433345628E+02  0.21529625912E+01 -0.94644806922E+01  0.14250134874E+02  0.51100000000E-03 0.  1.
         12    1    4    4    0    0  0.11363494546E+02  0.11609365727E+01 -0.16416129131E+01  0.11540003249E+02  0.00000000000E+00 0. -1.
</event>
<event>
 8    1  0.2558382E-006  0.9118800E+02  0.7816164E-02  0.1184000E+00
        -11   -1    0    0    0    0  0.00000000000E+00  0.00000000000E+00  0.45593999997E+02  0.45594000000E+02  0.51100000000E-03 0. -1.
         11   -1    0    0    0    0 -0.00000000000E+00 -0.00000000000E+00 -0.45593999997E+02  0.45594000000E+02  0.51100000000E-03 0.  1.
         23    2    1    2    0    0  0.17763568394E-14 -0.71054273576E-14 -0.24980018054E-14  0.91188000000E+02  0.91188000000E+02 0.  0.
    9900012    2    3    3    0    0  0.10987032604E+02 -0.35142150111E+02 -0.30581966556E+00  0.54367093907E+02  0.40000022180E+02 0.  0.
        -12    1    3    3    0    0 -0.10987032604E+02  0.35142150111E+02  0.30581966556E+00  0.36820906093E+02  0.00000000000E+00 0.  1.
         11    1    4    4    0    0  0.14676925857E+02 -0.11409569267E+02  0.16073961343E+02  0.24575651710E+02  0.51100000000E-03 0. -1.
        -11    1    4    4    0    0 -0.25922498012E+01 -0.24828686294E+01 -0.27578548115E+01  0.45266056914E+01  0.51100000000E-03 0.  1.
         12    1    4    4    0    0 -0.10976434516E+01 -0.21249712214E+02 -0.13621926197E+02  0.25264836506E+02  0.00000000000E+00 0. -1.
</event>
<event>
 8    1  0.2558382E-006  0.9118800E+02  0.7816164E-02  0.1184000E+00
        -11   -1    0    0    0    0  0.00000000000E+00  0.00000000000E+00  0.45593999997E+02  0.45594000000E+02  0.51100000000E-03 0.  1.
         11   -1    0    0    0    0 -0.00000000000E+00 -0.00000000000E+00 -0.45593999997E+02  0.45594000000E+02  0.51100000000E-03 0. -1.
         23    2    1    2    0    0  0.00000000000E+00  0.00000000000E+00  0.00000000000E+00  0.91188000000E+02  0.91188000000E+02 0.  0.
    9900012    2    3    3    0    0 -0.14453581125E+01  0.23232959023E+02 -0.28529268384E+02  0.54367101049E+02  0.40000038461E+02 0.  0.
        -12    1    3    3    0    0  0.14453581125E+01 -0.23232959023E+02  0.28529268384E+02  0.36820898951E+02  0.00000000000E+00 0.  1.
         11    1    4    4    0    0  0.13033784149E+00  0.75550765275E+01 -0.11746494090E+02  0.13966971503E+02  0.51100000000E-03 0. -1.
        -11    1    4    4    0    0  0.14621536324E+02  0.59205236841E+01 -0.14368147628E+02  0.21337422330E+02  0.51100000000E-03 0.  1.
        -12    1    4    4    0    0 -0.16197232278E+02  0.97573588114E+01 -0.24146266665E+01  0.19062707216E+02  0.00000000000E+00 0.  1.
</event>
<event>
 8    1  0.2558382E-006  0.9118800E+02  0.7816164E-02  0.1184000E+00
        -11   -1    0    0    0    0  0.00000000000E+00  0.00000000000E+00  0.45593999997E+02  0.45594000000E+02  0.51100000000E-03 0.  1.
         11   -1    0    0    0    0 -0.00000000000E+00 -0.00000000000E+00 -0.45593999997E+02  0.45594000000E+02  0.51100000000E-03 0. -1.
         23    2    1    2    0    0  0.17763568394E-14  0.17763568394E-14 -0.71054273576E-14  0.91188000000E+02  0.91188000000E+02 0.  0.
    9900012    2    3    3    0    0  0.14419492890E+02  0.10786735702E+02 -0.32117061411E+02  0.54367067421E+02  0.39999961799E+02 0.  0.
        -12    1    3    3    0    0 -0.14419492890E+02 -0.10786735702E+02  0.32117061411E+02  0.36820932579E+02  0.00000000000E+00 0.  1.
         11    1    4    4    0    0  0.98621298971E+00 -0.10809858872E+00 -0.14543770373E+02  0.14577570383E+02  0.51100000000E-03 0. -1.
        -11    1    4    4    0    0  0.11212474173E+02 -0.97915070845E+01 -0.69334449618E+01  0.16421505637E+02  0.51100000000E-03 0.  1.
         12    1    4    4    0    0  0.22208057272E+01  0.20686341375E+02 -0.10639846076E+02  0.23367991401E+02  0.00000000000E+00 0. -1.
</event>
<event>
 8    1  0.2558382E-006  0.9118800E+02  0.7816164E-02  0.1184000E+00
        -11   -1    0    0    0    0  0.00000000000E+00  0.00000000000E+00  0.45593999997E+02  0.45594000000E+02  0.51100000000E-03 0. -1.
         11   -1    0    0    0    0 -0.00000000000E+00 -0.00000000000E+00 -0.45593999997E+02  0.45594000000E+02  0.51100000000E-03 0.  1.
         23    2    1    2    0    0 -0.35527136788E-14  0.88817841970E-15  0.35527136788E-14  0.91188000000E+02  0.91188000000E+02 0.  0.
    9900012    2    3    3    0    0 -0.22770710598E+02  0.45902131729E+01 -0.28569295028E+02  0.54367082894E+02  0.39999997074E+02 0.  0.
         12    1    3    3    0    0  0.22770710598E+02 -0.45902131729E+01  0.28569295028E+02  0.36820917106E+02  0.00000000000E+00 0. -1.
         11    1    4    4    0    0 -0.18792445764E+02 -0.11047122605E+02 -0.83441103133E+01  0.23341360561E+02  0.51100000000E-03 0. -1.
        -11    1    4    4    0    0  0.58491808342E+01  0.60497085884E+01 -0.13067014256E+02  0.15542160476E+02  0.51100000000E-03 0.  1.
         12    1    4    4    0    0 -0.98274456676E+01  0.95876271892E+01 -0.71581704590E+01  0.15483561857E+02  0.00000000000E+00 0. -1.
</event>
<event>
 8    1  0.2558382E-006  0.9118800E+02  0.7816164E-02  0.1184000E+00
        -11   -1    0    0    0    0  0.00000000000E+00  0.00000000000E+00  0.45593999997E+02  0.45594000000E+02  0.51100000000E-03 0. -1.
         11   -1    0    0    0    0 -0.00000000000E+00 -0.00000000000E+00 -0.45593999997E+02  0.45594000000E+02  0.51100000000E-03 0.  1.
         23    2    1    2    0    0 -0.71054273576E-14 -0.35527136788E-14  0.10408340856E-16  0.91188000000E+02  0.91188000000E+02 0.  0.
    9900012    2    3    3    0    0  0.30741159165E+02  0.20267210786E+02 -0.27688949996E-01  0.54367089276E+02  0.40000011623E+02 0.  0.
         12    1    3    3    0    0 -0.30741159165E+02 -0.20267210786E+02  0.27688949996E-01  0.36820910724E+02  0.00000000000E+00 0. -1.
         11    1    4    4    0    0  0.12349941535E+02  0.18961980984E+02  0.70204501284E+00  0.22640023106E+02  0.51100000000E-03 0. -1.
        -11    1    4    4    0    0  0.20386622150E+02  0.71365263397E+01  0.61816296860E+01  0.22466795871E+02  0.51100000000E-03 0.  1.
         12    1    4    4    0    0 -0.19954045202E+01 -0.58312965384E+01 -0.69113636488E+01  0.92602702986E+01  0.00000000000E+00 0. -1.
</event>
<event>
 8    1  0.2558382E-006  0.9118800E+02  0.7816164E-02  0.1184000E+00
        -11   -1    0    0    0    0  0.00000000000E+00  0.00000000000E+00  0.45593999997E+02  0.45594000000E+02  0.51100000000E-03 0.  1.
         11   -1    0    0    0    0 -0.00000000000E+00 -0.00000000000E+00 -0.45593999997E+02  0.45594000000E+02  0.51100000000E-03 0. -1.
         23    2    1    2    0    0  0.00000000000E+00 -0.99920072216E-15  0.11102230246E-14  0.91188000000E+02  0.91188000000E+02 0.  0.
    9900012    2    3    3    0    0 -0.36792696368E+02 -0.93462549306E+00 -0.10972487297E+01  0.54367082227E+02  0.39999995553E+02 0.  0.
         12    1    3    3    0    0  0.36792696368E+02  0.93462549306E+00  0.10972487297E+01  0.36820917773E+02  0.00000000000E+00 0. -1.
         11    1    4    4    0    0 -0.92741388604E+01  0.94798420239E+01  0.12499837753E+01  0.13320642481E+02  0.51100000000E-03 0. -1.
        -11    1    4    4    0    0 -0.10115857038E+02 -0.78091049940E+01  0.12608837407E+02  0.17952589380E+02  0.51100000000E-03 0.  1.
         12    1    4    4    0    0 -0.17402700470E+02 -0.26053625230E+01 -0.14956069913E+02  0.23093850366E+02  0.00000000000E+00 0. -1.
</event>
<event>
 8    1  0.2558382E-006  0.9118800E+02  0.7816164E-02  0.1184000E+00
        -11   -1    0    0    0    0  0.00000000000E+00  0.00000000000E+00  0.45593999997E+02  0.45594000000E+02  0.51100000000E-03 0.  1.
         11   -1    0    0    0    0 -0.00000000000E+00 -0.00000000000E+00 -0.45593999997E+02  0.45594000000E+02  0.51100000000E-03 0. -1.
         23    2    1    2    0    0  0.00000000000E+00 -0.71054273576E-14 -0.35527136788E-14  0.91188000000E+02  0.91188000000E+02 0.  0.
    9900012    2    3    3    0    0  0.95333023549E+01 -0.24515416253E+02 -0.25766064129E+02  0.54367088162E+02  0.40000009084E+02 0.  0.
        -12    1    3    3    0    0 -0.95333023549E+01  0.24515416253E+02  0.25766064129E+02  0.36820911838E+02  0.00000000000E+00 0.  1.
         11    1    4    4    0    0  0.15457733455E+02 -0.75686014177E+01 -0.22180194493E+02  0.28074655457E+02  0.51100000000E-03 0. -1.
        -11    1    4    4    0    0  0.29535349617E+01 -0.10115854107E+02  0.54834588365E+01  0.11879486275E+02  0.51100000000E-03 0.  1.
         12    1    4    4    0    0 -0.88779660622E+01 -0.68309607292E+01 -0.90693284725E+01  0.14412946431E+02  0.00000000000E+00 0. -1.
</event>
<event>
 8    1  0.2558382E-006  0.9118800E+02  0.7816164E-02  0.1184000E+00
        -11   -1    0    0    0    0  0.00000000000E+00  0.00000000000E+00  0.45593999997E+02  0.45594000000E+02  0.51100000000E-03 0. -1.
         11   -1    0    0    0    0 -0.00000000000E+00 -0.00000000000E+00 -0.45593999997E+02  0.45594000000E+02  0.51100000000E-03 0.  1.
         23    2    1    2    0    0  0.00000000000E+00 -0.17763568394E-14  0.00000000000E+00  0.91188000000E+02  0.91188000000E+02 0.  0.
    9900012    2    3    3    0    0 -0.32929740178E+01 -0.12323060844E+02 -0.34540955706E+02  0.54367093880E+02  0.40000022118E+02 0.  0.
         12    1    3    3    0    0  0.32929740178E+01  0.12323060844E+02  0.34540955706E+02  0.36820906120E+02  0.00000000000E+00 0. -1.
         11    1    4    4    0    0 -0.36816770514E+01 -0.14257645247E+01 -0.17333500857E+02  0.17777452084E+02  0.51100000000E-03 0.  1.
        -11    1    4    4    0    0 -0.72034247903E+01 -0.18829999330E+02 -0.15601537918E+02  0.25492473186E+02  0.51100000000E-03 0. -1.
         12    1    4    4    0    0  0.75921278239E+01  0.79327030112E+01 -0.16059169314E+01  0.11097168610E+02  0.00000000000E+00 0. -1.
</event>
<event>
 8    1  0.2558382E-006  0.9118800E+02  0.7816164E-02  0.1184000E+00
        -11   -1    0    0    0    0  0.00000000000E+00  0.00000000000E+00  0.45593999997E+02  0.45594000000E+02  0.51100000000E-03 0. -1.
         11   -1    0    0    0    0 -0.00000000000E+00 -0.00000000000E+00 -0.45593999997E+02  0.45594000000E+02  0.51100000000E-03 0.  1.
         23    2    1    2    0    0  0.35527136788E-14  0.00000000000E+00  0.44408920985E-15  0.91188000000E+02  0.91188000000E+02 0.  0.
    9900012    2    3    3    0    0  0.20072797069E+02 -0.30862439522E+02 -0.60970504075E+00  0.54367094313E+02  0.40000023105E+02 0.  0.
        -12    1    3    3    0    0 -0.20072797069E+02  0.30862439522E+02  0.60970504075E+00  0.36820905687E+02  0.00000000000E+00 0.  1.
         11    1    4    4    0    0  0.16777018463E+02  0.37774449051E+01  0.23040780532E+01  0.17350683400E+02  0.51100000000E-03 0. -1.
        -11    1    4    4    0    0 -0.17799804273E+01 -0.21226794398E+02 -0.64293913144E+01  0.22250442775E+02  0.51100000000E-03 0.  1.
        -12    1    4    4    0    0  0.50757590329E+01 -0.13413090029E+02  0.35156082204E+01  0.14765968138E+02  0.00000000000E+00 0.  1.
</event>
<event>
 8    1  0.2558382E-006  0.9118800E+02  0.7816164E-02  0.1184000E+00
        -11   -1    0    0    0    0  0.00000000000E+00  0.00000000000E+00  0.45593999997E+02  0.45594000000E+02  0.51100000000E-03 0. -1.
         11   -1    0    0    0    0 -0.00000000000E+00 -0.00000000000E+00 -0.45593999997E+02  0.45594000000E+02  0.51100000000E-03 0.  1.
         23    2    1    2    0    0  0.00000000000E+00  0.17763568394E-14  0.35527136788E-14  0.91188000000E+02  0.91188000000E+02 0.  0.
    9900012    2    3    3    0    0  0.22468210518E+02 -0.14105176792E+02  0.25534318572E+02  0.54367110262E+02  0.40000059464E+02 0.  0.
        -12    1    3    3    0    0 -0.22468210518E+02  0.14105176792E+02 -0.25534318572E+02  0.36820889738E+02  0.00000000000E+00 0.  1.
         11    1    4    4    0    0  0.81334234050E+01 -0.12481081970E+02  0.29864715647E+02  0.33374110091E+02  0.51100000000E-03 0.  1.
        -11    1    4    4    0    0  0.10724045168E+02  0.52280697731E+01  0.36405606692E+00  0.11936096322E+02  0.51100000000E-03 0. -1.
        -12    1    4    4    0    0  0.36107419446E+01 -0.68521645949E+01 -0.46944531424E+01  0.90569038491E+01  0.00000000000E+00 0.  1.
</event>
<event>
 8    1  0.2558382E-006  0.9118800E+02  0.7816164E-02  0.1184000E+00
        -11   -1    0    0    0    0  0.00000000000E+00  0.00000000000E+00  0.45593999997E+02  0.45594000000E+02  0.51100000000E-03 0. -1.
         11   -1    0    0    0    0 -0.00000000000E+00 -0.00000000000E+00 -0.45593999997E+02  0.45594000000E+02  0.51100000000E-03 0.  1.
         23    2    1    2    0    0  0.00000000000E+00  0.66613381478E-15  0.35527136788E-14  0.91188000000E+02  0.91188000000E+02 0.  0.
    9900012    2    3    3    0    0 -0.27809435907E+02  0.46063237010E+00 -0.24128880817E+02  0.54367084787E+02  0.40000001389E+02 0.  0.
         12    1    3    3    0    0  0.27809435907E+02 -0.46063237010E+00  0.24128880817E+02  0.36820915213E+02  0.00000000000E+00 0. -1.
         11    1    4    4    0    0 -0.69086566993E+00  0.96409741490E+01 -0.20802595464E+01  0.98870196701E+01  0.51100000000E-03 0. -1.
        -11    1    4    4    0    0 -0.13696197381E+02  0.77923559068E+01 -0.38876679986E+01  0.16230237090E+02  0.51100000000E-03 0.  1.
        -12    1    4    4    0    0 -0.13422372856E+02 -0.16972697686E+02 -0.18160953272E+02  0.28249828027E+02  0.00000000000E+00 0.  1.
</event>
<event>
 8    1  0.2558382E-006  0.9118800E+02  0.7816164E-02  0.1184000E+00
        -11   -1    0    0    0    0  0.00000000000E+00  0.00000000000E+00  0.45593999997E+02  0.45594000000E+02  0.51100000000E-03 0.  1.
         11   -1    0    0    0    0 -0.00000000000E+00 -0.00000000000E+00 -0.45593999997E+02  0.45594000000E+02  0.51100000000E-03 0. -1.
         23    2    1    2    0    0  0.00000000000E+00 -0.17763568394E-14  0.35527136788E-14  0.91188000000E+02  0.91188000000E+02 0.  0.
    9900012    2    3    3    0    0 -0.24945767940E+02  0.13020467789E+02 -0.23747710678E+02  0.54367113509E+02  0.40000066866E+02 0.  0.
        -12    1    3    3    0    0  0.24945767940E+02 -0.13020467789E+02  0.23747710678E+02  0.36820886491E+02  0.00000000000E+00 0.  1.
         11    1    4    4    0    0 -0.70235369961E+01 -0.46297492674E+01 -0.70212211963E+01  0.10957289700E+02  0.51100000000E-03 0. -1.
        -11    1    4    4    0    0  0.10321437868E+01  0.20248663521E+02 -0.47015526070E+01  0.20812935698E+02  0.51100000000E-03 0.  1.
        -12    1    4    4    0    0 -0.18954374731E+02 -0.25984464647E+01 -0.12024936875E+02  0.22596888111E+02  0.00000000000E+00 0.  1.
</event>
<event>
 8    1  0.2558382E-006  0.9118800E+02  0.7816164E-02  0.1184000E+00
        -11   -1    0    0    0    0  0.00000000000E+00  0.00000000000E+00  0.45593999997E+02  0.45594000000E+02  0.51100000000E-03 0. -1.
         11   -1    0    0    0    0 -0.00000000000E+00 -0.00000000000E+00 -0.45593999997E+02  0.45594000000E+02  0.51100000000E-03 0.  1.
         23    2    1    2    0    0 -0.35527136788E-14  0.00000000000E+00  0.00000000000E+00  0.91188000000E+02  0.91188000000E+02 0.  0.
    9900012    2    3    3    0    0 -0.31430015934E+02  0.67573515991E+01  0.17951941131E+02  0.54367083491E+02  0.39999998434E+02 0.  0.
         12    1    3    3    0    0  0.31430015934E+02 -0.67573515991E+01 -0.17951941131E+02  0.36820916509E+02  0.00000000000E+00 0. -1.
         11    1    4    4    0    0  0.63068329748E+01  0.15512484047E+01  0.11081744529E+01  0.65886694153E+01  0.51100000000E-03 0. -1.
        -11    1    4    4    0    0 -0.15460578361E+02 -0.63062781941E+01  0.15314096074E+02  0.22656570057E+02  0.51100000000E-03 0.  1.
        -12    1    4    4    0    0 -0.22276270547E+02  0.11512381389E+02  0.15296706041E+01  0.25121844018E+02  0.00000000000E+00 0.  1.
</event>
<event>
 8    1  0.2558382E-006  0.9118800E+02  0.7816164E-02  0.1184000E+00
        -11   -1    0    0    0    0  0.00000000000E+00  0.00000000000E+00  0.45593999997E+02  0.45594000000E+02  0.51100000000E-03 0. -1.
         11   -1    0    0    0    0 -0.00000000000E+00 -0.00000000000E+00 -0.45593999997E+02  0.45594000000E+02  0.51100000000E-03 0.  1.
         23    2    1    2    0    0  0.99920072216E-15  0.00000000000E+00  0.00000000000E+00  0.91188000000E+02  0.91188000000E+02 0.  0.
    9900012    2    3    3    0    0  0.47767061584E+00  0.35614233537E+02 -0.93367040266E+01  0.54367138499E+02  0.40000123835E+02 0.  0.
         12    1    3    3    0    0 -0.47767061584E+00 -0.35614233537E+02  0.93367040266E+01  0.36820861501E+02  0.00000000000E+00 0. -1.
         11    1    4    4    0    0  0.14187841420E+02  0.32536838576E+02 -0.79312401516E+01  0.36370940039E+02  0.51100000000E-03 0. -1.
        -11    1    4    4    0    0 -0.82246979490E+01  0.54517218167E+01  0.32832569548E+01  0.10399360731E+02  0.51100000000E-03 0.  1.
         12    1    4    4    0    0 -0.54854728551E+01 -0.23743268562E+01 -0.46887208297E+01  0.75968377292E+01  0.00000000000E+00 0. -1.
</event>
<event>
 8    1  0.2558382E-006  0.9118800E+02  0.7816164E-02  0.1184000E+00
        -11   -1    0    0    0    0  0.00000000000E+00  0.00000000000E+00  0.45593999997E+02  0.45594000000E+02  0.51100000000E-03 0.  1.
         11   -1    0    0    0    0 -0.00000000000E+00 -0.00000000000E+00 -0.45593999997E+02  0.45594000000E+02  0.51100000000E-03 0. -1.
         23    2    1    2    0    0 -0.88817841970E-15  0.00000000000E+00  0.00000000000E+00  0.91188000000E+02  0.91188000000E+02 0.  0.
    9900012    2    3    3    0    0  0.63592817626E+01  0.36243323827E+02  0.13275794343E+01  0.54367062292E+02  0.39999950107E+02 0.  0.
         12    1    3    3    0    0 -0.63592817626E+01 -0.36243323827E+02 -0.13275794343E+01  0.36820937708E+02  0.00000000000E+00 0. -1.
         11    1    4    4    0    0 -0.72545996479E+00 -0.60703820743E+00 -0.22039854330E+01  0.23984035515E+01  0.51100000000E-03 0. -1.
        -11    1    4    4    0    0  0.51567624137E+01  0.35909726957E+02  0.15759999390E+02  0.39553486189E+02  0.51100000000E-03 0.  1.
        -12    1    4    4    0    0  0.19279793137E+01  0.94063507758E+00 -0.12228434523E+02  0.12415172551E+02  0.00000000000E+00 0.  1.
</event>
<event>
 8    1  0.2558382E-006  0.9118800E+02  0.7816164E-02  0.1184000E+00
        -11   -1    0    0    0    0  0.00000000000E+00  0.00000000000E+00  0.45593999997E+02  0.45594000000E+02  0.51100000000E-03 0.  1.
         11   -1    0    0    0    0 -0.00000000000E+00 -0.00000000000E+00 -0.45593999997E+02  0.45594000000E+02  0.51100000000E-03 0. -1.
         23    2    1    2    0    0  0.00000000000E+00  0.55511151231E-15  0.00000000000E+00  0.91188000000E+02  0.91188000000E+02 0.  0.
    9900012    2    3    3    0    0 -0.36515808035E+02 -0.73320993815E+00  0.46731437571E+01  0.54367080595E+02  0.39999991832E+02 0.  0.
        -12    1    3    3    0    0  0.36515808035E+02  0.73320993815E+00 -0.46731437571E+01  0.36820919405E+02  0.00000000000E+00 0.  1.
         11    1    4    4    0    0 -0.20846496883E+02 -0.39512063539E+01  0.78388702087E+01  0.22619379973E+02  0.51100000000E-03 0. -1.
        -11    1    4    4    0    0 -0.12000207723E+02 -0.73660885212E+01  0.77789846581E+01  0.16086542453E+02  0.51100000000E-03 0.  1.
         12    1    4    4    0    0 -0.36691034283E+01  0.10584084937E+02 -0.10944711110E+02  0.15661158169E+02  0.00000000000E+00 0. -1.
</event>
<event>
 8    1  0.2558382E-006  0.9118800E+02  0.7816164E-02  0.1184000E+00
        -11   -1    0    0    0    0  0.00000000000E+00  0.00000000000E+00  0.45593999997E+02  0.45594000000E+02  0.51100000000E-03 0.  1.
         11   -1    0    0    0    0 -0.00000000000E+00 -0.00000000000E+00 -0.45593999997E+02  0.45594000000E+02  0.51100000000E-03 0. -1.
         23    2    1    2    0    0  0.35527136788E-14  0.35527136788E-14  0.17763568394E-14  0.91188000000E+02  0.91188000000E+02 0.  0.
    9900012    2    3    3    0    0  0.19402402978E+02 -0.29780638844E+02 -0.96146105495E+01  0.54367076230E+02  0.39999981881E+02 0.  0.
        -12    1    3    3    0    0 -0.19402402978E+02  0.29780638844E+02  0.96146105495E+01  0.36820923770E+02  0.00000000000E+00 0.  1.
         11    1    4    4    0    0  0.11704840870E+02 -0.16446437569E+02  0.47519019695E+01  0.20738109391E+02  0.51100000000E-03 0. -1.
        -11    1    4    4    0    0  0.32884059089E+00 -0.56071987656E+01 -0.20540867985E+02  0.21294977623E+02  0.51100000000E-03 0.  1.
        -12    1    4    4    0    0  0.73687215173E+01 -0.77270025086E+01  0.61743554656E+01  0.12333989216E+02  0.00000000000E+00 0.  1.
</event>
<event>
 8    1  0.2558382E-006  0.9118800E+02  0.7816164E-02  0.1184000E+00
        -11   -1    0    0    0    0  0.00000000000E+00  0.00000000000E+00  0.45593999997E+02  0.45594000000E+02  0.51100000000E-03 0. -1.
         11   -1    0    0    0    0 -0.00000000000E+00 -0.00000000000E+00 -0.45593999997E+02  0.45594000000E+02  0.51100000000E-03 0.  1.
         23    2    1    2    0    0  0.00000000000E+00 -0.35527136788E-14  0.00000000000E+00  0.91188000000E+02  0.91188000000E+02 0.  0.
    9900012    2    3    3    0    0 -0.69485104907E+01  0.27930158933E+02  0.22965308728E+02  0.54367068710E+02  0.39999964739E+02 0.  0.
        -12    1    3    3    0    0  0.69485104907E+01 -0.27930158933E+02 -0.22965308728E+02  0.36820931290E+02  0.00000000000E+00 0.  1.
         11    1    4    4    0    0 -0.43998730081E+01  0.49629062494E+01  0.77267835509E+01  0.10182951695E+02  0.51100000000E-03 0. -1.
        -11    1    4    4    0    0 -0.17074437520E+02  0.77545445243E+01  0.13443543744E+02  0.23073756653E+02  0.51100000000E-03 0.  1.
        -12    1    4    4    0    0  0.14525800037E+02  0.15212708159E+02  0.17949814330E+01  0.21110360362E+02  0.00000000000E+00 0.  1.
</event>
<event>
 8    1  0.2558382E-006  0.9118800E+02  0.7816164E-02  0.1184000E+00
        -11   -1    0    0    0    0  0.00000000000E+00  0.00000000000E+00  0.45593999997E+02  0.45594000000E+02  0.51100000000E-03 0. -1.
         11   -1    0    0    0    0 -0.00000000000E+00 -0.00000000000E+00 -0.45593999997E+02  0.45594000000E+02  0.51100000000E-03 0.  1.
         23    2    1    2    0    0 -0.88817841970E-15  0.17763568394E-14  0.00000000000E+00  0.91188000000E+02  0.91188000000E+02 0.  0.
    9900012    2    3    3    0    0  0.40335513122E+01 -0.14219924425E+02  0.33723960508E+02  0.54367064390E+02  0.39999954890E+02 0.  0.
        -12    1    3    3    0    0 -0.40335513122E+01  0.14219924425E+02 -0.33723960508E+02  0.36820935610E+02  0.00000000000E+00 0.  1.
         11    1    4    4    0    0 -0.71061146375E+01  0.71696115275E+01  0.11914911499E+02  0.15616187466E+02  0.51100000000E-03 0. -1.
        -11    1    4    4    0    0 -0.27748978192E+01 -0.14876860177E+02  0.49051145943E+01  0.15908525264E+02  0.51100000000E-03 0.  1.
         12    1    4    4    0    0  0.13914563769E+02 -0.65126757757E+01  0.16903934415E+02  0.22842351660E+02  0.00000000000E+00 0. -1.
</event>
<event>
 8    1  0.2558382E-006  0.9118800E+02  0.7816164E-02  0.1184000E+00
        -11   -1    0    0    0    0  0.00000000000E+00  0.00000000000E+00  0.45593999997E+02  0.45594000000E+02  0.51100000000E-03 0. -1.
         11   -1    0    0    0    0 -0.00000000000E+00 -0.00000000000E+00 -0.45593999997E+02  0.45594000000E+02  0.51100000000E-03 0.  1.
         23    2    1    2    0    0  0.00000000000E+00 -0.88817841970E-15  0.00000000000E+00  0.91188000000E+02  0.91188000000E+02 0.  0.
    9900012    2    3    3    0    0  0.51282302290E+00 -0.67584447165E+01 -0.36191718569E+02  0.54367081280E+02  0.39999993393E+02 0.  0.
         12    1    3    3    0    0 -0.51282302290E+00  0.67584447165E+01  0.36191718569E+02  0.36820918720E+02  0.00000000000E+00 0. -1.
         11    1    4    4    0    0  0.39473807168E+01  0.40059820808E+01 -0.10367156628E+02  0.11794390351E+02  0.51100000000E-03 0. -1.
        -11    1    4    4    0    0 -0.66674071578E+01 -0.20750827458E+02 -0.23033972337E+02  0.31711433904E+02  0.51100000000E-03 0.  1.
        -12    1    4    4    0    0  0.32328494639E+01  0.99864006602E+01 -0.27905896040E+01  0.10861257024E+02  0.00000000000E+00 0.  1.
</event>
<event>
 8    1  0.2558382E-006  0.9118800E+02  0.7816164E-02  0.1184000E+00
        -11   -1    0    0    0    0  0.00000000000E+00  0.00000000000E+00  0.45593999997E+02  0.45594000000E+02  0.51100000000E-03 0.  1.
         11   -1    0    0    0    0 -0.00000000000E+00 -0.00000000000E+00 -0.45593999997E+02  0.45594000000E+02  0.51100000000E-03 0. -1.
         23    2    1    2    0    0 -0.17763568394E-14  0.00000000000E+00  0.00000000000E+00  0.91188000000E+02  0.91188000000E+02 0.  0.
    9900012    2    3    3    0    0 -0.61650962020E+01  0.31637485543E+02  0.17799995882E+02  0.54367098923E+02  0.40000033616E+02 0.  0.
         12    1    3    3    0    0  0.61650962020E+01 -0.31637485543E+02 -0.17799995882E+02  0.36820901077E+02  0.00000000000E+00 0. -1.
         11    1    4    4    0    0 -0.56343690701E+01  0.93063105342E+00  0.71031331890E+01  0.91140929519E+01  0.51100000000E-03 0. -1.
        -11    1    4    4    0    0  0.12623380524E+02  0.20942873281E+02 -0.19885277629E+01  0.24533811771E+02  0.51100000000E-03 0.  1.
        -12    1    4    4    0    0 -0.13154107656E+02  0.97639812093E+01  0.12685390456E+02  0.20719194200E+02  0.00000000000E+00 0.  1.
</event>
<event>
 8    1  0.2558382E-006  0.9118800E+02  0.7816164E-02  0.1184000E+00
        -11   -1    0    0    0    0  0.00000000000E+00  0.00000000000E+00  0.45593999997E+02  0.45594000000E+02  0.51100000000E-03 0. -1.
         11   -1    0    0    0    0 -0.00000000000E+00 -0.00000000000E+00 -0.45593999997E+02  0.45594000000E+02  0.51100000000E-03 0.  1.
         23    2    1    2    0    0  0.00000000000E+00  0.00000000000E+00  0.00000000000E+00  0.91188000000E+02  0.91188000000E+02 0.  0.
    9900012    2    3    3    0    0 -0.21366318297E+02  0.28701771839E+02 -0.86872906399E+01  0.54367078190E+02  0.39999986350E+02 0.  0.
        -12    1    3    3    0    0  0.21366318297E+02 -0.28701771839E+02  0.86872906399E+01  0.36820921810E+02  0.00000000000E+00 0.  1.
         11    1    4    4    0    0 -0.10981468220E+02  0.13102984133E+02 -0.37836970573E+00  0.17100409392E+02  0.51100000000E-03 0. -1.
        -11    1    4    4    0    0 -0.15485968545E+02  0.20083117479E+02  0.14216257152E+01  0.25400154515E+02  0.51100000000E-03 0.  1.
        -12    1    4    4    0    0  0.51011184681E+01 -0.44843297731E+01 -0.97305466494E+01  0.11866514283E+02  0.00000000000E+00 0.  1.
</event>
<event>
 8    1  0.2558382E-006  0.9118800E+02  0.7816164E-02  0.1184000E+00
        -11   -1    0    0    0    0  0.00000000000E+00  0.00000000000E+00  0.45593999997E+02  0.45594000000E+02  0.51100000000E-03 0.  1.
         11   -1    0    0    0    0 -0.00000000000E+00 -0.00000000000E+00 -0.45593999997E+02  0.45594000000E+02  0.51100000000E-03 0. -1.
         23    2    1    2    0    0 -0.71054273576E-14  0.53290705182E-14  0.00000000000E+00  0.91188000000E+02  0.91188000000E+02 0.  0.
    9900012    2    3    3    0    0 -0.31880500840E+02  0.88483970745E+01 -0.16159226317E+02  0.54367067641E+02  0.39999962302E+02 0.  0.
        -12    1    3    3    0    0  0.31880500840E+02 -0.88483970745E+01  0.16159226317E+02  0.36820932359E+02  0.00000000000E+00 0.  1.
         11    1    4    4    0    0 -0.12065597679E+02 -0.43848388995E+01 -0.10903521349E+02  0.16843165902E+02  0.51100000000E-03 0. -1.
        -11    1    4    4    0    0  0.17594443223E+00 -0.49881980731E+01  0.63612400750E+01  0.80856942814E+01  0.51100000000E-03 0.  1.
        -12    1    4    4    0    0 -0.19990847593E+02  0.18221434047E+02 -0.11616945043E+02  0.29438207458E+02  0.00000000000E+00 0.  1.
</event>
<event>
 8    1  0.2558382E-006  0.9118800E+02  0.7816164E-02  0.1184000E+00
        -11   -1    0    0    0    0  0.00000000000E+00  0.00000000000E+00  0.45593999997E+02  0.45594000000E+02  0.51100000000E-03 0. -1.
         11   -1    0    0    0    0 -0.00000000000E+00 -0.00000000000E+00 -0.45593999997E+02  0.45594000000E+02  0.51100000000E-03 0.  1.
         23    2    1    2    0    0 -0.88817841970E-15  0.00000000000E+00  0.00000000000E+00  0.91188000000E+02  0.91188000000E+02 0.  0.
    9900012    2    3    3    0    0  0.65762170599E+01  0.32029087664E+02  0.16931346651E+02  0.54367087643E+02  0.40000007900E+02 0.  0.
        -12    1    3    3    0    0 -0.65762170599E+01 -0.32029087664E+02 -0.16931346651E+02  0.36820912357E+02  0.00000000000E+00 0.  1.
         11    1    4    4    0    0  0.13873132549E+02  0.25141174341E+02  0.25565298537E+02  0.38446416524E+02  0.51100000000E-03 0. -1.
        -11    1    4    4    0    0 -0.57813529644E+01  0.72811096141E+01 -0.25530161152E+01  0.96413946531E+01  0.51100000000E-03 0.  1.
         12    1    4    4    0    0 -0.15155625249E+01 -0.39319629126E+00 -0.60809357708E+01  0.62792764662E+01  0.00000000000E+00 0. -1.
</event>
<event>
 8    1  0.2558382E-006  0.9118800E+02  0.7816164E-02  0.1184000E+00
        -11   -1    0    0    0    0  0.00000000000E+00  0.00000000000E+00  0.45593999997E+02  0.45594000000E+02  0.51100000000E-03 0. -1.
         11   -1    0    0    0    0 -0.00000000000E+00 -0.00000000000E+00 -0.45593999997E+02  0.45594000000E+02  0.51100000000E-03 0.  1.
         23    2    1    2    0    0  0.00000000000E+00  0.00000000000E+00  0.71054273576E-14  0.91188000000E+02  0.91188000000E+02 0.  0.
    9900012    2    3    3    0    0 -0.10048485413E+02  0.19968646833E+02  0.29258512988E+02  0.54367088853E+02  0.40000010657E+02 0.  0.
        -12    1    3    3    0    0  0.10048485413E+02 -0.19968646833E+02 -0.29258512988E+02  0.36820911147E+02  0.00000000000E+00 0.  1.
         11    1    4    4    0    0  0.45410089718E+01  0.83854363324E+00  0.45332843102E+01  0.64710574719E+01  0.51100000000E-03 0. -1.
        -11    1    4    4    0    0  0.25624001692E+01  0.95307934328E+00 -0.69967628794E+01  0.75119202547E+01  0.51100000000E-03 0.  1.
        -12    1    4    4    0    0 -0.17151894554E+02  0.18177023857E+02  0.31721991557E+02  0.40384111126E+02  0.00000000000E+00 0.  1.
</event>
<event>
 8    1  0.2558382E-006  0.9118800E+02  0.7816164E-02  0.1184000E+00
        -11   -1    0    0    0    0  0.00000000000E+00  0.00000000000E+00  0.45593999997E+02  0.45594000000E+02  0.51100000000E-03 0. -1.
         11   -1    0    0    0    0 -0.00000000000E+00 -0.00000000000E+00 -0.45593999997E+02  0.45594000000E+02  0.51100000000E-03 0.  1.
         23    2    1    2    0    0  0.00000000000E+00  0.35527136788E-14  0.26645352591E-14  0.91188000000E+02  0.91188000000E+02 0.  0.
    9900012    2    3    3    0    0 -0.21011110370E+02  0.29944616590E+02  0.41991885130E+01  0.54367081952E+02  0.39999994927E+02 0.  0.
        -12    1    3    3    0    0  0.21011110370E+02 -0.29944616590E+02 -0.41991885130E+01  0.36820918048E+02  0.00000000000E+00 0.  1.
         11    1    4    4    0    0 -0.15416525671E+02  0.31688197131E+02 -0.10825341424E+02  0.36864605225E+02  0.51100000000E-03 0. -1.
        -11    1    4    4    0    0 -0.33195173660E+01  0.87921321378E+00  0.13079468483E+02  0.13522747778E+02  0.51100000000E-03 0.  1.
         12    1    4    4    0    0 -0.22750673334E+01 -0.26227937545E+01  0.19450614543E+01  0.39797289495E+01  0.00000000000E+00 0. -1.
</event>
<event>
 8    1  0.2558382E-006  0.9118800E+02  0.7816164E-02  0.1184000E+00
        -11   -1    0    0    0    0  0.00000000000E+00  0.00000000000E+00  0.45593999997E+02  0.45594000000E+02  0.51100000000E-03 0.  1.
         11   -1    0    0    0    0 -0.00000000000E+00 -0.00000000000E+00 -0.45593999997E+02  0.45594000000E+02  0.51100000000E-03 0. -1.
         23    2    1    2    0    0  0.00000000000E+00  0.44408920985E-15  0.00000000000E+00  0.91188000000E+02  0.91188000000E+02 0.  0.
    9900012    2    3    3    0    0  0.14650533754E+02 -0.30553720399E+01  0.33642327621E+02  0.54367086848E+02  0.40000006087E+02 0.  0.
         12    1    3    3    0    0 -0.14650533754E+02  0.30553720399E+01 -0.33642327621E+02  0.36820913152E+02  0.00000000000E+00 0. -1.
         11    1    4    4    0    0  0.12252450581E+02  0.92290023264E+01  0.46282471505E+01  0.16022412463E+02  0.51100000000E-03 0. -1.
        -11    1    4    4    0    0  0.84509681000E+01  0.20529738197E+01  0.60119221230E+01  0.10572453415E+02  0.51100000000E-03 0.  1.
        -12    1    4    4    0    0 -0.60528849279E+01 -0.14337348186E+02  0.23002158348E+02  0.27772220970E+02  0.00000000000E+00 0.  1.
</event>
<event>
 8    1  0.2558382E-006  0.9118800E+02  0.7816164E-02  0.1184000E+00
        -11   -1    0    0    0    0  0.00000000000E+00  0.00000000000E+00  0.45593999997E+02  0.45594000000E+02  0.51100000000E-03 0.  1.
         11   -1    0    0    0    0 -0.00000000000E+00 -0.00000000000E+00 -0.45593999997E+02  0.45594000000E+02  0.51100000000E-03 0. -1.
         23    2    1    2    0    0 -0.71054273576E-14 -0.44408920985E-15  0.00000000000E+00  0.91188000000E+02  0.91188000000E+02 0.  0.
    9900012    2    3    3    0    0  0.33383016618E+02  0.33969031819E+01 -0.15159682453E+02  0.54367072230E+02  0.39999972763E+02 0.  0.
        -12    1    3    3    0    0 -0.33383016618E+02 -0.33969031819E+01  0.15159682453E+02  0.36820927770E+02  0.00000000000E+00 0.  1.
         11    1    4    4    0    0  0.51861520077E+01 -0.13287216834E+01 -0.73282176123E+01  0.90754860802E+01  0.51100000000E-03 0. -1.
        -11    1    4    4    0    0 -0.20862967643E+01 -0.82364375132E+01  0.50931312475E+01  0.99061356372E+01  0.51100000000E-03 0.  1.
         12    1    4    4    0    0  0.30283161375E+02  0.12962062378E+02 -0.12924596088E+02  0.35385450513E+02  0.00000000000E+00 0. -1.
</event>
<event>
 8    1  0.2558382E-006  0.9118800E+02  0.7816164E-02  0.1184000E+00
        -11   -1    0    0    0    0  0.00000000000E+00  0.00000000000E+00  0.45593999997E+02  0.45594000000E+02  0.51100000000E-03 0. -1.
         11   -1    0    0    0    0 -0.00000000000E+00 -0.00000000000E+00 -0.45593999997E+02  0.45594000000E+02  0.51100000000E-03 0.  1.
         23    2    1    2    0    0  0.00000000000E+00  0.17763568394E-14  0.17763568394E-14  0.91188000000E+02  0.91188000000E+02 0.  0.
    9900012    2    3    3    0    0 -0.34133536245E+02  0.12357016657E+02  0.61631462425E+01  0.54367102009E+02  0.40000040650E+02 0.  0.
        -12    1    3    3    0    0  0.34133536245E+02 -0.12357016657E+02 -0.61631462425E+01  0.36820897991E+02  0.00000000000E+00 0.  1.
         11    1    4    4    0    0 -0.41758569398E+02  0.89967912542E+01  0.58225790169E+01  0.43111747792E+02  0.51100000000E-03 0. -1.
        -11    1    4    4    0    0 -0.13079250834E+01  0.81044046326E-01  0.10977344100E+01  0.17094611014E+01  0.51100000000E-03 0.  1.
        -12    1    4    4    0    0  0.89329582364E+01  0.32791813565E+01 -0.75716718434E+00  0.95458931152E+01  0.00000000000E+00 0.  1.
</event>
<event>
 8    1  0.2558382E-006  0.9118800E+02  0.7816164E-02  0.1184000E+00
        -11   -1    0    0    0    0  0.00000000000E+00  0.00000000000E+00  0.45593999997E+02  0.45594000000E+02  0.51100000000E-03 0. -1.
         11   -1    0    0    0    0 -0.00000000000E+00 -0.00000000000E+00 -0.45593999997E+02  0.45594000000E+02  0.51100000000E-03 0.  1.
         23    2    1    2    0    0  0.00000000000E+00  0.00000000000E+00  0.17763568394E-14  0.91188000000E+02  0.91188000000E+02 0.  0.
    9900012    2    3    3    0    0 -0.33668671345E+02 -0.97927310660E+01  0.11238407272E+02  0.54367098193E+02  0.40000031950E+02 0.  0.
         12    1    3    3    0    0  0.33668671345E+02  0.97927310660E+01 -0.11238407272E+02  0.36820901807E+02  0.00000000000E+00 0. -1.
         11    1    4    4    0    0 -0.20525603034E+02 -0.20333355803E+02  0.17423852322E+02  0.33739240776E+02  0.51100000000E-03 0. -1.
        -11    1    4    4    0    0  0.13703676366E+01  0.30396316420E+01 -0.84106072315E+00  0.34386990825E+01  0.51100000000E-03 0.  1.
         12    1    4    4    0    0 -0.14513435948E+02  0.75009930951E+01 -0.53443843268E+01  0.17189158335E+02  0.00000000000E+00 0. -1.
</event>
<event>
 8    1  0.2558382E-006  0.9118800E+02  0.7816164E-02  0.1184000E+00
        -11   -1    0    0    0    0  0.00000000000E+00  0.00000000000E+00  0.45593999997E+02  0.45594000000E+02  0.51100000000E-03 0. -1.
         11   -1    0    0    0    0 -0.00000000000E+00 -0.00000000000E+00 -0.45593999997E+02  0.45594000000E+02  0.51100000000E-03 0.  1.
         23    2    1    2    0    0  0.00000000000E+00  0.00000000000E+00 -0.35527136788E-14  0.91188000000E+02  0.91188000000E+02 0.  0.
    9900012    2    3    3    0    0  0.24390812080E+02  0.17660883019E+02 -0.21188634249E+02  0.54367126514E+02  0.40000096514E+02 0.  0.
         12    1    3    3    0    0 -0.24390812080E+02 -0.17660883019E+02  0.21188634249E+02  0.36820873486E+02  0.00000000000E+00 0. -1.
         11    1    4    4    0    0  0.23991129263E+01 -0.77860610994E+01 -0.15566823453E+02  0.17569988132E+02  0.51100000000E-03 0. -1.
        -11    1    4    4    0    0  0.11135630505E+02  0.13716493117E+02 -0.98988698578E+01  0.20251717826E+02  0.51100000000E-03 0.  1.
         12    1    4    4    0    0  0.10856068649E+02  0.11730451001E+02  0.42770590611E+01  0.16545420557E+02  0.00000000000E+00 0. -1.
</event>
<event>
 8    1  0.2558382E-006  0.9118800E+02  0.7816164E-02  0.1184000E+00
        -11   -1    0    0    0    0  0.00000000000E+00  0.00000000000E+00  0.45593999997E+02  0.45594000000E+02  0.51100000000E-03 0.  1.
         11   -1    0    0    0    0 -0.00000000000E+00 -0.00000000000E+00 -0.45593999997E+02  0.45594000000E+02  0.51100000000E-03 0. -1.
         23    2    1    2    0    0 -0.17763568394E-14  0.17763568394E-14  0.00000000000E+00  0.91188000000E+02  0.91188000000E+02 0.  0.
    9900012    2    3    3    0    0  0.59183767783E+01 -0.14542968265E+02 -0.33305472479E+02  0.54367087373E+02  0.40000007284E+02 0.  0.
        -12    1    3    3    0    0 -0.59183767783E+01  0.14542968265E+02  0.33305472479E+02  0.36820912627E+02  0.00000000000E+00 0.  1.
         11    1    4    4    0    0 -0.14139733572E+02 -0.17125535431E+01 -0.40626198776E+01  0.14811137217E+02  0.51100000000E-03 0. -1.
        -11    1    4    4    0    0  0.24675239096E+01  0.79217132517E+00 -0.93780794738E+01  0.97295726798E+01  0.51100000000E-03 0.  1.
        -12    1    4    4    0    0  0.17590586441E+02 -0.13622586047E+02 -0.19864773127E+02  0.29826377476E+02  0.00000000000E+00 0.  1.
</event>
<event>
 8    1  0.2558382E-006  0.9118800E+02  0.7816164E-02  0.1184000E+00
        -11   -1    0    0    0    0  0.00000000000E+00  0.00000000000E+00  0.45593999997E+02  0.45594000000E+02  0.51100000000E-03 0. -1.
         11   -1    0    0    0    0 -0.00000000000E+00 -0.00000000000E+00 -0.45593999997E+02  0.45594000000E+02  0.51100000000E-03 0.  1.
         23    2    1    2    0    0 -0.35527136788E-14  0.17763568394E-14 -0.35527136788E-14  0.91188000000E+02  0.91188000000E+02 0.  0.
    9900012    2    3    3    0    0  0.21970377724E+02  0.58284775863E+01  0.28967440715E+02  0.54367064788E+02  0.39999955796E+02 0.  0.
        -12    1    3    3    0    0 -0.21970377724E+02 -0.58284775863E+01 -0.28967440715E+02  0.36820935212E+02  0.00000000000E+00 0.  1.
         11    1    4    4    0    0  0.19115683036E+01  0.11776833481E+02  0.20883394539E+02  0.24051279965E+02  0.51100000000E-03 0. -1.
        -11    1    4    4    0    0  0.17295501829E+02 -0.12763360986E+02  0.80752183138E+01  0.22961857901E+02  0.51100000000E-03 0.  1.
        -12    1    4    4    0    0  0.27633075914E+01  0.68150050915E+01  0.88278627294E-02  0.73539269220E+01  0.00000000000E+00 0.  1.
</event>
<event>
 8    1  0.2558382E-006  0.9118800E+02  0.7816164E-02  0.1184000E+00
        -11   -1    0    0    0    0  0.00000000000E+00  0.00000000000E+00  0.45593999997E+02  0.45594000000E+02  0.51100000000E-03 0. -1.
         11   -1    0    0    0    0 -0.00000000000E+00 -0.00000000000E+00 -0.45593999997E+02  0.45594000000E+02  0.51100000000E-03 0.  1.
         23    2    1    2    0    0  0.00000000000E+00 -0.17763568394E-14  0.88817841970E-15  0.91188000000E+02  0.91188000000E+02 0.  0.
    9900012    2    3    3    0    0  0.33258494600E+02  0.14080806989E+02 -0.71681196311E+01  0.54367102027E+02  0.40000040691E+02 0.  0.
         12    1    3    3    0    0 -0.33258494600E+02 -0.14080806989E+02  0.71681196311E+01  0.36820897973E+02  0.00000000000E+00 0. -1.
         11    1    4    4    0    0  0.33975571779E+02 -0.21118494352E+00 -0.63894723115E+01  0.34571801131E+02  0.51100000000E-03 0. -1.
        -11    1    4    4    0    0 -0.76112260392E+00  0.48073802622E+00 -0.52125454152E+01  0.52897113943E+01  0.51100000000E-03 0.  1.
         12    1    4    4    0    0  0.44045424888E-01  0.13811253906E+02  0.44338980956E+01  0.14505589501E+02  0.00000000000E+00 0. -1.
</event>
<event>
 8    1  0.2558382E-006  0.9118800E+02  0.7816164E-02  0.1184000E+00
        -11   -1    0    0    0    0  0.00000000000E+00  0.00000000000E+00  0.45593999997E+02  0.45594000000E+02  0.51100000000E-03 0. -1.
         11   -1    0    0    0    0 -0.00000000000E+00 -0.00000000000E+00 -0.45593999997E+02  0.45594000000E+02  0.51100000000E-03 0.  1.
         23    2    1    2    0    0  0.17763568394E-14  0.00000000000E+00  0.00000000000E+00  0.91188000000E+02  0.91188000000E+02 0.  0.
    9900012    2    3    3    0    0 -0.14398866599E+02 -0.18820779323E+02  0.28182236939E+02  0.54366979203E+02  0.39999760689E+02 0.  0.
        -12    1    3    3    0    0  0.14398866599E+02  0.18820779323E+02 -0.28182236939E+02  0.36821020797E+02  0.00000000000E+00 0.  1.
         11    1    4    4    0    0 -0.48238619534E+01 -0.93904602717E+01  0.21074339297E+02  0.23570705661E+02  0.51100000000E-03 0. -1.
        -11    1    4    4    0    0 -0.78059345030E+00 -0.16862598975E+02 -0.68190141488E+00  0.16894423936E+02  0.51100000000E-03 0.  1.
        -12    1    4    4    0    0 -0.87944111952E+01  0.74322799239E+01  0.77897990561E+01  0.13901849606E+02  0.00000000000E+00 0.  1.
</event>
<event>
 8    1  0.2558382E-006  0.9118800E+02  0.7816164E-02  0.1184000E+00
        -11   -1    0    0    0    0  0.00000000000E+00  0.00000000000E+00  0.45593999997E+02  0.45594000000E+02  0.51100000000E-03 0.  1.
         11   -1    0    0    0    0 -0.00000000000E+00 -0.00000000000E+00 -0.45593999997E+02  0.45594000000E+02  0.51100000000E-03 0. -1.
         23    2    1    2    0    0 -0.35527136788E-14  0.00000000000E+00  0.00000000000E+00  0.91188000000E+02  0.91188000000E+02 0.  0.
    9900012    2    3    3    0    0  0.25896238738E+02 -0.11503672742E+02 -0.23512340056E+02  0.54367084717E+02  0.40000001229E+02 0.  0.
        -12    1    3    3    0    0 -0.25896238738E+02  0.11503672742E+02  0.23512340056E+02  0.36820915283E+02  0.00000000000E+00 0.  1.
         11    1    4    4    0    0  0.26346290849E+01 -0.34075693059E+01  0.50537870852E+01  0.66402984235E+01  0.51100000000E-03 0. -1.
        -11    1    4    4    0    0  0.15921996793E+02 -0.10439839423E+01  0.14595355974E+01  0.16022800279E+02  0.51100000000E-03 0.  1.
         12    1    4    4    0    0  0.73396128603E+01 -0.70521194942E+01 -0.30025662739E+02  0.31703986015E+02  0.00000000000E+00 0. -1.
</event>
<event>
 8    1  0.2558382E-006  0.9118800E+02  0.7816164E-02  0.1184000E+00
        -11   -1    0    0    0    0  0.00000000000E+00  0.00000000000E+00  0.45593999997E+02  0.45594000000E+02  0.51100000000E-03 0.  1.
         11   -1    0    0    0    0 -0.00000000000E+00 -0.00000000000E+00 -0.45593999997E+02  0.45594000000E+02  0.51100000000E-03 0. -1.
         23    2    1    2    0    0  0.00000000000E+00  0.00000000000E+00  0.00000000000E+00  0.91188000000E+02  0.91188000000E+02 0.  0.
    9900012    2    3    3    0    0 -0.35171620849E+02 -0.10335605782E+02  0.34513937867E+01  0.54367085031E+02  0.40000001946E+02 0.  0.
         12    1    3    3    0    0  0.35171620849E+02  0.10335605782E+02 -0.34513937867E+01  0.36820914969E+02  0.00000000000E+00 0. -1.
         11    1    4    4    0    0 -0.11689561553E+02 -0.10107457441E+02 -0.23935228403E+01  0.15637630801E+02  0.51100000000E-03 0. -1.
        -11    1    4    4    0    0 -0.27806365157E+02 -0.79021787329E+01  0.72670520930E+01  0.29806851869E+02  0.51100000000E-03 0.  1.
        -12    1    4    4    0    0  0.43243058607E+01  0.76740303911E+01 -0.14221354660E+01  0.89226023616E+01  0.00000000000E+00 0.  1.
</event>
<event>
 8    1  0.2558382E-006  0.9118800E+02  0.7816164E-02  0.1184000E+00
        -11   -1    0    0    0    0  0.00000000000E+00  0.00000000000E+00  0.45593999997E+02  0.45594000000E+02  0.51100000000E-03 0. -1.
         11   -1    0    0    0    0 -0.00000000000E+00 -0.00000000000E+00 -0.45593999997E+02  0.45594000000E+02  0.51100000000E-03 0.  1.
         23    2    1    2    0    0  0.00000000000E+00  0.00000000000E+00  0.35527136788E-14  0.91188000000E+02  0.91188000000E+02 0.  0.
    9900012    2    3    3    0    0  0.20000818911E+02 -0.11473945389E+02 -0.28707134832E+02  0.54367030836E+02  0.39999878397E+02 0.  0.
         12    1    3    3    0    0 -0.20000818911E+02  0.11473945389E+02  0.28707134832E+02  0.36820969164E+02  0.00000000000E+00 0. -1.
         11    1    4    4    0    0  0.20150301198E+02 -0.13976753460E+02 -0.36696824234E+01  0.24796186097E+02  0.51100000000E-03 0. -1.
        -11    1    4    4    0    0  0.23464106671E+01 -0.40418748121E+01 -0.20941578556E+02  0.21456749700E+02  0.51100000000E-03 0.  1.
         12    1    4    4    0    0 -0.24958929541E+01  0.65446828833E+01 -0.40958738530E+01  0.81140950389E+01  0.00000000000E+00 0. -1.
</event>
<event>
 8    1  0.2558382E-006  0.9118800E+02  0.7816164E-02  0.1184000E+00
        -11   -1    0    0    0    0  0.00000000000E+00  0.00000000000E+00  0.45593999997E+02  0.45594000000E+02  0.51100000000E-03 0.  1.
         11   -1    0    0    0    0 -0.00000000000E+00 -0.00000000000E+00 -0.45593999997E+02  0.45594000000E+02  0.51100000000E-03 0. -1.
         23    2    1    2    0    0 -0.35527136788E-14  0.00000000000E+00  0.00000000000E+00  0.91188000000E+02  0.91188000000E+02 0.  0.
    9900012    2    3    3    0    0  0.16935707278E+02 -0.53529498426E+01  0.32253797993E+02  0.54367085590E+02  0.40000003220E+02 0.  0.
         12    1    3    3    0    0 -0.16935707278E+02  0.53529498426E+01 -0.32253797993E+02  0.36820914410E+02  0.00000000000E+00 0. -1.
         11    1    4    4    0    0 -0.33829149992E+01 -0.47207512260E+01 -0.21947464514E+01  0.62085842409E+01  0.51100000000E-03 0. -1.
        -11    1    4    4    0    0  0.19160979726E+02 -0.43813857760E+01  0.76780128381E+01  0.21101932774E+02  0.51100000000E-03 0.  1.
        -12    1    4    4    0    0  0.11576425508E+01  0.37491871594E+01  0.26770531606E+02  0.27056568576E+02  0.00000000000E+00 0.  1.
</event>
<event>
 8    1  0.2558382E-006  0.9118800E+02  0.7816164E-02  0.1184000E+00
        -11   -1    0    0    0    0  0.00000000000E+00  0.00000000000E+00  0.45593999997E+02  0.45594000000E+02  0.51100000000E-03 0. -1.
         11   -1    0    0    0    0 -0.00000000000E+00 -0.00000000000E+00 -0.45593999997E+02  0.45594000000E+02  0.51100000000E-03 0.  1.
         23    2    1    2    0    0  0.00000000000E+00  0.00000000000E+00  0.35527136788E-14  0.91188000000E+02  0.91188000000E+02 0.  0.
    9900012    2    3    3    0    0 -0.21458761833E+02 -0.11602800445E+02  0.27580330559E+02  0.54367108223E+02  0.40000054815E+02 0.  0.
        -12    1    3    3    0    0  0.21458761833E+02  0.11602800445E+02 -0.27580330559E+02  0.36820891777E+02  0.00000000000E+00 0.  1.
         11    1    4    4    0    0 -0.13301035805E+02 -0.18025609688E+02  0.14342612922E+01  0.22447656088E+02  0.51100000000E-03 0. -1.
        -11    1    4    4    0    0 -0.22118072562E+01  0.81816130356E+01  0.23843718751E+02  0.25305213047E+02  0.51100000000E-03 0.  1.
        -12    1    4    4    0    0 -0.59459187716E+01 -0.17588037922E+01  0.23023505151E+01  0.66142390879E+01  0.00000000000E+00 0.  1.
</event>
<event>
 8    1  0.2558382E-006  0.9118800E+02  0.7816164E-02  0.1184000E+00
        -11   -1    0    0    0    0  0.00000000000E+00  0.00000000000E+00  0.45593999997E+02  0.45594000000E+02  0.51100000000E-03 0. -1.
         11   -1    0    0    0    0 -0.00000000000E+00 -0.00000000000E+00 -0.45593999997E+02  0.45594000000E+02  0.51100000000E-03 0.  1.
         23    2    1    2    0    0  0.00000000000E+00 -0.71054273576E-14 -0.44408920985E-15  0.91188000000E+02  0.91188000000E+02 0.  0.
    9900012    2    3    3    0    0 -0.17732181663E+02  0.32168737136E+02  0.25535907661E+01  0.54367099125E+02  0.40000034076E+02 0.  0.
         12    1    3    3    0    0  0.17732181663E+02 -0.32168737136E+02 -0.25535907661E+01  0.36820900875E+02  0.00000000000E+00 0. -1.
         11    1    4    4    0    0  0.34509077756E+00  0.35377657042E+01 -0.45431465388E+01  0.57684533939E+01  0.51100000000E-03 0. -1.
        -11    1    4    4    0    0 -0.21977011137E+02  0.33414205998E+02  0.11229337459E+01  0.40009488393E+02  0.51100000000E-03 0.  1.
         12    1    4    4    0    0  0.38997386960E+01 -0.47832345671E+01  0.59738035590E+01  0.85891573383E+01  0.00000000000E+00 0. -1.
</event>
<event>
 8    1  0.2558382E-006  0.9118800E+02  0.7816164E-02  0.1184000E+00
        -11   -1    0    0    0    0  0.00000000000E+00  0.00000000000E+00  0.45593999997E+02  0.45594000000E+02  0.51100000000E-03 0. -1.
         11   -1    0    0    0    0 -0.00000000000E+00 -0.00000000000E+00 -0.45593999997E+02  0.45594000000E+02  0.51100000000E-03 0.  1.
         23    2    1    2    0    0  0.71054273576E-14  0.00000000000E+00  0.35527136788E-14  0.91188000000E+02  0.91188000000E+02 0.  0.
    9900012    2    3    3    0    0  0.33080306501E+02  0.21961227535E+01  0.16020283255E+02  0.54367094132E+02  0.40000022693E+02 0.  0.
        -12    1    3    3    0    0 -0.33080306501E+02 -0.21961227535E+01 -0.16020283255E+02  0.36820905868E+02  0.00000000000E+00 0.  1.
         11    1    4    4    0    0  0.63530491125E+01 -0.80125162271E+00  0.11322717369E+02  0.13007965486E+02  0.51100000000E-03 0.  1.
        -11    1    4    4    0    0  0.26634151399E+02 -0.87379644560E+01 -0.15316098208E+01  0.28072689085E+02  0.51100000000E-03 0. -1.
        -12    1    4    4    0    0  0.93105989658E-01  0.11735338832E+02  0.62291757065E+01  0.13286439561E+02  0.00000000000E+00 0.  1.
</event>
<event>
 8    1  0.2558382E-006  0.9118800E+02  0.7816164E-02  0.1184000E+00
        -11   -1    0    0    0    0  0.00000000000E+00  0.00000000000E+00  0.45593999997E+02  0.45594000000E+02  0.51100000000E-03 0.  1.
         11   -1    0    0    0    0 -0.00000000000E+00 -0.00000000000E+00 -0.45593999997E+02  0.45594000000E+02  0.51100000000E-03 0. -1.
         23    2    1    2    0    0  0.44408920985E-15  0.00000000000E+00  0.66613381478E-15  0.91188000000E+02  0.91188000000E+02 0.  0.
    9900012    2    3    3    0    0 -0.33019387614E+01  0.36618865731E+02 -0.19808237620E+01  0.54367247838E+02  0.40000373095E+02 0.  0.
        -12    1    3    3    0    0  0.33019387614E+01 -0.36618865731E+02  0.19808237620E+01  0.36820752162E+02  0.00000000000E+00 0.  1.
         11    1    4    4    0    0 -0.17475531267E+01  0.99846114175E+01 -0.14054310649E+01  0.10233359362E+02  0.51100000000E-03 0. -1.
        -11    1    4    4    0    0  0.58725413679E+01  0.32527481434E+02 -0.54071201077E+01  0.33492696796E+02  0.51100000000E-03 0.  1.
         12    1    4    4    0    0 -0.74269270026E+01 -0.58932271208E+01  0.48317274107E+01  0.10641191680E+02  0.00000000000E+00 0. -1.
</event>
<event>
 8    1  0.2558382E-006  0.9118800E+02  0.7816164E-02  0.1184000E+00
        -11   -1    0    0    0    0  0.00000000000E+00  0.00000000000E+00  0.45593999997E+02  0.45594000000E+02  0.51100000000E-03 0.  1.
         11   -1    0    0    0    0 -0.00000000000E+00 -0.00000000000E+00 -0.45593999997E+02  0.45594000000E+02  0.51100000000E-03 0. -1.
         23    2    1    2    0    0 -0.35527136788E-14  0.00000000000E+00 -0.88817841970E-15  0.91188000000E+02  0.91188000000E+02 0.  0.
    9900012    2    3    3    0    0 -0.13761350141E+02 -0.33721696194E+02 -0.54085026745E+01  0.54367089459E+02  0.40000012040E+02 0.  0.
        -12    1    3    3    0    0  0.13761350141E+02  0.33721696194E+02  0.54085026745E+01  0.36820910541E+02  0.00000000000E+00 0.  1.
         11    1    4    4    0    0 -0.17203362782E+02 -0.12553306305E+02 -0.31791883409E+01  0.21532497045E+02  0.51100000000E-03 0. -1.
        -11    1    4    4    0    0  0.19677459211E+01 -0.26064372581E+02 -0.55719083013E+01  0.26725824673E+02  0.51100000000E-03 0.  1.
        -12    1    4    4    0    0  0.14742667202E+01  0.48959826930E+01  0.33425939677E+01  0.61087677419E+01  0.00000000000E+00 0.  1.
</event>
<event>
 8    1  0.2558382E-006  0.9118800E+02  0.7816164E-02  0.1184000E+00
        -11   -1    0    0    0    0  0.00000000000E+00  0.00000000000E+00  0.45593999997E+02  0.45594000000E+02  0.51100000000E-03 0.  1.
         11   -1    0    0    0    0 -0.00000000000E+00 -0.00000000000E+00 -0.45593999997E+02  0.45594000000E+02  0.51100000000E-03 0. -1.
         23    2    1    2    0    0  0.00000000000E+00  0.71054273576E-14  0.00000000000E+00  0.91188000000E+02  0.91188000000E+02 0.  0.
    9900012    2    3    3    0    0 -0.42330342734E+01  0.36310789095E+02  0.44031420629E+01  0.54367086867E+02  0.40000006132E+02 0.  0.
         12    1    3    3    0    0  0.42330342734E+01 -0.36310789095E+02 -0.44031420629E+01  0.36820913133E+02  0.00000000000E+00 0. -1.
         11    1    4    4    0    0 -0.78154396892E+01  0.33272550711E+02  0.53441324889E+01  0.34593402271E+02  0.51100000000E-03 0. -1.
        -11    1    4    4    0    0  0.31372193942E+01  0.84553598435E+01  0.60933056552E+01  0.10884099856E+02  0.51100000000E-03 0.  1.
         12    1    4    4    0    0  0.44518602161E+00 -0.54171214592E+01 -0.70342960812E+01  0.88895847404E+01  0.00000000000E+00 0. -1.
</event>
<event>
 8    1  0.2558382E-006  0.9118800E+02  0.7816164E-02  0.1184000E+00
        -11   -1    0    0    0    0  0.00000000000E+00  0.00000000000E+00  0.45593999997E+02  0.45594000000E+02  0.51100000000E-03 0.  1.
         11   -1    0    0    0    0 -0.00000000000E+00 -0.00000000000E+00 -0.45593999997E+02  0.45594000000E+02  0.51100000000E-03 0. -1.
         23    2    1    2    0    0 -0.71054273576E-14  0.88817841970E-15  0.00000000000E+00  0.91188000000E+02  0.91188000000E+02 0.  0.
    9900012    2    3    3    0    0 -0.34045312259E+02 -0.56445689511E+01  0.12838794253E+02  0.54367094480E+02  0.40000023485E+02 0.  0.
        -12    1    3    3    0    0  0.34045312259E+02  0.56445689511E+01 -0.12838794253E+02  0.36820905520E+02  0.00000000000E+00 0.  1.
         11    1    4    4    0    0 -0.27794356452E+02 -0.10624343411E+02  0.16249354870E+02  0.33903457898E+02  0.51100000000E-03 0. -1.
        -11    1    4    4    0    0 -0.74171004698E+01  0.47030553342E+01  0.62179558627E+01  0.10760812433E+02  0.51100000000E-03 0.  1.
         12    1    4    4    0    0  0.11661446628E+01  0.27671912573E+00 -0.96285164796E+01  0.97028241480E+01  0.00000000000E+00 0. -1.
</event>
<event>
 8    1  0.2558382E-006  0.9118800E+02  0.7816164E-02  0.1184000E+00
        -11   -1    0    0    0    0  0.00000000000E+00  0.00000000000E+00  0.45593999997E+02  0.45594000000E+02  0.51100000000E-03 0.  1.
         11   -1    0    0    0    0 -0.00000000000E+00 -0.00000000000E+00 -0.45593999997E+02  0.45594000000E+02  0.51100000000E-03 0. -1.
         23    2    1    2    0    0  0.00000000000E+00 -0.35527136788E-14  0.00000000000E+00  0.91188000000E+02  0.91188000000E+02 0.  0.
    9900012    2    3    3    0    0  0.16539319465E+02 -0.20960193587E+02  0.25355528333E+02  0.54367060025E+02  0.39999944940E+02 0.  0.
         12    1    3    3    0    0 -0.16539319465E+02  0.20960193587E+02 -0.25355528333E+02  0.36820939975E+02  0.00000000000E+00 0. -1.
         11    1    4    4    0    0 -0.10359551176E+02 -0.36203714657E+01  0.45251587895E+01  0.11870318127E+02  0.51100000000E-03 0. -1.
        -11    1    4    4    0    0  0.41418546981E+01 -0.13235463329E+02  0.88726530606E+01  0.16463791254E+02  0.51100000000E-03 0.  1.
        -12    1    4    4    0    0  0.22757015943E+02 -0.41043587922E+01  0.11957716483E+02  0.26032950644E+02  0.00000000000E+00 0.  1.
</event>
<event>
 8    1  0.2558382E-006  0.9118800E+02  0.7816164E-02  0.1184000E+00
        -11   -1    0    0    0    0  0.00000000000E+00  0.00000000000E+00  0.45593999997E+02  0.45594000000E+02  0.51100000000E-03 0. -1.
         11   -1    0    0    0    0 -0.00000000000E+00 -0.00000000000E+00 -0.45593999997E+02  0.45594000000E+02  0.51100000000E-03 0.  1.
         23    2    1    2    0    0  0.00000000000E+00 -0.17763568394E-14  0.00000000000E+00  0.91188000000E+02  0.91188000000E+02 0.  0.
    9900012    2    3    3    0    0 -0.15095040889E+02 -0.15242122683E+02 -0.29926582725E+02  0.54367042423E+02  0.39999904811E+02 0.  0.
         12    1    3    3    0    0  0.15095040889E+02  0.15242122683E+02  0.29926582725E+02  0.36820957577E+02  0.00000000000E+00 0. -1.
         11    1    4    4    0    0  0.46704873936E+00  0.12445060687E+02 -0.86468097914E+01  0.15161299082E+02  0.51100000000E-03 0. -1.
        -11    1    4    4    0    0 -0.83907854162E+01 -0.99238983341E+01 -0.12852538015E+02  0.18277767143E+02  0.51100000000E-03 0.  1.
         12    1    4    4    0    0 -0.71713042118E+01 -0.17763285036E+02 -0.84272349180E+01  0.20927976197E+02  0.00000000000E+00 0. -1.
</event>
<event>
 8    1  0.2558382E-006  0.9118800E+02  0.7816164E-02  0.1184000E+00
        -11   -1    0    0    0    0  0.00000000000E+00  0.00000000000E+00  0.45593999997E+02  0.45594000000E+02  0.51100000000E-03 0.  1.
         11   -1    0    0    0    0 -0.00000000000E+00 -0.00000000000E+00 -0.45593999997E+02  0.45594000000E+02  0.51100000000E-03 0. -1.
         23    2    1    2    0    0  0.00000000000E+00  0.00000000000E+00  0.00000000000E+00  0.91188000000E+02  0.91188000000E+02 0.  0.
    9900012    2    3    3    0    0  0.19349482552E+02  0.19436430421E+02  0.24568317320E+02  0.54367088571E+02  0.40000010014E+02 0.  0.
         12    1    3    3    0    0 -0.19349482552E+02 -0.19436430421E+02 -0.24568317320E+02  0.36820911429E+02  0.00000000000E+00 0. -1.
         11    1    4    4    0    0 -0.11390530998E+01  0.98104050542E+00 -0.27714465037E+01  0.31529031734E+01  0.51100000000E-03 0. -1.
        -11    1    4    4    0    0  0.16343744952E+02  0.19006949857E+02  0.34665333970E+02  0.42779288463E+02  0.51100000000E-03 0.  1.
        -12    1    4    4    0    0  0.41447906997E+01 -0.55155994124E+00 -0.73255701464E+01  0.84348969337E+01  0.00000000000E+00 0.  1.
</event>
<event>
 8    1  0.2558382E-006  0.9118800E+02  0.7816164E-02  0.1184000E+00
        -11   -1    0    0    0    0  0.00000000000E+00  0.00000000000E+00  0.45593999997E+02  0.45594000000E+02  0.51100000000E-03 0.  1.
         11   -1    0    0    0    0 -0.00000000000E+00 -0.00000000000E+00 -0.45593999997E+02  0.45594000000E+02  0.51100000000E-03 0. -1.
         23    2    1    2    0    0  0.00000000000E+00  0.00000000000E+00  0.00000000000E+00  0.91188000000E+02  0.91188000000E+02 0.  0.
    9900012    2    3    3    0    0  0.18906978983E+02  0.27623669479E+02 -0.15337533008E+02  0.54367069967E+02  0.39999967604E+02 0.  0.
        -12    1    3    3    0    0 -0.18906978983E+02 -0.27623669479E+02  0.15337533008E+02  0.36820930033E+02  0.00000000000E+00 0.  1.
         11    1    4    4    0    0  0.16119627333E+02  0.19329367898E+02 -0.44244975440E+01  0.25554706562E+02  0.51100000000E-03 0. -1.
        -11    1    4    4    0    0 -0.27331469295E+01 -0.76860385171E+01 -0.84182136812E+01  0.11722269493E+02  0.51100000000E-03 0.  1.
        -12    1    4    4    0    0  0.55204985796E+01  0.15980340098E+02 -0.24948217824E+01  0.17090093913E+02  0.00000000000E+00 0.  1.
</event>
<event>
 8    1  0.2558382E-006  0.9118800E+02  0.7816164E-02  0.1184000E+00
        -11   -1    0    0    0    0  0.00000000000E+00  0.00000000000E+00  0.45593999997E+02  0.45594000000E+02  0.51100000000E-03 0. -1.
         11   -1    0    0    0    0 -0.00000000000E+00 -0.00000000000E+00 -0.45593999997E+02  0.45594000000E+02  0.51100000000E-03 0.  1.
         23    2    1    2    0    0  0.35527136788E-14  0.17763568394E-14  0.17763568394E-14  0.91188000000E+02  0.91188000000E+02 0.  0.
    9900012    2    3    3    0    0 -0.31899276558E+02 -0.14402158134E+02 -0.11436462987E+02  0.54367099828E+02  0.40000035678E+02 0.  0.
         12    1    3    3    0    0  0.31899276558E+02  0.14402158134E+02  0.11436462987E+02  0.36820900172E+02  0.00000000000E+00 0. -1.
         11    1    4    4    0    0  0.19547829041E+01 -0.46808560703E-01  0.37630040713E+01  0.42407036144E+01  0.51100000000E-03 0. -1.
        -11    1    4    4    0    0  0.71226679471E+00  0.57620090806E+01 -0.73545409276E+01  0.93700237539E+01  0.51100000000E-03 0.  1.
         12    1    4    4    0    0 -0.34566326256E+02 -0.20117358654E+02 -0.78449261306E+01  0.40756372460E+02  0.00000000000E+00 0. -1.
</event>
<event>
 8    1  0.2558382E-006  0.9118800E+02  0.7816164E-02  0.1184000E+00
        -11   -1    0    0    0    0  0.00000000000E+00  0.00000000000E+00  0.45593999997E+02  0.45594000000E+02  0.51100000000E-03 0.  1.
         11   -1    0    0    0    0 -0.00000000000E+00 -0.00000000000E+00 -0.45593999997E+02  0.45594000000E+02  0.51100000000E-03 0. -1.
         23    2    1    2    0    0  0.35527136788E-14  0.00000000000E+00 -0.71054273576E-14  0.91188000000E+02  0.91188000000E+02 0.  0.
    9900012    2    3    3    0    0 -0.13715693840E+02 -0.70522114957E+01 -0.33435350494E+02  0.54367128104E+02  0.40000100139E+02 0.  0.
        -12    1    3    3    0    0  0.13715693840E+02  0.70522114957E+01  0.33435350494E+02  0.36820871896E+02  0.00000000000E+00 0.  1.
         11    1    4    4    0    0  0.54351948484E+01 -0.76312983010E+01 -0.16786710375E+01  0.95181927650E+01  0.51100000000E-03 0. -1.
        -11    1    4    4    0    0  0.20245159491E+01  0.73712097697E+01 -0.15564851412E+02  0.17340645837E+02  0.51100000000E-03 0.  1.
         12    1    4    4    0    0 -0.21175404637E+02 -0.67921229644E+01 -0.16191828044E+02  0.27508289502E+02  0.00000000000E+00 0. -1.
</event>
<event>
 8    1  0.2558382E-006  0.9118800E+02  0.7816164E-02  0.1184000E+00
        -11   -1    0    0    0    0  0.00000000000E+00  0.00000000000E+00  0.45593999997E+02  0.45594000000E+02  0.51100000000E-03 0. -1.
         11   -1    0    0    0    0 -0.00000000000E+00 -0.00000000000E+00 -0.45593999997E+02  0.45594000000E+02  0.51100000000E-03 0.  1.
         23    2    1    2    0    0  0.17763568394E-14  0.00000000000E+00 -0.17763568394E-14  0.91188000000E+02  0.91188000000E+02 0.  0.
    9900012    2    3    3    0    0  0.15808565513E+02 -0.30641822499E+02 -0.12920808601E+02  0.54367091204E+02  0.40000016019E+02 0.  0.
         12    1    3    3    0    0 -0.15808565513E+02  0.30641822499E+02  0.12920808601E+02  0.36820908796E+02  0.00000000000E+00 0. -1.
         11    1    4    4    0    0  0.79950289474E+01 -0.83724205303E+01  0.11268664373E+02  0.16155516408E+02  0.51100000000E-03 0. -1.
        -11    1    4    4    0    0  0.26281872571E+01 -0.23648455075E+02 -0.22033997780E+02  0.32429212974E+02  0.51100000000E-03 0.  1.
        -12    1    4    4    0    0  0.51853493083E+01  0.13790531068E+01 -0.21554751945E+01  0.57823618215E+01  0.00000000000E+00 0.  1.
</event>
<event>
 8    1  0.2558382E-006  0.9118800E+02  0.7816164E-02  0.1184000E+00
        -11   -1    0    0    0    0  0.00000000000E+00  0.00000000000E+00  0.45593999997E+02  0.45594000000E+02  0.51100000000E-03 0. -1.
         11   -1    0    0    0    0 -0.00000000000E+00 -0.00000000000E+00 -0.45593999997E+02  0.45594000000E+02  0.51100000000E-03 0.  1.
         23    2    1    2    0    0 -0.35527136788E-14 -0.35527136788E-14 -0.88817841970E-15  0.91188000000E+02  0.91188000000E+02 0.  0.
    9900012    2    3    3    0    0 -0.26633253427E+02 -0.24203530035E+02  0.77870832332E+01  0.54367085840E+02  0.40000003790E+02 0.  0.
        -12    1    3    3    0    0  0.26633253427E+02  0.24203530035E+02 -0.77870832332E+01  0.36820914160E+02  0.00000000000E+00 0.  1.
         11    1    4    4    0    0  0.69545110364E+01 -0.72332005510E+01  0.43644821005E+01  0.10942262939E+02  0.51100000000E-03 0. -1.
        -11    1    4    4    0    0 -0.15934267197E+02 -0.93308333368E+01  0.12354049855E+02  0.22216837532E+02  0.51100000000E-03 0.  1.
        -12    1    4    4    0    0 -0.17653497267E+02 -0.76394961472E+01 -0.89314487218E+01  0.21207985369E+02  0.00000000000E+00 0.  1.
</event>
<event>
 8    1  0.2558382E-006  0.9118800E+02  0.7816164E-02  0.1184000E+00
        -11   -1    0    0    0    0  0.00000000000E+00  0.00000000000E+00  0.45593999997E+02  0.45594000000E+02  0.51100000000E-03 0. -1.
         11   -1    0    0    0    0 -0.00000000000E+00 -0.00000000000E+00 -0.45593999997E+02  0.45594000000E+02  0.51100000000E-03 0.  1.
         23    2    1    2    0    0  0.88817841970E-15  0.88817841970E-15 -0.71054273576E-14  0.91188000000E+02  0.91188000000E+02 0.  0.
    9900012    2    3    3    0    0  0.21118987791E+01  0.63436916789E+01 -0.36208797205E+02  0.54367088338E+02  0.40000009484E+02 0.  0.
         12    1    3    3    0    0 -0.21118987791E+01 -0.63436916789E+01  0.36208797205E+02  0.36820911662E+02  0.00000000000E+00 0. -1.
         11    1    4    4    0    0  0.14102231319E+02 -0.29075045887E+01 -0.63916489752E+01  0.15753719814E+02  0.51100000000E-03 0. -1.
        -11    1    4    4    0    0  0.40888567263E+01  0.47072347695E+01 -0.27732457508E+01  0.68240531035E+01  0.51100000000E-03 0.  1.
        -12    1    4    4    0    0 -0.16079189266E+02  0.45439614981E+01 -0.27043902479E+02  0.31789315420E+02  0.00000000000E+00 0.  1.
</event>
<event>
 8    1  0.2558382E-006  0.9118800E+02  0.7816164E-02  0.1184000E+00
        -11   -1    0    0    0    0  0.00000000000E+00  0.00000000000E+00  0.45593999997E+02  0.45594000000E+02  0.51100000000E-03 0. -1.
         11   -1    0    0    0    0 -0.00000000000E+00 -0.00000000000E+00 -0.45593999997E+02  0.45594000000E+02  0.51100000000E-03 0.  1.
         23    2    1    2    0    0 -0.88817841970E-15  0.00000000000E+00  0.35527136788E-14  0.91188000000E+02  0.91188000000E+02 0.  0.
    9900012    2    3    3    0    0 -0.67913480091E+01  0.29218828935E+02  0.21352214770E+02  0.54367089532E+02  0.40000012206E+02 0.  0.
        -12    1    3    3    0    0  0.67913480091E+01 -0.29218828935E+02 -0.21352214770E+02  0.36820910468E+02  0.00000000000E+00 0.  1.
         11    1    4    4    0    0 -0.10004401149E+02  0.16551095836E+02  0.25896513613E+02  0.32321142203E+02  0.51100000000E-03 0. -1.
        -11    1    4    4    0    0 -0.60369967927E+01  0.25408831787E+01  0.20008754143E+01  0.68487166891E+01  0.51100000000E-03 0.  1.
        -12    1    4    4    0    0  0.92500499323E+01  0.10126849920E+02 -0.65451742573E+01  0.15197230640E+02  0.00000000000E+00 0.  1.
</event>
<event>
 8    1  0.2558382E-006  0.9118800E+02  0.7816164E-02  0.1184000E+00
        -11   -1    0    0    0    0  0.00000000000E+00  0.00000000000E+00  0.45593999997E+02  0.45594000000E+02  0.51100000000E-03 0.  1.
         11   -1    0    0    0    0 -0.00000000000E+00 -0.00000000000E+00 -0.45593999997E+02  0.45594000000E+02  0.51100000000E-03 0. -1.
         23    2    1    2    0    0  0.00000000000E+00 -0.35527136788E-14  0.00000000000E+00  0.91188000000E+02  0.91188000000E+02 0.  0.
    9900012    2    3    3    0    0  0.17438471997E+02  0.27107021344E+02 -0.17801366168E+02  0.54367088154E+02  0.40000009065E+02 0.  0.
        -12    1    3    3    0    0 -0.17438471997E+02 -0.27107021344E+02  0.17801366168E+02  0.36820911846E+02  0.00000000000E+00 0.  1.
         11    1    4    4    0    0  0.18217116835E+01  0.52925989294E+01 -0.16165329829E+02  0.17106961321E+02  0.51100000000E-03 0. -1.
        -11    1    4    4    0    0  0.20242310570E+02  0.81698617054E+01 -0.51551218614E+01  0.22429290206E+02  0.51100000000E-03 0.  1.
        -12    1    4    4    0    0 -0.46255502568E+01  0.13644560709E+02  0.35190855229E+01  0.14830836627E+02  0.00000000000E+00 0.  1.
</event>
<event>
 8    1  0.2558382E-006  0.9118800E+02  0.7816164E-02  0.1184000E+00
        -11   -1    0    0    0    0  0.00000000000E+00  0.00000000000E+00  0.45593999997E+02  0.45594000000E+02  0.51100000000E-03 0.  1.
         11   -1    0    0    0    0 -0.00000000000E+00 -0.00000000000E+00 -0.45593999997E+02  0.45594000000E+02  0.51100000000E-03 0. -1.
         23    2    1    2    0    0 -0.35527136788E-14  0.00000000000E+00  0.35527136788E-14  0.91188000000E+02  0.91188000000E+02 0.  0.
    9900012    2    3    3    0    0 -0.24388882035E+02 -0.24308575330E+02  0.13040595620E+02  0.54367061180E+02  0.39999947572E+02 0.  0.
         12    1    3    3    0    0  0.24388882035E+02  0.24308575330E+02 -0.13040595620E+02  0.36820938820E+02  0.00000000000E+00 0. -1.
         11    1    4    4    0    0 -0.10688374792E+01 -0.16876744185E+02  0.96893702374E+01  0.19489761509E+02  0.51100000000E-03 0.  1.
        -11    1    4    4    0    0 -0.20457264814E+02 -0.44839274415E+01 -0.82962033888E+01  0.22526257565E+02  0.51100000000E-03 0. -1.
        -12    1    4    4    0    0 -0.28627797414E+01 -0.29479037040E+01  0.11647428772E+02  0.12351042105E+02  0.00000000000E+00 0.  1.
</event>
<event>
 8    1  0.2558382E-006  0.9118800E+02  0.7816164E-02  0.1184000E+00
        -11   -1    0    0    0    0  0.00000000000E+00  0.00000000000E+00  0.45593999997E+02  0.45594000000E+02  0.51100000000E-03 0.  1.
         11   -1    0    0    0    0 -0.00000000000E+00 -0.00000000000E+00 -0.45593999997E+02  0.45594000000E+02  0.51100000000E-03 0. -1.
         23    2    1    2    0    0  0.88817841970E-15  0.00000000000E+00  0.00000000000E+00  0.91188000000E+02  0.91188000000E+02 0.  0.
    9900012    2    3    3    0    0  0.61823563663E+01  0.73872593124E+01  0.35538629118E+02  0.54366983040E+02  0.39999769435E+02 0.  0.
         12    1    3    3    0    0 -0.61823563663E+01 -0.73872593124E+01 -0.35538629118E+02  0.36821016960E+02  0.00000000000E+00 0. -1.
         11    1    4    4    0    0  0.15864456894E+01 -0.97496636069E+01  0.18918081047E+01  0.10057419577E+02  0.51100000000E-03 0. -1.
        -11    1    4    4    0    0  0.43019064248E+01  0.28432130232E-01  0.24562900750E+02  0.24936786095E+02  0.51100000000E-03 0.  1.
         12    1    4    4    0    0  0.29400425208E+00  0.17108490789E+02  0.90839202640E+01  0.19372777368E+02  0.00000000000E+00 0. -1.
</event>
<event>
 8    1  0.2558382E-006  0.9118800E+02  0.7816164E-02  0.1184000E+00
        -11   -1    0    0    0    0  0.00000000000E+00  0.00000000000E+00  0.45593999997E+02  0.45594000000E+02  0.51100000000E-03 0.  1.
         11   -1    0    0    0    0 -0.00000000000E+00 -0.00000000000E+00 -0.45593999997E+02  0.45594000000E+02  0.51100000000E-03 0. -1.
         23    2    1    2    0    0  0.17763568394E-14  0.00000000000E+00 -0.71054273576E-14  0.91188000000E+02  0.91188000000E+02 0.  0.
    9900012    2    3    3    0    0  0.14882428415E+02 -0.86036574267E+01  0.32561788228E+02  0.54367086795E+02  0.40000005967E+02 0.  0.
         12    1    3    3    0    0 -0.14882428415E+02  0.86036574267E+01 -0.32561788228E+02  0.36820913205E+02  0.00000000000E+00 0. -1.
         11    1    4    4    0    0 -0.18370262482E+01 -0.12792847401E+01 -0.54967230913E+01  0.59350821297E+01  0.51100000000E-03 0. -1.
        -11    1    4    4    0    0  0.20682470490E+02 -0.11928226867E+02  0.30053797108E+02  0.38383302394E+02  0.51100000000E-03 0.  1.
         12    1    4    4    0    0 -0.39630158264E+01  0.46038541806E+01  0.80047142105E+01  0.10048702272E+02  0.00000000000E+00 0. -1.
</event>
<event>
 8    1  0.2558382E-006  0.9118800E+02  0.7816164E-02  0.1184000E+00
        -11   -1    0    0    0    0  0.00000000000E+00  0.00000000000E+00  0.45593999997E+02  0.45594000000E+02  0.51100000000E-03 0.  1.
         11   -1    0    0    0    0 -0.00000000000E+00 -0.00000000000E+00 -0.45593999997E+02  0.45594000000E+02  0.51100000000E-03 0. -1.
         23    2    1    2    0    0  0.00000000000E+00  0.00000000000E+00  0.17763568394E-14  0.91188000000E+02  0.91188000000E+02 0.  0.
    9900012    2    3    3    0    0  0.26231466636E+02  0.24226150471E+02  0.89879576751E+01  0.54367087577E+02  0.40000007748E+02 0.  0.
        -12    1    3    3    0    0 -0.26231466636E+02 -0.24226150471E+02 -0.89879576751E+01  0.36820912423E+02  0.00000000000E+00 0.  1.
         11    1    4    4    0    0  0.14868866700E+02 -0.76636527669E+01 -0.14922570383E+01  0.16794094260E+02  0.51100000000E-03 0. -1.
        -11    1    4    4    0    0  0.80881233357E+01  0.18433956820E+02 -0.12415259137E+00  0.20130671059E+02  0.51100000000E-03 0.  1.
         12    1    4    4    0    0  0.32744766000E+01  0.13455846418E+02  0.10604367305E+02  0.17442322258E+02  0.00000000000E+00 0. -1.
</event>
<event>
 8    1  0.2558382E-006  0.9118800E+02  0.7816164E-02  0.1184000E+00
        -11   -1    0    0    0    0  0.00000000000E+00  0.00000000000E+00  0.45593999997E+02  0.45594000000E+02  0.51100000000E-03 0.  1.
         11   -1    0    0    0    0 -0.00000000000E+00 -0.00000000000E+00 -0.45593999997E+02  0.45594000000E+02  0.51100000000E-03 0. -1.
         23    2    1    2    0    0 -0.88817841970E-15 -0.35527136788E-14  0.00000000000E+00  0.91188000000E+02  0.91188000000E+02 0.  0.
    9900012    2    3    3    0    0  0.55024890763E+01  0.11868544048E+02  0.34418602914E+02  0.54367082705E+02  0.39999996644E+02 0.  0.
         12    1    3    3    0    0 -0.55024890763E+01 -0.11868544048E+02 -0.34418602914E+02  0.36820917295E+02  0.00000000000E+00 0. -1.
         11    1    4    4    0    0 -0.11534944678E+02  0.18734994967E+02  0.17298335642E+02  0.27987272132E+02  0.51100000000E-03 0. -1.
        -11    1    4    4    0    0  0.34766421479E+01 -0.52024242516E+01  0.39293369469E+01  0.73886363980E+01  0.51100000000E-03 0.  1.
        -12    1    4    4    0    0  0.13560791606E+02 -0.16640266671E+01  0.13190930325E+02  0.18991174176E+02  0.00000000000E+00 0.  1.
</event>
<event>
 8    1  0.2558382E-006  0.9118800E+02  0.7816164E-02  0.1184000E+00
        -11   -1    0    0    0    0  0.00000000000E+00  0.00000000000E+00  0.45593999997E+02  0.45594000000E+02  0.51100000000E-03 0. -1.
         11   -1    0    0    0    0 -0.00000000000E+00 -0.00000000000E+00 -0.45593999997E+02  0.45594000000E+02  0.51100000000E-03 0.  1.
         23    2    1    2    0    0  0.00000000000E+00  0.00000000000E+00  0.00000000000E+00  0.91188000000E+02  0.91188000000E+02 0.  0.
    9900012    2    3    3    0    0 -0.24452921345E+02  0.12798383105E+02  0.24372885307E+02  0.54367061519E+02  0.39999948346E+02 0.  0.
        -12    1    3    3    0    0  0.24452921345E+02 -0.12798383105E+02 -0.24372885307E+02  0.36820938481E+02  0.00000000000E+00 0.  1.
         11    1    4    4    0    0  0.63101781211E-01 -0.94600467617E+01  0.10083427233E+02  0.13826495275E+02  0.51100000000E-03 0. -1.
        -11    1    4    4    0    0  0.20105615259E+01 -0.13529489382E+01  0.10295141648E+01  0.26330074355E+01  0.51100000000E-03 0.  1.
         12    1    4    4    0    0 -0.26526584652E+02  0.23611378805E+02  0.13259943909E+02  0.37907558809E+02  0.00000000000E+00 0. -1.
</event>
<event>
 8    1  0.2558382E-006  0.9118800E+02  0.7816164E-02  0.1184000E+00
        -11   -1    0    0    0    0  0.00000000000E+00  0.00000000000E+00  0.45593999997E+02  0.45594000000E+02  0.51100000000E-03 0. -1.
         11   -1    0    0    0    0 -0.00000000000E+00 -0.00000000000E+00 -0.45593999997E+02  0.45594000000E+02  0.51100000000E-03 0.  1.
         23    2    1    2    0    0 -0.17763568394E-14  0.17763568394E-14  0.00000000000E+00  0.91188000000E+02  0.91188000000E+02 0.  0.
    9900012    2    3    3    0    0 -0.88327086619E+01  0.12703720726E+02 -0.33412246577E+02  0.54367089040E+02  0.40000011084E+02 0.  0.
         12    1    3    3    0    0  0.88327086619E+01 -0.12703720726E+02  0.33412246577E+02  0.36820910960E+02  0.00000000000E+00 0. -1.
         11    1    4    4    0    0  0.11081860409E+02  0.15109835623E+02 -0.83323131720E+01  0.20507125731E+02  0.51100000000E-03 0.  1.
        -11    1    4    4    0    0 -0.20820792906E+02 -0.34729239262E+01 -0.24515126857E+02  0.32350549654E+02  0.51100000000E-03 0. -1.
         12    1    4    4    0    0  0.90622383577E+00  0.10668090289E+01 -0.56480654820E+00  0.15094136549E+01  0.00000000000E+00 0. -1.
</event>
<event>
 8    1  0.2558382E-006  0.9118800E+02  0.7816164E-02  0.1184000E+00
        -11   -1    0    0    0    0  0.00000000000E+00  0.00000000000E+00  0.45593999997E+02  0.45594000000E+02  0.51100000000E-03 0.  1.
         11   -1    0    0    0    0 -0.00000000000E+00 -0.00000000000E+00 -0.45593999997E+02  0.45594000000E+02  0.51100000000E-03 0. -1.
         23    2    1    2    0    0  0.00000000000E+00  0.00000000000E+00 -0.44408920985E-15  0.91188000000E+02  0.91188000000E+02 0.  0.
    9900012    2    3    3    0    0  0.10065521737E+02 -0.35390255594E+02  0.14126425812E+01  0.54367075542E+02  0.39999980313E+02 0.  0.
        -12    1    3    3    0    0 -0.10065521737E+02  0.35390255594E+02 -0.14126425812E+01  0.36820924458E+02  0.00000000000E+00 0.  1.
         11    1    4    4    0    0 -0.20546295649E+01 -0.26514707167E+02 -0.21575483404E+01  0.26681570679E+02  0.51100000000E-03 0. -1.
        -11    1    4    4    0    0 -0.11829092899E+01  0.52444177053E+01 -0.41648606272E+01  0.68006805366E+01  0.51100000000E-03 0.  1.
        -12    1    4    4    0    0  0.13303060591E+02 -0.14119966132E+02  0.77350515488E+01  0.20884824326E+02  0.00000000000E+00 0.  1.
</event>
<event>
 8    1  0.2558382E-006  0.9118800E+02  0.7816164E-02  0.1184000E+00
        -11   -1    0    0    0    0  0.00000000000E+00  0.00000000000E+00  0.45593999997E+02  0.45594000000E+02  0.51100000000E-03 0. -1.
         11   -1    0    0    0    0 -0.00000000000E+00 -0.00000000000E+00 -0.45593999997E+02  0.45594000000E+02  0.51100000000E-03 0.  1.
         23    2    1    2    0    0 -0.35527136788E-14  0.00000000000E+00  0.35527136788E-14  0.91188000000E+02  0.91188000000E+02 0.  0.
    9900012    2    3    3    0    0 -0.24486336821E+02  0.18379308539E+02  0.20454629525E+02  0.54367196881E+02  0.40000256930E+02 0.  0.
        -12    1    3    3    0    0  0.24486336821E+02 -0.18379308539E+02 -0.20454629525E+02  0.36820803119E+02  0.00000000000E+00 0.  1.
         11    1    4    4    0    0 -0.79105968636E+01 -0.31716325468E+01  0.13318817130E+02  0.15812263777E+02  0.51100000000E-03 0. -1.
        -11    1    4    4    0    0 -0.12072479548E+02 -0.33062476864E+01  0.37534741166E+01  0.13067693156E+02  0.51100000000E-03 0.  1.
         12    1    4    4    0    0 -0.45032604093E+01  0.24857188773E+02  0.33823382785E+01  0.25487239949E+02  0.00000000000E+00 0. -1.
</event>
<event>
 8    1  0.2558382E-006  0.9118800E+02  0.7816164E-02  0.1184000E+00
        -11   -1    0    0    0    0  0.00000000000E+00  0.00000000000E+00  0.45593999997E+02  0.45594000000E+02  0.51100000000E-03 0. -1.
         11   -1    0    0    0    0 -0.00000000000E+00 -0.00000000000E+00 -0.45593999997E+02  0.45594000000E+02  0.51100000000E-03 0.  1.
         23    2    1    2    0    0 -0.88817841970E-15  0.00000000000E+00  0.00000000000E+00  0.91188000000E+02  0.91188000000E+02 0.  0.
    9900012    2    3    3    0    0 -0.56279666016E+01 -0.31229048481E+02  0.18677540148E+02  0.54367109421E+02  0.40000057546E+02 0.  0.
         12    1    3    3    0    0  0.56279666016E+01  0.31229048481E+02 -0.18677540148E+02  0.36820890579E+02  0.00000000000E+00 0. -1.
         11    1    4    4    0    0  0.45722098548E+01 -0.28022215444E+02  0.77150989026E+01  0.29422311477E+02  0.51100000000E-03 0. -1.
        -11    1    4    4    0    0  0.56285589949E+01 -0.31554770602E+01  0.43968622357E+01  0.78083359058E+01  0.51100000000E-03 0.  1.
        -12    1    4    4    0    0 -0.15828735451E+02 -0.51355976668E-01  0.65655790100E+01  0.17136462037E+02  0.00000000000E+00 0.  1.
</event>
<event>
 8    1  0.2558382E-006  0.9118800E+02  0.7816164E-02  0.1184000E+00
        -11   -1    0    0    0    0  0.00000000000E+00  0.00000000000E+00  0.45593999997E+02  0.45594000000E+02  0.51100000000E-03 0. -1.
         11   -1    0    0    0    0 -0.00000000000E+00 -0.00000000000E+00 -0.45593999997E+02  0.45594000000E+02  0.51100000000E-03 0.  1.
         23    2    1    2    0    0  0.00000000000E+00  0.00000000000E+00  0.00000000000E+00  0.91188000000E+02  0.91188000000E+02 0.  0.
    9900012    2    3    3    0    0 -0.23327722474E+02 -0.97277470346E+01  0.26776255997E+02  0.54367087689E+02  0.40000008004E+02 0.  0.
        -12    1    3    3    0    0  0.23327722474E+02  0.97277470346E+01 -0.26776255997E+02  0.36820912311E+02  0.00000000000E+00 0.  1.
         11    1    4    4    0    0  0.12185645942E+01 -0.33941274407E+01  0.80006825570E+01  0.87758716030E+01  0.51100000000E-03 0. -1.
        -11    1    4    4    0    0  0.73936542431E+01 -0.60326044283E+01  0.32873159166E+01  0.10092813555E+02  0.51100000000E-03 0.  1.
        -12    1    4    4    0    0 -0.31939941312E+02 -0.30101516560E+00  0.15488257524E+02  0.35498402531E+02  0.00000000000E+00 0.  1.
</event>
<event>
 8    1  0.2558382E-006  0.9118800E+02  0.7816164E-02  0.1184000E+00
        -11   -1    0    0    0    0  0.00000000000E+00  0.00000000000E+00  0.45593999997E+02  0.45594000000E+02  0.51100000000E-03 0.  1.
         11   -1    0    0    0    0 -0.00000000000E+00 -0.00000000000E+00 -0.45593999997E+02  0.45594000000E+02  0.51100000000E-03 0. -1.
         23    2    1    2    0    0  0.17763568394E-14  0.00000000000E+00  0.35527136788E-14  0.91188000000E+02  0.91188000000E+02 0.  0.
    9900012    2    3    3    0    0  0.15865052751E+02  0.12230395772E+02 -0.30894916808E+02  0.54367104247E+02  0.40000045751E+02 0.  0.
        -12    1    3    3    0    0 -0.15865052751E+02 -0.12230395772E+02  0.30894916808E+02  0.36820895753E+02  0.00000000000E+00 0.  1.
         11    1    4    4    0    0  0.11237454158E+02  0.37905279602E+01 -0.87816828885E+01  0.14756911357E+02  0.51100000000E-03 0. -1.
        -11    1    4    4    0    0  0.17625522685E+02  0.99688343289E+00 -0.96135232688E+01  0.20101558557E+02  0.51100000000E-03 0.  1.
        -12    1    4    4    0    0 -0.12997924093E+02  0.74429843787E+01 -0.12499710651E+02  0.19508634333E+02  0.00000000000E+00 0.  1.
</event>
<event>
 8    1  0.2558382E-006  0.9118800E+02  0.7816164E-02  0.1184000E+00
        -11   -1    0    0    0    0  0.00000000000E+00  0.00000000000E+00  0.45593999997E+02  0.45594000000E+02  0.51100000000E-03 0. -1.
         11   -1    0    0    0    0 -0.00000000000E+00 -0.00000000000E+00 -0.45593999997E+02  0.45594000000E+02  0.51100000000E-03 0.  1.
         23    2    1    2    0    0 -0.17763568394E-14  0.00000000000E+00 -0.35527136788E-14  0.91188000000E+02  0.91188000000E+02 0.  0.
    9900012    2    3    3    0    0 -0.13286764527E+02  0.22531456028E+02 -0.25914769758E+02  0.54367083200E+02  0.39999997772E+02 0.  0.
        -12    1    3    3    0    0  0.13286764527E+02 -0.22531456028E+02  0.25914769758E+02  0.36820916800E+02  0.00000000000E+00 0.  1.
         11    1    4    4    0    0 -0.40749067267E+01 -0.22131622441E+01  0.72912369270E+00  0.46940998679E+01  0.51100000000E-03 0. -1.
        -11    1    4    4    0    0 -0.47155082882E+01 -0.63831008960E+01  0.74118531733E+00  0.79705301832E+01  0.51100000000E-03 0.  1.
        -12    1    4    4    0    0 -0.44963495121E+01  0.31127719168E+02 -0.27385078768E+02  0.41702453149E+02  0.00000000000E+00 0.  1.
</event>
<event>
 8    1  0.2558382E-006  0.9118800E+02  0.7816164E-02  0.1184000E+00
        -11   -1    0    0    0    0  0.00000000000E+00  0.00000000000E+00  0.45593999997E+02  0.45594000000E+02  0.51100000000E-03 0. -1.
         11   -1    0    0    0    0 -0.00000000000E+00 -0.00000000000E+00 -0.45593999997E+02  0.45594000000E+02  0.51100000000E-03 0.  1.
         23    2    1    2    0    0  0.00000000000E+00  0.00000000000E+00  0.00000000000E+00  0.91188000000E+02  0.91188000000E+02 0.  0.
    9900012    2    3    3    0    0  0.17928043003E+02 -0.19103961980E+02 -0.25872831713E+02  0.54367088684E+02  0.40000010274E+02 0.  0.
         12    1    3    3    0    0 -0.17928043003E+02  0.19103961980E+02  0.25872831713E+02  0.36820911316E+02  0.00000000000E+00 0. -1.
         11    1    4    4    0    0  0.11457262029E+02  0.20775287902E+01 -0.12095857607E+01  0.11706753480E+02  0.51100000000E-03 0. -1.
        -11    1    4    4    0    0 -0.58403932318E+01  0.33123509534E+01 -0.17676407409E+01  0.69430840402E+01  0.51100000000E-03 0.  1.
        -12    1    4    4    0    0  0.12311174206E+02 -0.24493841723E+02 -0.22895605212E+02  0.35717251164E+02  0.00000000000E+00 0.  1.
</event>
<event>
 8    1  0.2558382E-006  0.9118800E+02  0.7816164E-02  0.1184000E+00
        -11   -1    0    0    0    0  0.00000000000E+00  0.00000000000E+00  0.45593999997E+02  0.45594000000E+02  0.51100000000E-03 0.  1.
         11   -1    0    0    0    0 -0.00000000000E+00 -0.00000000000E+00 -0.45593999997E+02  0.45594000000E+02  0.51100000000E-03 0. -1.
         23    2    1    2    0    0  0.00000000000E+00  0.88817841970E-15 -0.22204460493E-15  0.91188000000E+02  0.91188000000E+02 0.  0.
    9900012    2    3    3    0    0  0.36074335964E+02 -0.72205915065E+01  0.15117872624E+01  0.54367079891E+02  0.39999990228E+02 0.  0.
        -12    1    3    3    0    0 -0.36074335964E+02  0.72205915065E+01 -0.15117872624E+01  0.36820920109E+02  0.00000000000E+00 0.  1.
         11    1    4    4    0    0  0.15167139320E+02  0.11307267129E+02  0.85728567543E-01  0.18918344397E+02  0.51100000000E-03 0. -1.
        -11    1    4    4    0    0 -0.30818523241E+01  0.21086092759E+01 -0.37905078982E+00  0.37533620380E+01  0.51100000000E-03 0.  1.
         12    1    4    4    0    0  0.23989048968E+02 -0.20636467912E+02  0.18051094847E+01  0.31695373456E+02  0.00000000000E+00 0. -1.
</event>
<event>
 8    1  0.2558382E-006  0.9118800E+02  0.7816164E-02  0.1184000E+00
        -11   -1    0    0    0    0  0.00000000000E+00  0.00000000000E+00  0.45593999997E+02  0.45594000000E+02  0.51100000000E-03 0. -1.
         11   -1    0    0    0    0 -0.00000000000E+00 -0.00000000000E+00 -0.45593999997E+02  0.45594000000E+02  0.51100000000E-03 0.  1.
         23    2    1    2    0    0 -0.13322676296E-14 -0.35527136788E-14  0.00000000000E+00  0.91188000000E+02  0.91188000000E+02 0.  0.
    9900012    2    3    3    0    0  0.35701073577E+01  0.30311282474E+02  0.20597582684E+02  0.54367083062E+02  0.39999997456E+02 0.  0.
        -12    1    3    3    0    0 -0.35701073577E+01 -0.30311282474E+02 -0.20597582684E+02  0.36820916938E+02  0.00000000000E+00 0.  1.
         11    1    4    4    0    0 -0.68093970379E+00  0.34367694741E+01  0.10288310964E+01  0.36515143413E+01  0.51100000000E-03 0. -1.
        -11    1    4    4    0    0 -0.16228165093E+02  0.83920156153E+01  0.29388847852E+01  0.18504494384E+02  0.51100000000E-03 0.  1.
         12    1    4    4    0    0  0.20479212154E+02  0.18482497384E+02  0.16629866802E+02  0.32211074336E+02  0.00000000000E+00 0. -1.
</event>
<event>
 8    1  0.2558382E-006  0.9118800E+02  0.7816164E-02  0.1184000E+00
        -11   -1    0    0    0    0  0.00000000000E+00  0.00000000000E+00  0.45593999997E+02  0.45594000000E+02  0.51100000000E-03 0.  1.
         11   -1    0    0    0    0 -0.00000000000E+00 -0.00000000000E+00 -0.45593999997E+02  0.45594000000E+02  0.51100000000E-03 0. -1.
         23    2    1    2    0    0  0.35527136788E-14  0.00000000000E+00  0.00000000000E+00  0.91188000000E+02  0.91188000000E+02 0.  0.
    9900012    2    3    3    0    0 -0.26150777364E+02 -0.19786520140E+02 -0.16745451078E+02  0.54367086543E+02  0.40000005393E+02 0.  0.
        -12    1    3    3    0    0  0.26150777364E+02  0.19786520140E+02  0.16745451078E+02  0.36820913457E+02  0.00000000000E+00 0.  1.
         11    1    4    4    0    0 -0.13261207900E+02 -0.14246843368E+02  0.50178543677E+01  0.20100025961E+02  0.51100000000E-03 0. -1.
        -11    1    4    4    0    0 -0.13200584680E+02 -0.68999704479E+01 -0.25913054475E+02  0.29888984937E+02  0.51100000000E-03 0.  1.
        -12    1    4    4    0    0  0.31101521595E+00  0.13602936762E+01  0.41497490295E+01  0.43780756455E+01  0.00000000000E+00 0.  1.
</event>
<event>
 8    1  0.2558382E-006  0.9118800E+02  0.7816164E-02  0.1184000E+00
        -11   -1    0    0    0    0  0.00000000000E+00  0.00000000000E+00  0.45593999997E+02  0.45594000000E+02  0.51100000000E-03 0. -1.
         11   -1    0    0    0    0 -0.00000000000E+00 -0.00000000000E+00 -0.45593999997E+02  0.45594000000E+02  0.51100000000E-03 0.  1.
         23    2    1    2    0    0  0.35527136788E-14  0.22204460493E-15  0.00000000000E+00  0.91188000000E+02  0.91188000000E+02 0.  0.
    9900012    2    3    3    0    0 -0.17357740851E+02 -0.12624994462E+01 -0.32448393357E+02  0.54367037170E+02  0.39999892836E+02 0.  0.
         12    1    3    3    0    0  0.17357740851E+02  0.12624994462E+01  0.32448393357E+02  0.36820962830E+02  0.00000000000E+00 0. -1.
         11    1    4    4    0    0  0.11867446194E+02 -0.20697589192E+01 -0.93786586333E+01  0.15266938762E+02  0.51100000000E-03 0. -1.
        -11    1    4    4    0    0 -0.53382363744E+01 -0.42123312034E+01 -0.76190798235E+01  0.10212290604E+02  0.51100000000E-03 0.  1.
         12    1    4    4    0    0 -0.23886950670E+02  0.50195906765E+01 -0.15450654900E+02  0.28887807804E+02  0.00000000000E+00 0. -1.
</event>
<event>
 8    1  0.2558382E-006  0.9118800E+02  0.7816164E-02  0.1184000E+00
        -11   -1    0    0    0    0  0.00000000000E+00  0.00000000000E+00  0.45593999997E+02  0.45594000000E+02  0.51100000000E-03 0.  1.
         11   -1    0    0    0    0 -0.00000000000E+00 -0.00000000000E+00 -0.45593999997E+02  0.45594000000E+02  0.51100000000E-03 0. -1.
         23    2    1    2    0    0  0.00000000000E+00  0.88817841970E-15 -0.71054273576E-14  0.91188000000E+02  0.91188000000E+02 0.  0.
    9900012    2    3    3    0    0 -0.13594525742E+02 -0.32321825999E+01 -0.34066441884E+02  0.54367073923E+02  0.39999976622E+02 0.  0.
        -12    1    3    3    0    0  0.13594525742E+02  0.32321825999E+01  0.34066441884E+02  0.36820926077E+02  0.00000000000E+00 0.  1.
         11    1    4    4    0    0 -0.65712670897E+01 -0.40158271422E+01 -0.93115302031E+01  0.12083584476E+02  0.51100000000E-03 0. -1.
        -11    1    4    4    0    0  0.42145876292E+01 -0.13595659603E+02 -0.42966752979E+01  0.14868292700E+02  0.51100000000E-03 0.  1.
         12    1    4    4    0    0 -0.11237846282E+02  0.14379304146E+02 -0.20458236383E+02  0.27415196747E+02  0.00000000000E+00 0. -1.
</event>
<event>
 8    1  0.2558382E-006  0.9118800E+02  0.7816164E-02  0.1184000E+00
        -11   -1    0    0    0    0  0.00000000000E+00  0.00000000000E+00  0.45593999997E+02  0.45594000000E+02  0.51100000000E-03 0.  1.
         11   -1    0    0    0    0 -0.00000000000E+00 -0.00000000000E+00 -0.45593999997E+02  0.45594000000E+02  0.51100000000E-03 0. -1.
         23    2    1    2    0    0  0.00000000000E+00  0.00000000000E+00  0.00000000000E+00  0.91188000000E+02  0.91188000000E+02 0.  0.
    9900012    2    3    3    0    0  0.34703577229E+02 -0.83769133153E+01 -0.90149480806E+01  0.54367078799E+02  0.39999987738E+02 0.  0.
        -12    1    3    3    0    0 -0.34703577229E+02  0.83769133153E+01  0.90149480806E+01  0.36820921201E+02  0.00000000000E+00 0.  1.
         11    1    4    4    0    0  0.16080141009E+02 -0.59068475296E+00 -0.88399414750E+01  0.18359313955E+02  0.51100000000E-03 0. -1.
        -11    1    4    4    0    0  0.14995443490E+02 -0.18018879745E+02 -0.52505775785E+01  0.24023153787E+02  0.51100000000E-03 0.  1.
         12    1    4    4    0    0  0.36279927298E+01  0.10232651183E+02  0.50755709728E+01  0.11984611056E+02  0.00000000000E+00 0. -1.
</event>
<event>
 8    1  0.2558382E-006  0.9118800E+02  0.7816164E-02  0.1184000E+00
        -11   -1    0    0    0    0  0.00000000000E+00  0.00000000000E+00  0.45593999997E+02  0.45594000000E+02  0.51100000000E-03 0. -1.
         11   -1    0    0    0    0 -0.00000000000E+00 -0.00000000000E+00 -0.45593999997E+02  0.45594000000E+02  0.51100000000E-03 0.  1.
         23    2    1    2    0    0  0.00000000000E+00  0.00000000000E+00  0.35527136788E-14  0.91188000000E+02  0.91188000000E+02 0.  0.
    9900012    2    3    3    0    0  0.14553036398E+02  0.15615618091E+02 -0.30002353512E+02  0.54367087287E+02  0.40000007089E+02 0.  0.
         12    1    3    3    0    0 -0.14553036398E+02 -0.15615618091E+02  0.30002353512E+02  0.36820912713E+02  0.00000000000E+00 0. -1.
         11    1    4    4    0    0  0.53065292439E+01  0.14599992866E+02  0.38400382121E+01  0.16002029185E+02  0.51100000000E-03 0. -1.
        -11    1    4    4    0    0  0.78025068234E+01  0.59927869087E+01 -0.10239798333E+02  0.14200214006E+02  0.51100000000E-03 0.  1.
        -12    1    4    4    0    0  0.14440003306E+01 -0.49771616843E+01 -0.23602593391E+02  0.24164844096E+02  0.00000000000E+00 0.  1.
</event>
<event>
 8    1  0.2558382E-006  0.9118800E+02  0.7816164E-02  0.1184000E+00
        -11   -1    0    0    0    0  0.00000000000E+00  0.00000000000E+00  0.45593999997E+02  0.45594000000E+02  0.51100000000E-03 0.  1.
         11   -1    0    0    0    0 -0.00000000000E+00 -0.00000000000E+00 -0.45593999997E+02  0.45594000000E+02  0.51100000000E-03 0. -1.
         23    2    1    2    0    0  0.35527136788E-14 -0.88817841970E-15  0.00000000000E+00  0.91188000000E+02  0.91188000000E+02 0.  0.
    9900012    2    3    3    0    0  0.28837189666E+02 -0.36707201202E+01 -0.22599154538E+02  0.54367089095E+02  0.40000011210E+02 0.  0.
        -12    1    3    3    0    0 -0.28837189666E+02  0.36707201202E+01  0.22599154538E+02  0.36820910905E+02  0.00000000000E+00 0.  1.
         11    1    4    4    0    0 -0.51449554212E+01  0.42654455604E+01 -0.55561197512E+01  0.86910907868E+01  0.51100000000E-03 0. -1.
        -11    1    4    4    0    0 -0.32259172488E+01  0.20809299903E+01 -0.17577566238E+01  0.42221464127E+01  0.51100000000E-03 0.  1.
         12    1    4    4    0    0  0.37208062336E+02 -0.10017095671E+02 -0.15285278163E+02  0.41453851896E+02  0.00000000000E+00 0. -1.
</event>
<event>
 8    1  0.2558382E-006  0.9118800E+02  0.7816164E-02  0.1184000E+00
        -11   -1    0    0    0    0  0.00000000000E+00  0.00000000000E+00  0.45593999997E+02  0.45594000000E+02  0.51100000000E-03 0. -1.
         11   -1    0    0    0    0 -0.00000000000E+00 -0.00000000000E+00 -0.45593999997E+02  0.45594000000E+02  0.51100000000E-03 0.  1.
         23    2    1    2    0    0  0.17763568394E-14  0.71054273576E-14  0.88817841970E-15  0.91188000000E+02  0.91188000000E+02 0.  0.
    9900012    2    3    3    0    0  0.13424086381E+02  0.34002025652E+02  0.44085744821E+01  0.54367090552E+02  0.40000014532E+02 0.  0.
        -12    1    3    3    0    0 -0.13424086381E+02 -0.34002025652E+02 -0.44085744821E+01  0.36820909448E+02  0.00000000000E+00 0.  1.
         11    1    4    4    0    0  0.23870685075E+02  0.22615332969E+02  0.12110383006E+02  0.35041750357E+02  0.51100000000E-03 0. -1.
        -11    1    4    4    0    0 -0.17325771200E+01  0.78312555275E+01 -0.52957339150E+01  0.96112009954E+01  0.51100000000E-03 0.  1.
         12    1    4    4    0    0 -0.87140215747E+01  0.35554371559E+01 -0.24060746090E+01  0.97141392001E+01  0.00000000000E+00 0. -1.
</event>
<event>
 8    1  0.2558382E-006  0.9118800E+02  0.7816164E-02  0.1184000E+00
        -11   -1    0    0    0    0  0.00000000000E+00  0.00000000000E+00  0.45593999997E+02  0.45594000000E+02  0.51100000000E-03 0.  1.
         11   -1    0    0    0    0 -0.00000000000E+00 -0.00000000000E+00 -0.45593999997E+02  0.45594000000E+02  0.51100000000E-03 0. -1.
         23    2    1    2    0    0  0.00000000000E+00  0.00000000000E+00  0.88817841970E-15  0.91188000000E+02  0.91188000000E+02 0.  0.
    9900012    2    3    3    0    0  0.19447564141E+02 -0.30498882167E+02 -0.68839933786E+01  0.54367096572E+02  0.40000028254E+02 0.  0.
        -12    1    3    3    0    0 -0.19447564141E+02  0.30498882167E+02  0.68839933786E+01  0.36820903428E+02  0.00000000000E+00 0.  1.
         11    1    4    4    0    0  0.11066978227E+02 -0.86334601747E+01 -0.92040124012E+00  0.14066335001E+02  0.51100000000E-03 0. -1.
        -11    1    4    4    0    0  0.41023888589E+01 -0.63439686372E+01  0.13238235016E+02  0.15242257019E+02  0.51100000000E-03 0.  1.
         12    1    4    4    0    0  0.42781970551E+01 -0.15521453355E+02 -0.19201827155E+02  0.25058504552E+02  0.00000000000E+00 0. -1.
</event>
<event>
 8    1  0.2558382E-006  0.9118800E+02  0.7816164E-02  0.1184000E+00
        -11   -1    0    0    0    0  0.00000000000E+00  0.00000000000E+00  0.45593999997E+02  0.45594000000E+02  0.51100000000E-03 0. -1.
         11   -1    0    0    0    0 -0.00000000000E+00 -0.00000000000E+00 -0.45593999997E+02  0.45594000000E+02  0.51100000000E-03 0.  1.
         23    2    1    2    0    0  0.35527136788E-14  0.00000000000E+00  0.88817841970E-15  0.91188000000E+02  0.91188000000E+02 0.  0.
    9900012    2    3    3    0    0 -0.10085381099E+02  0.34726086403E+02  0.69408298897E+01  0.54366931189E+02  0.39999651231E+02 0.  0.
        -12    1    3    3    0    0  0.10085381099E+02 -0.34726086403E+02 -0.69408298897E+01  0.36821068811E+02  0.00000000000E+00 0.  1.
         11    1    4    4    0    0  0.60367303069E+01  0.75019124130E+01  0.98901484324E+01  0.13803471988E+02  0.51100000000E-03 0. -1.
        -11    1    4    4    0    0  0.13341615911E+01  0.20297833707E+02 -0.66916679493E+01  0.21414024856E+02  0.51100000000E-03 0.  1.
        -12    1    4    4    0    0 -0.17456272997E+02  0.69263402836E+01  0.37423494066E+01  0.19149434345E+02  0.00000000000E+00 0.  1.
</event>
<event>
 8    1  0.2558382E-006  0.9118800E+02  0.7816164E-02  0.1184000E+00
        -11   -1    0    0    0    0  0.00000000000E+00  0.00000000000E+00  0.45593999997E+02  0.45594000000E+02  0.51100000000E-03 0. -1.
         11   -1    0    0    0    0 -0.00000000000E+00 -0.00000000000E+00 -0.45593999997E+02  0.45594000000E+02  0.51100000000E-03 0.  1.
         23    2    1    2    0    0  0.00000000000E+00 -0.17763568394E-14  0.00000000000E+00  0.91188000000E+02  0.91188000000E+02 0.  0.
    9900012    2    3    3    0    0  0.91179729283E+01  0.94861239899E+01 -0.34389780699E+02  0.54367068518E+02  0.39999964301E+02 0.  0.
         12    1    3    3    0    0 -0.91179729283E+01 -0.94861239899E+01  0.34389780699E+02  0.36820931482E+02  0.00000000000E+00 0. -1.
         11    1    4    4    0    0  0.15919065537E+02 -0.10382911306E+02 -0.15044420532E+02  0.24239556187E+02  0.51100000000E-03 0.  1.
        -11    1    4    4    0    0 -0.58936176657E+01  0.75122942241E+01 -0.13215812573E+02  0.16304201787E+02  0.51100000000E-03 0. -1.
        -12    1    4    4    0    0 -0.90747494294E+00  0.12356741072E+02 -0.61295475940E+01  0.13823310544E+02  0.00000000000E+00 0.  1.
</event>
<event>
 8    1  0.2558382E-006  0.9118800E+02  0.7816164E-02  0.1184000E+00
        -11   -1    0    0    0    0  0.00000000000E+00  0.00000000000E+00  0.45593999997E+02  0.45594000000E+02  0.51100000000E-03 0.  1.
         11   -1    0    0    0    0 -0.00000000000E+00 -0.00000000000E+00 -0.45593999997E+02  0.45594000000E+02  0.51100000000E-03 0. -1.
         23    2    1    2    0    0  0.00000000000E+00  0.35527136788E-14  0.17763568394E-14  0.91188000000E+02  0.91188000000E+02 0.  0.
    9900012    2    3    3    0    0 -0.32096184370E+02  0.16047719531E+02 -0.82513693778E+01  0.54367089502E+02  0.40000012138E+02 0.  0.
        -12    1    3    3    0    0  0.32096184370E+02 -0.16047719531E+02  0.82513693778E+01  0.36820910498E+02  0.00000000000E+00 0.  1.
         11    1    4    4    0    0 -0.16674343239E+01  0.80514656717E+01 -0.94493439373E+01  0.12525834814E+02  0.51100000000E-03 0. -1.
        -11    1    4    4    0    0  0.90919843579E+00  0.10350305912E+02 -0.49149460681E-01  0.10390278639E+02  0.51100000000E-03 0.  1.
         12    1    4    4    0    0 -0.31337948482E+02 -0.23540520527E+01  0.12471240202E+01  0.31450976049E+02  0.00000000000E+00 0. -1.
</event>
<event>
 8    1  0.2558382E-006  0.9118800E+02  0.7816164E-02  0.1184000E+00
        -11   -1    0    0    0    0  0.00000000000E+00  0.00000000000E+00  0.45593999997E+02  0.45594000000E+02  0.51100000000E-03 0. -1.
         11   -1    0    0    0    0 -0.00000000000E+00 -0.00000000000E+00 -0.45593999997E+02  0.45594000000E+02  0.51100000000E-03 0.  1.
         23    2    1    2    0    0 -0.35527136788E-14  0.00000000000E+00 -0.17763568394E-14  0.91188000000E+02  0.91188000000E+02 0.  0.
    9900012    2    3    3    0    0  0.31419350220E+02 -0.18140717788E+02 -0.62860838265E+01  0.54367135535E+02  0.40000117078E+02 0.  0.
        -12    1    3    3    0    0 -0.31419350220E+02  0.18140717788E+02  0.62860838265E+01  0.36820864465E+02  0.00000000000E+00 0.  1.
         11    1    4    4    0    0  0.92416789781E+01  0.51557617981E+01  0.79638506162E+01  0.13244373407E+02  0.51100000000E-03 0. -1.
        -11    1    4    4    0    0 -0.20578317596E+01 -0.84770069046E+01  0.11680957216E+01  0.88010661563E+01  0.51100000000E-03 0.  1.
         12    1    4    4    0    0  0.24235503002E+02 -0.14819472681E+02 -0.15418030164E+02  0.32321695971E+02  0.00000000000E+00 0. -1.
</event>
<event>
 8    1  0.2558382E-006  0.9118800E+02  0.7816164E-02  0.1184000E+00
        -11   -1    0    0    0    0  0.00000000000E+00  0.00000000000E+00  0.45593999997E+02  0.45594000000E+02  0.51100000000E-03 0.  1.
         11   -1    0    0    0    0 -0.00000000000E+00 -0.00000000000E+00 -0.45593999997E+02  0.45594000000E+02  0.51100000000E-03 0. -1.
         23    2    1    2    0    0 -0.35527136788E-14  0.44408920985E-15  0.00000000000E+00  0.91188000000E+02  0.91188000000E+02 0.  0.
    9900012    2    3    3    0    0 -0.17572474815E+02  0.27322654337E+01 -0.32241632043E+02  0.54367082273E+02  0.39999995657E+02 0.  0.
        -12    1    3    3    0    0  0.17572474815E+02 -0.27322654337E+01  0.32241632043E+02  0.36820917727E+02  0.00000000000E+00 0.  1.
         11    1    4    4    0    0 -0.17790859926E+02 -0.42868545403E+01 -0.17235976008E+02  0.25139027188E+02  0.51100000000E-03 0. -1.
        -11    1    4    4    0    0 -0.45821222924E+01  0.81951640434E+01  0.35405736456E+01  0.10034551330E+02  0.51100000000E-03 0.  1.
         12    1    4    4    0    0  0.48005074042E+01 -0.11760440694E+01 -0.18546229680E+02  0.19193503754E+02  0.00000000000E+00 0. -1.
</event>
<event>
 8    1  0.2558382E-006  0.9118800E+02  0.7816164E-02  0.1184000E+00
        -11   -1    0    0    0    0  0.00000000000E+00  0.00000000000E+00  0.45593999997E+02  0.45594000000E+02  0.51100000000E-03 0.  1.
         11   -1    0    0    0    0 -0.00000000000E+00 -0.00000000000E+00 -0.45593999997E+02  0.45594000000E+02  0.51100000000E-03 0. -1.
         23    2    1    2    0    0  0.00000000000E+00  0.88817841970E-15  0.00000000000E+00  0.91188000000E+02  0.91188000000E+02 0.  0.
    9900012    2    3    3    0    0 -0.14577430523E+02 -0.53490732345E+01  0.33386608461E+02  0.54367086246E+02  0.40000004715E+02 0.  0.
         12    1    3    3    0    0  0.14577430523E+02  0.53490732345E+01 -0.33386608461E+02  0.36820913754E+02  0.00000000000E+00 0. -1.
         11    1    4    4    0    0 -0.87081515218E+01 -0.76171138364E+01 -0.46559557119E+01  0.12471176768E+02  0.51100000000E-03 0. -1.
        -11    1    4    4    0    0 -0.68138189833E+01  0.50835717431E+01  0.37985966484E+02  0.38925627558E+02  0.51100000000E-03 0.  1.
        -12    1    4    4    0    0  0.94453998223E+00 -0.28155311413E+01  0.56597689074E-01  0.29702819199E+01  0.00000000000E+00 0.  1.
</event>
<event>
 8    1  0.2558382E-006  0.9118800E+02  0.7816164E-02  0.1184000E+00
        -11   -1    0    0    0    0  0.00000000000E+00  0.00000000000E+00  0.45593999997E+02  0.45594000000E+02  0.51100000000E-03 0.  1.
         11   -1    0    0    0    0 -0.00000000000E+00 -0.00000000000E+00 -0.45593999997E+02  0.45594000000E+02  0.51100000000E-03 0. -1.
         23    2    1    2    0    0 -0.88817841970E-15 -0.71054273576E-14  0.00000000000E+00  0.91188000000E+02  0.91188000000E+02 0.  0.
    9900012    2    3    3    0    0 -0.95746172030E+00  0.36634625740E+02  0.35729527399E+01  0.54367102030E+02  0.40000040698E+02 0.  0.
        -12    1    3    3    0    0  0.95746172030E+00 -0.36634625740E+02 -0.35729527399E+01  0.36820897970E+02  0.00000000000E+00 0.  1.
         11    1    4    4    0    0  0.26040360799E+01 -0.36242141913E+01 -0.72068118740E+01  0.84766780084E+01  0.51100000000E-03 0. -1.
        -11    1    4    4    0    0 -0.64360144055E+01  0.28040625762E+01  0.22152871654E+01  0.73615586559E+01  0.51100000000E-03 0.  1.
        -12    1    4    4    0    0  0.28745166053E+01  0.37454777355E+02  0.85644774485E+01  0.38528865366E+02  0.00000000000E+00 0.  1.
</event>
<event>
 8    1  0.2558382E-006  0.9118800E+02  0.7816164E-02  0.1184000E+00
        -11   -1    0    0    0    0  0.00000000000E+00  0.00000000000E+00  0.45593999997E+02  0.45594000000E+02  0.51100000000E-03 0. -1.
         11   -1    0    0    0    0 -0.00000000000E+00 -0.00000000000E+00 -0.45593999997E+02  0.45594000000E+02  0.51100000000E-03 0.  1.
         23    2    1    2    0    0  0.00000000000E+00  0.35527136788E-14  0.00000000000E+00  0.91188000000E+02  0.91188000000E+02 0.  0.
    9900012    2    3    3    0    0 -0.59421150229E+01  0.24079048160E+02  0.27215286578E+02  0.54367066894E+02  0.39999960598E+02 0.  0.
        -12    1    3    3    0    0  0.59421150229E+01 -0.24079048160E+02 -0.27215286578E+02  0.36820933106E+02  0.00000000000E+00 0.  1.
         11    1    4    4    0    0 -0.14800536071E+02  0.16738899895E+02  0.20216132387E+01  0.22435096568E+02  0.51100000000E-03 0.  1.
        -11    1    4    4    0    0  0.10908263570E+02  0.10151250841E+02  0.14925843553E+02  0.21090730517E+02  0.51100000000E-03 0. -1.
        -12    1    4    4    0    0 -0.20498425222E+01 -0.28111025749E+01  0.10267829787E+02  0.10841239809E+02  0.00000000000E+00 0.  1.
</event>
<event>
 8    1  0.2558382E-006  0.9118800E+02  0.7816164E-02  0.1184000E+00
        -11   -1    0    0    0    0  0.00000000000E+00  0.00000000000E+00  0.45593999997E+02  0.45594000000E+02  0.51100000000E-03 0.  1.
         11   -1    0    0    0    0 -0.00000000000E+00 -0.00000000000E+00 -0.45593999997E+02  0.45594000000E+02  0.51100000000E-03 0. -1.
         23    2    1    2    0    0  0.00000000000E+00  0.00000000000E+00  0.17763568394E-14  0.91188000000E+02  0.91188000000E+02 0.  0.
    9900012    2    3    3    0    0  0.21562093137E+02 -0.28645524432E+02  0.83839213841E+01  0.54367081106E+02  0.39999992997E+02 0.  0.
        -12    1    3    3    0    0 -0.21562093137E+02  0.28645524432E+02 -0.83839213841E+01  0.36820918894E+02  0.00000000000E+00 0.  1.
         11    1    4    4    0    0  0.19286541371E+02  0.32616207485E+01 -0.32327835203E+01  0.19825734224E+02  0.51100000000E-03 0. -1.
        -11    1    4    4    0    0  0.84841204382E+00 -0.26007195508E+02  0.70913066299E+01  0.26969995387E+02  0.51100000000E-03 0.  1.
         12    1    4    4    0    0  0.14271397228E+01 -0.58999496720E+01  0.45253982745E+01  0.75713514951E+01  0.00000000000E+00 0. -1.
</event>
<event>
 8    1  0.2558382E-006  0.9118800E+02  0.7816164E-02  0.1184000E+00
        -11   -1    0    0    0    0  0.00000000000E+00  0.00000000000E+00  0.45593999997E+02  0.45594000000E+02  0.51100000000E-03 0.  1.
         11   -1    0    0    0    0 -0.00000000000E+00 -0.00000000000E+00 -0.45593999997E+02  0.45594000000E+02  0.51100000000E-03 0. -1.
         23    2    1    2    0    0 -0.17763568394E-14 -0.17763568394E-14  0.00000000000E+00  0.91188000000E+02  0.91188000000E+02 0.  0.
    9900012    2    3    3    0    0  0.82981062667E+01 -0.58076043958E+01 -0.35400446715E+02  0.54367102889E+02  0.40000042656E+02 0.  0.
        -12    1    3    3    0    0 -0.82981062667E+01  0.58076043958E+01  0.35400446715E+02  0.36820897111E+02  0.00000000000E+00 0.  1.
         11    1    4    4    0    0  0.50147135254E+01 -0.37553037771E+01 -0.95149972401E+01  0.11392314556E+02  0.51100000000E-03 0.  1.
        -11    1    4    4    0    0  0.20538592269E+01  0.12628389938E+02 -0.25158358000E+02  0.28224768337E+02  0.51100000000E-03 0. -1.
        -12    1    4    4    0    0  0.12295335144E+01 -0.14680690557E+02 -0.72709147544E+00  0.14750019997E+02  0.00000000000E+00 0.  1.
</event>
<event>
 8    1  0.2558382E-006  0.9118800E+02  0.7816164E-02  0.1184000E+00
        -11   -1    0    0    0    0  0.00000000000E+00  0.00000000000E+00  0.45593999997E+02  0.45594000000E+02  0.51100000000E-03 0.  1.
         11   -1    0    0    0    0 -0.00000000000E+00 -0.00000000000E+00 -0.45593999997E+02  0.45594000000E+02  0.51100000000E-03 0. -1.
         23    2    1    2    0    0  0.00000000000E+00 -0.35527136788E-14  0.00000000000E+00  0.91188000000E+02  0.91188000000E+02 0.  0.
    9900012    2    3    3    0    0  0.30916905587E+02  0.85225050287E+01  0.18091220241E+02  0.54367076698E+02  0.39999982948E+02 0.  0.
        -12    1    3    3    0    0 -0.30916905587E+02 -0.85225050287E+01 -0.18091220241E+02  0.36820923302E+02  0.00000000000E+00 0.  1.
         11    1    4    4    0    0  0.11264489929E+02 -0.29550038723E+01  0.13803065323E+02  0.18059495946E+02  0.51100000000E-03 0. -1.
        -11    1    4    4    0    0  0.16021738979E+02  0.20150769411E+02 -0.51544766493E+00  0.25749083757E+02  0.51100000000E-03 0.  1.
        -12    1    4    4    0    0  0.36306766779E+01 -0.86732605097E+01  0.48036025837E+01  0.10558496995E+02  0.00000000000E+00 0.  1.
</event>
<event>
 8    1  0.2558382E-006  0.9118800E+02  0.7816164E-02  0.1184000E+00
        -11   -1    0    0    0    0  0.00000000000E+00  0.00000000000E+00  0.45593999997E+02  0.45594000000E+02  0.51100000000E-03 0. -1.
         11   -1    0    0    0    0 -0.00000000000E+00 -0.00000000000E+00 -0.45593999997E+02  0.45594000000E+02  0.51100000000E-03 0.  1.
         23    2    1    2    0    0  0.88817841970E-15  0.71054273576E-14  0.00000000000E+00  0.91188000000E+02  0.91188000000E+02 0.  0.
    9900012    2    3    3    0    0 -0.55872838712E+01  0.35347244157E+02 -0.86680494358E+01  0.54367075357E+02  0.39999979891E+02 0.  0.
         12    1    3    3    0    0  0.55872838712E+01 -0.35347244157E+02  0.86680494358E+01  0.36820924643E+02  0.00000000000E+00 0. -1.
         11    1    4    4    0    0 -0.14294452518E+02  0.12418555241E+02  0.44565963551E+00  0.18940710120E+02  0.51100000000E-03 0. -1.
        -11    1    4    4    0    0  0.44542587098E+01 -0.34877358902E+01  0.25901166412E+01  0.62220114730E+01  0.51100000000E-03 0.  1.
        -12    1    4    4    0    0  0.42529099372E+01  0.26416424806E+02 -0.11703825712E+02  0.29204353764E+02  0.00000000000E+00 0.  1.
</event>
<event>
 8    1  0.2558382E-006  0.9118800E+02  0.7816164E-02  0.1184000E+00
        -11   -1    0    0    0    0  0.00000000000E+00  0.00000000000E+00  0.45593999997E+02  0.45594000000E+02  0.51100000000E-03 0. -1.
         11   -1    0    0    0    0 -0.00000000000E+00 -0.00000000000E+00 -0.45593999997E+02  0.45594000000E+02  0.51100000000E-03 0.  1.
         23    2    1    2    0    0 -0.35527136788E-14  0.00000000000E+00  0.35527136788E-14  0.91188000000E+02  0.91188000000E+02 0.  0.
    9900012    2    3    3    0    0  0.16058169501E+02  0.22132946356E+02 -0.24658710124E+02  0.54367026261E+02  0.39999867966E+02 0.  0.
         12    1    3    3    0    0 -0.16058169501E+02 -0.22132946356E+02  0.24658710124E+02  0.36820973739E+02  0.00000000000E+00 0. -1.
         11    1    4    4    0    0  0.96406653495E+01  0.64380738320E+01  0.12546793990E+00  0.11593401809E+02  0.51100000000E-03 0.  1.
        -11    1    4    4    0    0 -0.95253181875E+01  0.10720013394E+02 -0.19334104156E+01  0.14470260876E+02  0.51100000000E-03 0. -1.
         12    1    4    4    0    0  0.15942822339E+02  0.49748591296E+01 -0.22850767649E+02  0.28303363575E+02  0.00000000000E+00 0. -1.
</event>
<event>
 8    1  0.2558382E-006  0.9118800E+02  0.7816164E-02  0.1184000E+00
        -11   -1    0    0    0    0  0.00000000000E+00  0.00000000000E+00  0.45593999997E+02  0.45594000000E+02  0.51100000000E-03 0.  1.
         11   -1    0    0    0    0 -0.00000000000E+00 -0.00000000000E+00 -0.45593999997E+02  0.45594000000E+02  0.51100000000E-03 0. -1.
         23    2    1    2    0    0  0.35527136788E-14 -0.35527136788E-14  0.17763568394E-14  0.91188000000E+02  0.91188000000E+02 0.  0.
    9900012    2    3    3    0    0 -0.27300747361E+02  0.21162841886E+02 -0.12750823160E+02  0.54367079663E+02  0.39999989709E+02 0.  0.
        -12    1    3    3    0    0  0.27300747361E+02 -0.21162841886E+02  0.12750823160E+02  0.36820920337E+02  0.00000000000E+00 0.  1.
         11    1    4    4    0    0  0.17911153117E+01 -0.32242219974E+01 -0.38435669523E+01  0.53269793247E+01  0.51100000000E-03 0. -1.
        -11    1    4    4    0    0 -0.34331589032E+02  0.22707809535E+02 -0.34753957202E+01  0.41308364710E+02  0.51100000000E-03 0.  1.
        -12    1    4    4    0    0  0.52397263586E+01  0.16792543484E+01 -0.54318604879E+01  0.77317356292E+01  0.00000000000E+00 0.  1.
</event>
<event>
 8    1  0.2558382E-006  0.9118800E+02  0.7816164E-02  0.1184000E+00
        -11   -1    0    0    0    0  0.00000000000E+00  0.00000000000E+00  0.45593999997E+02  0.45594000000E+02  0.51100000000E-03 0.  1.
         11   -1    0    0    0    0 -0.00000000000E+00 -0.00000000000E+00 -0.45593999997E+02  0.45594000000E+02  0.51100000000E-03 0. -1.
         23    2    1    2    0    0 -0.17763568394E-14  0.00000000000E+00  0.00000000000E+00  0.91188000000E+02  0.91188000000E+02 0.  0.
    9900012    2    3    3    0    0  0.64975890286E+01  0.31308908938E+02 -0.18256798895E+02  0.54367120760E+02  0.40000083397E+02 0.  0.
        -12    1    3    3    0    0 -0.64975890286E+01 -0.31308908938E+02  0.18256798895E+02  0.36820879240E+02  0.00000000000E+00 0.  1.
         11    1    4    4    0    0  0.84659595386E+01 -0.13834638391E+01 -0.46287900226E+01  0.97474171162E+01  0.51100000000E-03 0. -1.
        -11    1    4    4    0    0 -0.74103772649E+01 -0.13273417563E+01 -0.52059264027E+01  0.91529884365E+01  0.51100000000E-03 0.  1.
        -12    1    4    4    0    0  0.54420067549E+01  0.34019714534E+02 -0.84220824699E+01  0.35466715208E+02  0.00000000000E+00 0.  1.
</event>
<event>
 8    1  0.2558382E-006  0.9118800E+02  0.7816164E-02  0.1184000E+00
        -11   -1    0    0    0    0  0.00000000000E+00  0.00000000000E+00  0.45593999997E+02  0.45594000000E+02  0.51100000000E-03 0.  1.
         11   -1    0    0    0    0 -0.00000000000E+00 -0.00000000000E+00 -0.45593999997E+02  0.45594000000E+02  0.51100000000E-03 0. -1.
         23    2    1    2    0    0  0.00000000000E+00  0.00000000000E+00  0.00000000000E+00  0.91188000000E+02  0.91188000000E+02 0.  0.
    9900012    2    3    3    0    0  0.32030210756E+02  0.46062762808E+01 -0.17567813905E+02  0.54367078397E+02  0.39999986822E+02 0.  0.
        -12    1    3    3    0    0 -0.32030210756E+02 -0.46062762808E+01  0.17567813905E+02  0.36820921603E+02  0.00000000000E+00 0.  1.
         11    1    4    4    0    0  0.26822406048E+02  0.23161182008E+01 -0.31671632251E+01  0.27107873263E+02  0.51100000000E-03 0. -1.
        -11    1    4    4    0    0  0.20896881801E+01 -0.10125641528E+02 -0.67016998415E+01  0.12321046793E+02  0.51100000000E-03 0.  1.
        -12    1    4    4    0    0  0.31181165288E+01  0.12415799608E+02 -0.76989508387E+01  0.14938158341E+02  0.00000000000E+00 0.  1.
</event>
<event>
 8    1  0.2558382E-006  0.9118800E+02  0.7816164E-02  0.1184000E+00
        -11   -1    0    0    0    0  0.00000000000E+00  0.00000000000E+00  0.45593999997E+02  0.45594000000E+02  0.51100000000E-03 0.  1.
         11   -1    0    0    0    0 -0.00000000000E+00 -0.00000000000E+00 -0.45593999997E+02  0.45594000000E+02  0.51100000000E-03 0. -1.
         23    2    1    2    0    0  0.35527136788E-14  0.00000000000E+00  0.00000000000E+00  0.91188000000E+02  0.91188000000E+02 0.  0.
    9900012    2    3    3    0    0  0.21471009780E+02  0.16366563515E+02  0.25038188133E+02  0.54367088451E+02  0.40000009742E+02 0.  0.
         12    1    3    3    0    0 -0.21471009780E+02 -0.16366563515E+02 -0.25038188133E+02  0.36820911549E+02  0.00000000000E+00 0. -1.
         11    1    4    4    0    0  0.11423448719E+02  0.13127457330E+02  0.18153710219E+01  0.17496310720E+02  0.51100000000E-03 0. -1.
        -11    1    4    4    0    0 -0.42458268522E+01  0.10743578824E+02  0.51809508454E+01  0.12660718128E+02  0.51100000000E-03 0.  1.
         12    1    4    4    0    0  0.14293387913E+02 -0.75044726388E+01  0.18041866266E+02  0.24210059603E+02  0.00000000000E+00 0. -1.
</event>
<event>
 8    1  0.2558382E-006  0.9118800E+02  0.7816164E-02  0.1184000E+00
        -11   -1    0    0    0    0  0.00000000000E+00  0.00000000000E+00  0.45593999997E+02  0.45594000000E+02  0.51100000000E-03 0. -1.
         11   -1    0    0    0    0 -0.00000000000E+00 -0.00000000000E+00 -0.45593999997E+02  0.45594000000E+02  0.51100000000E-03 0.  1.
         23    2    1    2    0    0  0.17763568394E-14 -0.35527136788E-14  0.00000000000E+00  0.91188000000E+02  0.91188000000E+02 0.  0.
    9900012    2    3    3    0    0  0.12033108734E+02 -0.29595869066E+02  0.18305269337E+02  0.54366891148E+02  0.39999559948E+02 0.  0.
         12    1    3    3    0    0 -0.12033108734E+02  0.29595869066E+02 -0.18305269337E+02  0.36821108852E+02  0.00000000000E+00 0. -1.
         11    1    4    4    0    0 -0.49485910985E+01 -0.50176511890E+01 -0.41977485051E+01  0.82028330525E+01  0.51100000000E-03 0. -1.
        -11    1    4    4    0    0  0.10555583866E+02 -0.28617340006E+02  0.11085718514E+02  0.32454054524E+02  0.51100000000E-03 0.  1.
        -12    1    4    4    0    0  0.64261159662E+01  0.40391221291E+01  0.11417299328E+02  0.13710003572E+02  0.00000000000E+00 0.  1.
</event>
<event>
 8    1  0.2558382E-006  0.9118800E+02  0.7816164E-02  0.1184000E+00
        -11   -1    0    0    0    0  0.00000000000E+00  0.00000000000E+00  0.45593999997E+02  0.45594000000E+02  0.51100000000E-03 0.  1.
         11   -1    0    0    0    0 -0.00000000000E+00 -0.00000000000E+00 -0.45593999997E+02  0.45594000000E+02  0.51100000000E-03 0. -1.
         23    2    1    2    0    0  0.00000000000E+00  0.00000000000E+00 -0.35527136788E-14  0.91188000000E+02  0.91188000000E+02 0.  0.
    9900012    2    3    3    0    0  0.97925759835E+01 -0.28931334095E+02 -0.20563619520E+02  0.54367094461E+02  0.40000023444E+02 0.  0.
         12    1    3    3    0    0 -0.97925759835E+01  0.28931334095E+02  0.20563619520E+02  0.36820905539E+02  0.00000000000E+00 0. -1.
         11    1    4    4    0    0  0.82607131271E+01  0.49347333936E+01  0.53649724033E+01  0.11016982535E+02  0.51100000000E-03 0. -1.
        -11    1    4    4    0    0  0.18765156503E+01 -0.31219291834E+02 -0.26012868091E+02  0.40679660768E+02  0.51100000000E-03 0.  1.
         12    1    4    4    0    0 -0.34465279385E+00 -0.26467756548E+01  0.84276168160E-01  0.26704511581E+01  0.00000000000E+00 0. -1.
</event>
<event>
 8    1  0.2558382E-006  0.9118800E+02  0.7816164E-02  0.1184000E+00
        -11   -1    0    0    0    0  0.00000000000E+00  0.00000000000E+00  0.45593999997E+02  0.45594000000E+02  0.51100000000E-03 0.  1.
         11   -1    0    0    0    0 -0.00000000000E+00 -0.00000000000E+00 -0.45593999997E+02  0.45594000000E+02  0.51100000000E-03 0. -1.
         23    2    1    2    0    0  0.00000000000E+00 -0.71054273576E-14  0.35527136788E-14  0.91188000000E+02  0.91188000000E+02 0.  0.
    9900012    2    3    3    0    0  0.20077636796E+02 -0.24974244747E+02  0.18137147750E+02  0.54367074855E+02  0.39999978747E+02 0.  0.
         12    1    3    3    0    0 -0.20077636796E+02  0.24974244747E+02 -0.18137147750E+02  0.36820925145E+02  0.00000000000E+00 0. -1.
         11    1    4    4    0    0  0.24209421218E+02 -0.50351655166E+01  0.36501799007E+01  0.24995455208E+02  0.51100000000E-03 0. -1.
        -11    1    4    4    0    0 -0.59502152359E+01 -0.37829641840E+01  0.10472932751E+02  0.12625299998E+02  0.51100000000E-03 0.  1.
         12    1    4    4    0    0  0.18184308146E+01 -0.16156115046E+02  0.40140350984E+01  0.16746319649E+02  0.00000000000E+00 0. -1.
</event>
<event>
 8    1  0.2558382E-006  0.9118800E+02  0.7816164E-02  0.1184000E+00
        -11   -1    0    0    0    0  0.00000000000E+00  0.00000000000E+00  0.45593999997E+02  0.45594000000E+02  0.51100000000E-03 0. -1.
         11   -1    0    0    0    0 -0.00000000000E+00 -0.00000000000E+00 -0.45593999997E+02  0.45594000000E+02  0.51100000000E-03 0.  1.
         23    2    1    2    0    0  0.00000000000E+00  0.00000000000E+00 -0.35527136788E-14  0.91188000000E+02  0.91188000000E+02 0.  0.
    9900012    2    3    3    0    0 -0.28256312575E+02 -0.16215106500E+02  0.17159002407E+02  0.54367078736E+02  0.39999987593E+02 0.  0.
        -12    1    3    3    0    0  0.28256312575E+02  0.16215106500E+02 -0.17159002407E+02  0.36820921264E+02  0.00000000000E+00 0.  1.
         11    1    4    4    0    0  0.19896295992E+01  0.22832934141E+01 -0.32756907832E+01  0.44611887569E+01  0.51100000000E-03 0. -1.
        -11    1    4    4    0    0  0.20799385318E+01 -0.46987874864E+01 -0.44846534940E+01  0.68203273646E+01  0.51100000000E-03 0.  1.
         12    1    4    4    0    0 -0.32325880706E+02 -0.13799612428E+02  0.24919346685E+02  0.43085562614E+02  0.00000000000E+00 0. -1.
</event>
<event>
 8    1  0.2558382E-006  0.9118800E+02  0.7816164E-02  0.1184000E+00
        -11   -1    0    0    0    0  0.00000000000E+00  0.00000000000E+00  0.45593999997E+02  0.45594000000E+02  0.51100000000E-03 0. -1.
         11   -1    0    0    0    0 -0.00000000000E+00 -0.00000000000E+00 -0.45593999997E+02  0.45594000000E+02  0.51100000000E-03 0.  1.
         23    2    1    2    0    0  0.00000000000E+00  0.00000000000E+00  0.00000000000E+00  0.91188000000E+02  0.91188000000E+02 0.  0.
    9900012    2    3    3    0    0  0.91188098997E+01 -0.23068265771E+02 -0.27211821875E+02  0.54367070769E+02  0.39999969432E+02 0.  0.
         12    1    3    3    0    0 -0.91188098997E+01  0.23068265771E+02  0.27211821875E+02  0.36820929231E+02  0.00000000000E+00 0. -1.
         11    1    4    4    0    0 -0.75902523511E+01  0.76182289654E+00  0.49689604315E+01  0.91040031256E+01  0.51100000000E-03 0. -1.
        -11    1    4    4    0    0  0.15053284694E+02 -0.12658129591E+02 -0.15144090180E+02  0.24822834094E+02  0.51100000000E-03 0.  1.
        -12    1    4    4    0    0  0.16557775570E+01 -0.11171959077E+02 -0.17036692127E+02  0.20440233549E+02  0.00000000000E+00 0.  1.
</event>
<event>
 8    1  0.2558382E-006  0.9118800E+02  0.7816164E-02  0.1184000E+00
        -11   -1    0    0    0    0  0.00000000000E+00  0.00000000000E+00  0.45593999997E+02  0.45594000000E+02  0.51100000000E-03 0.  1.
         11   -1    0    0    0    0 -0.00000000000E+00 -0.00000000000E+00 -0.45593999997E+02  0.45594000000E+02  0.51100000000E-03 0. -1.
         23    2    1    2    0    0  0.00000000000E+00 -0.88817841970E-15  0.00000000000E+00  0.91188000000E+02  0.91188000000E+02 0.  0.
    9900012    2    3    3    0    0  0.10895520941E+02 -0.58345010067E+01  0.34684681638E+02  0.54367069554E+02  0.39999966662E+02 0.  0.
         12    1    3    3    0    0 -0.10895520941E+02  0.58345010067E+01 -0.34684681638E+02  0.36820930446E+02  0.00000000000E+00 0. -1.
         11    1    4    4    0    0 -0.13276805735E+01 -0.11099358185E+02  0.32664000072E+02  0.34523837979E+02  0.51100000000E-03 0.  1.
        -11    1    4    4    0    0  0.38165343500E+01 -0.46039279334E+01 -0.19412837483E+01  0.62873420229E+01  0.51100000000E-03 0. -1.
        -12    1    4    4    0    0  0.84066671644E+01  0.98687851115E+01  0.39619653147E+01  0.13555889552E+02  0.00000000000E+00 0.  1.
</event>
<event>
 8    1  0.2558382E-006  0.9118800E+02  0.7816164E-02  0.1184000E+00
        -11   -1    0    0    0    0  0.00000000000E+00  0.00000000000E+00  0.45593999997E+02  0.45594000000E+02  0.51100000000E-03 0.  1.
         11   -1    0    0    0    0 -0.00000000000E+00 -0.00000000000E+00 -0.45593999997E+02  0.45594000000E+02  0.51100000000E-03 0. -1.
         23    2    1    2    0    0  0.00000000000E+00 -0.17763568394E-14  0.35527136788E-14  0.91188000000E+02  0.91188000000E+02 0.  0.
    9900012    2    3    3    0    0 -0.21559738410E+02  0.11553216197E+02 -0.27522356160E+02  0.54367092714E+02  0.40000019459E+02 0.  0.
        -12    1    3    3    0    0  0.21559738410E+02 -0.11553216197E+02  0.27522356160E+02  0.36820907286E+02  0.00000000000E+00 0.  1.
         11    1    4    4    0    0 -0.14075115850E+02 -0.59718536250E+01 -0.15388772440E+02  0.21692999778E+02  0.51100000000E-03 0. -1.
        -11    1    4    4    0    0 -0.45967698433E+01  0.14027258873E+02 -0.19235886344E+02  0.24246929871E+02  0.51100000000E-03 0.  1.
        -12    1    4    4    0    0 -0.28878527168E+01  0.34978109495E+01  0.71023026240E+01  0.84271630645E+01  0.00000000000E+00 0.  1.
</event>
<event>
 8    1  0.2558382E-006  0.9118800E+02  0.7816164E-02  0.1184000E+00
        -11   -1    0    0    0    0  0.00000000000E+00  0.00000000000E+00  0.45593999997E+02  0.45594000000E+02  0.51100000000E-03 0. -1.
         11   -1    0    0    0    0 -0.00000000000E+00 -0.00000000000E+00 -0.45593999997E+02  0.45594000000E+02  0.51100000000E-03 0.  1.
         23    2    1    2    0    0  0.17763568394E-14 -0.35527136788E-14  0.00000000000E+00  0.91188000000E+02  0.91188000000E+02 0.  0.
    9900012    2    3    3    0    0 -0.13129537806E+02  0.31696084448E+02  0.13369863228E+02  0.54367085086E+02  0.40000002071E+02 0.  0.
        -12    1    3    3    0    0  0.13129537806E+02 -0.31696084448E+02 -0.13369863228E+02  0.36820914914E+02  0.00000000000E+00 0.  1.
         11    1    4    4    0    0 -0.58441369167E+01  0.34272403765E+00  0.13322454269E+02  0.14551947776E+02  0.51100000000E-03 0. -1.
        -11    1    4    4    0    0 -0.13830037208E+02  0.27560461460E+02 -0.42309659091E+01  0.31124749603E+02  0.51100000000E-03 0.  1.
         12    1    4    4    0    0  0.65446363180E+01  0.37928989508E+01  0.42783748683E+01  0.86903877071E+01  0.00000000000E+00 0. -1.
</event>
<event>
 8    1  0.2558382E-006  0.9118800E+02  0.7816164E-02  0.1184000E+00
        -11   -1    0    0    0    0  0.00000000000E+00  0.00000000000E+00  0.45593999997E+02  0.45594000000E+02  0.51100000000E-03 0.  1.
         11   -1    0    0    0    0 -0.00000000000E+00 -0.00000000000E+00 -0.45593999997E+02  0.45594000000E+02  0.51100000000E-03 0. -1.
         23    2    1    2    0    0  0.22204460493E-15  0.00000000000E+00  0.00000000000E+00  0.91188000000E+02  0.91188000000E+02 0.  0.
    9900012    2    3    3    0    0 -0.18169771726E+01  0.35333330585E+02 -0.10199717832E+02  0.54367083388E+02  0.39999998200E+02 0.  0.
        -12    1    3    3    0    0  0.18169771726E+01 -0.35333330585E+02  0.10199717832E+02  0.36820916612E+02  0.00000000000E+00 0.  1.
         11    1    4    4    0    0 -0.10654186180E+02  0.28384480855E+02 -0.59553545770E+01  0.30897519075E+02  0.51100000000E-03 0. -1.
        -11    1    4    4    0    0 -0.45750170665E+01 -0.37276099757E+01 -0.49888522319E+00  0.59223934365E+01  0.51100000000E-03 0.  1.
         12    1    4    4    0    0  0.13412226074E+02  0.10676459706E+02 -0.37454780315E+01  0.17547170877E+02  0.00000000000E+00 0. -1.
</event>
<event>
 8    1  0.2558382E-006  0.9118800E+02  0.7816164E-02  0.1184000E+00
        -11   -1    0    0    0    0  0.00000000000E+00  0.00000000000E+00  0.45593999997E+02  0.45594000000E+02  0.51100000000E-03 0.  1.
         11   -1    0    0    0    0 -0.00000000000E+00 -0.00000000000E+00 -0.45593999997E+02  0.45594000000E+02  0.51100000000E-03 0. -1.
         23    2    1    2    0    0  0.71054273576E-14  0.00000000000E+00  0.00000000000E+00  0.91188000000E+02  0.91188000000E+02 0.  0.
    9900012    2    3    3    0    0  0.30243004084E+02  0.17432595802E+02  0.11715155013E+02  0.54367088151E+02  0.40000009059E+02 0.  0.
         12    1    3    3    0    0 -0.30243004084E+02 -0.17432595802E+02 -0.11715155013E+02  0.36820911849E+02  0.00000000000E+00 0. -1.
         11    1    4    4    0    0 -0.41332990854E+01  0.17597004959E+02  0.31662278704E+01  0.18351123782E+02  0.51100000000E-03 0. -1.
        -11    1    4    4    0    0  0.19289049366E+02 -0.31424911365E+01  0.36935977613E+01  0.19889327306E+02  0.51100000000E-03 0.  1.
         12    1    4    4    0    0  0.15087253803E+02  0.29780819788E+01  0.48553293813E+01  0.16126637064E+02  0.00000000000E+00 0. -1.
</event>
<event>
 8    1  0.2558382E-006  0.9118800E+02  0.7816164E-02  0.1184000E+00
        -11   -1    0    0    0    0  0.00000000000E+00  0.00000000000E+00  0.45593999997E+02  0.45594000000E+02  0.51100000000E-03 0. -1.
         11   -1    0    0    0    0 -0.00000000000E+00 -0.00000000000E+00 -0.45593999997E+02  0.45594000000E+02  0.51100000000E-03 0.  1.
         23    2    1    2    0    0  0.17763568394E-14  0.35527136788E-14  0.35527136788E-14  0.91188000000E+02  0.91188000000E+02 0.  0.
    9900012    2    3    3    0    0  0.12760547435E+02  0.24869428118E+02 -0.23967969404E+02  0.54367033377E+02  0.39999884188E+02 0.  0.
         12    1    3    3    0    0 -0.12760547435E+02 -0.24869428118E+02  0.23967969404E+02  0.36820966623E+02  0.00000000000E+00 0. -1.
         11    1    4    4    0    0  0.79207307016E+00  0.13651290212E+02 -0.11740746032E+02  0.18023046964E+02  0.51100000000E-03 0. -1.
        -11    1    4    4    0    0  0.77063854329E+01  0.18077242101E+01 -0.21219565183E+02  0.22647873853E+02  0.51100000000E-03 0.  1.
         12    1    4    4    0    0  0.42620889318E+01  0.94104136955E+01  0.89923418116E+01  0.13696112559E+02  0.00000000000E+00 0. -1.
</event>
<event>
 8    1  0.2558382E-006  0.9118800E+02  0.7816164E-02  0.1184000E+00
        -11   -1    0    0    0    0  0.00000000000E+00  0.00000000000E+00  0.45593999997E+02  0.45594000000E+02  0.51100000000E-03 0.  1.
         11   -1    0    0    0    0 -0.00000000000E+00 -0.00000000000E+00 -0.45593999997E+02  0.45594000000E+02  0.51100000000E-03 0. -1.
         23    2    1    2    0    0  0.00000000000E+00  0.00000000000E+00  0.35527136788E-14  0.91188000000E+02  0.91188000000E+02 0.  0.
    9900012    2    3    3    0    0 -0.13264639735E+02 -0.16770026025E+02 -0.29976575768E+02  0.54367088347E+02  0.40000009505E+02 0.  0.
        -12    1    3    3    0    0  0.13264639735E+02  0.16770026025E+02  0.29976575768E+02  0.36820911653E+02  0.00000000000E+00 0.  1.
         11    1    4    4    0    0  0.54688029426E+01 -0.75299179708E+01  0.64285943633E+00  0.93284907026E+01  0.51100000000E-03 0. -1.
        -11    1    4    4    0    0 -0.32431482567E+00 -0.42387337287E+01  0.37898198100E+01  0.56951539208E+01  0.51100000000E-03 0.  1.
        -12    1    4    4    0    0 -0.18409127852E+02 -0.50013743254E+01 -0.34409255014E+02  0.39343443724E+02  0.00000000000E+00 0.  1.
</event>
<event>
 8    1  0.2558382E-006  0.9118800E+02  0.7816164E-02  0.1184000E+00
        -11   -1    0    0    0    0  0.00000000000E+00  0.00000000000E+00  0.45593999997E+02  0.45594000000E+02  0.51100000000E-03 0. -1.
         11   -1    0    0    0    0 -0.00000000000E+00 -0.00000000000E+00 -0.45593999997E+02  0.45594000000E+02  0.51100000000E-03 0.  1.
         23    2    1    2    0    0 -0.17763568394E-14  0.00000000000E+00  0.17763568394E-14  0.91188000000E+02  0.91188000000E+02 0.  0.
    9900012    2    3    3    0    0 -0.73759195750E+01  0.32879677291E+02  0.14842583345E+02  0.54367086802E+02  0.40000005983E+02 0.  0.
        -12    1    3    3    0    0  0.73759195750E+01 -0.32879677291E+02 -0.14842583345E+02  0.36820913198E+02  0.00000000000E+00 0.  1.
         11    1    4    4    0    0  0.10784157721E+02  0.16906611626E+02  0.17076917505E+01  0.20125799010E+02  0.51100000000E-03 0. -1.
        -11    1    4    4    0    0 -0.99116191217E+01  0.73675285529E+01 -0.43379498696E+01  0.13089632536E+02  0.51100000000E-03 0.  1.
         12    1    4    4    0    0 -0.82484581740E+01  0.86055371126E+01  0.17472841465E+02  0.21151655257E+02  0.00000000000E+00 0. -1.
</event>
<event>
 8    1  0.2558382E-006  0.9118800E+02  0.7816164E-02  0.1184000E+00
        -11   -1    0    0    0    0  0.00000000000E+00  0.00000000000E+00  0.45593999997E+02  0.45594000000E+02  0.51100000000E-03 0.  1.
         11   -1    0    0    0    0 -0.00000000000E+00 -0.00000000000E+00 -0.45593999997E+02  0.45594000000E+02  0.51100000000E-03 0. -1.
         23    2    1    2    0    0  0.00000000000E+00  0.00000000000E+00  0.00000000000E+00  0.91188000000E+02  0.91188000000E+02 0.  0.
    9900012    2    3    3    0    0 -0.16928548919E+02 -0.32582267372E+02 -0.27567645201E+01  0.54367086565E+02  0.40000005442E+02 0.  0.
        -12    1    3    3    0    0  0.16928548919E+02  0.32582267372E+02  0.27567645201E+01  0.36820913435E+02  0.00000000000E+00 0.  1.
         11    1    4    4    0    0  0.11418026311E+01 -0.82301189347E+01 -0.45393481625E+00  0.83213357104E+01  0.51100000000E-03 0. -1.
        -11    1    4    4    0    0  0.47282996875E+01 -0.20996759286E+02  0.45619798822E+01  0.22000735877E+02  0.51100000000E-03 0.  1.
         12    1    4    4    0    0 -0.22798651237E+02 -0.33553891514E+01 -0.68648095861E+01  0.24045014977E+02  0.00000000000E+00 0. -1.
</event>
<event>
 8    1  0.2558382E-006  0.9118800E+02  0.7816164E-02  0.1184000E+00
        -11   -1    0    0    0    0  0.00000000000E+00  0.00000000000E+00  0.45593999997E+02  0.45594000000E+02  0.51100000000E-03 0. -1.
         11   -1    0    0    0    0 -0.00000000000E+00 -0.00000000000E+00 -0.45593999997E+02  0.45594000000E+02  0.51100000000E-03 0.  1.
         23    2    1    2    0    0  0.17763568394E-14  0.00000000000E+00  0.35527136788E-14  0.91188000000E+02  0.91188000000E+02 0.  0.
    9900012    2    3    3    0    0  0.15532752640E+02 -0.10957898316E+02  0.31534698622E+02  0.54367093476E+02  0.40000021197E+02 0.  0.
        -12    1    3    3    0    0 -0.15532752640E+02  0.10957898316E+02 -0.31534698622E+02  0.36820906524E+02  0.00000000000E+00 0.  1.
         11    1    4    4    0    0 -0.78373997392E+01 -0.12690432019E+02  0.24503621655E+02  0.28686222721E+02  0.51100000000E-03 0. -1.
        -11    1    4    4    0    0  0.20916764838E+02  0.36864103082E+01  0.46477689247E+01  0.21741720919E+02  0.51100000000E-03 0.  1.
         12    1    4    4    0    0  0.24533875404E+01 -0.19538766047E+01  0.23833080423E+01  0.39391498365E+01  0.00000000000E+00 0. -1.
</event>
<event>
 8    1  0.2558382E-006  0.9118800E+02  0.7816164E-02  0.1184000E+00
        -11   -1    0    0    0    0  0.00000000000E+00  0.00000000000E+00  0.45593999997E+02  0.45594000000E+02  0.51100000000E-03 0. -1.
         11   -1    0    0    0    0 -0.00000000000E+00 -0.00000000000E+00 -0.45593999997E+02  0.45594000000E+02  0.51100000000E-03 0.  1.
         23    2    1    2    0    0  0.88817841970E-15  0.00000000000E+00 -0.17763568394E-14  0.91188000000E+02  0.91188000000E+02 0.  0.
    9900012    2    3    3    0    0 -0.40819368347E+01 -0.34323723445E+02 -0.12688535179E+02  0.54367093922E+02  0.40000022213E+02 0.  0.
         12    1    3    3    0    0  0.40819368347E+01  0.34323723445E+02  0.12688535179E+02  0.36820906078E+02  0.00000000000E+00 0. -1.
         11    1    4    4    0    0 -0.99419349220E+01 -0.99214000517E+01  0.46932403413E+01  0.14808874169E+02  0.51100000000E-03 0. -1.
        -11    1    4    4    0    0 -0.22967997554E+01 -0.12076780056E+02  0.45523360054E+01  0.13109068197E+02  0.51100000000E-03 0.  1.
        -12    1    4    4    0    0  0.81567978427E+01 -0.12325543337E+02 -0.21934111526E+02  0.26449151556E+02  0.00000000000E+00 0.  1.
</event>
<event>
 8    1  0.2558382E-006  0.9118800E+02  0.7816164E-02  0.1184000E+00
        -11   -1    0    0    0    0  0.00000000000E+00  0.00000000000E+00  0.45593999997E+02  0.45594000000E+02  0.51100000000E-03 0. -1.
         11   -1    0    0    0    0 -0.00000000000E+00 -0.00000000000E+00 -0.45593999997E+02  0.45594000000E+02  0.51100000000E-03 0.  1.
         23    2    1    2    0    0  0.00000000000E+00 -0.17763568394E-14  0.35527136788E-14  0.91188000000E+02  0.91188000000E+02 0.  0.
    9900012    2    3    3    0    0  0.10752246575E+02  0.15044523693E+02 -0.31840720388E+02  0.54367082380E+02  0.39999995902E+02 0.  0.
         12    1    3    3    0    0 -0.10752246575E+02 -0.15044523693E+02  0.31840720388E+02  0.36820917620E+02  0.00000000000E+00 0. -1.
         11    1    4    4    0    0  0.12134341007E+02 -0.46378155467E+01  0.31793675797E+01  0.13373852967E+02  0.51100000000E-03 0. -1.
        -11    1    4    4    0    0 -0.28793553255E+01  0.27869990473E+01 -0.41414666439E+01  0.57627942010E+01  0.51100000000E-03 0.  1.
         12    1    4    4    0    0  0.14972608933E+01  0.16895340192E+02 -0.30878621324E+02  0.35230435212E+02  0.00000000000E+00 0. -1.
</event>
<event>
 8    1  0.2558382E-006  0.9118800E+02  0.7816164E-02  0.1184000E+00
        -11   -1    0    0    0    0  0.00000000000E+00  0.00000000000E+00  0.45593999997E+02  0.45594000000E+02  0.51100000000E-03 0.  1.
         11   -1    0    0    0    0 -0.00000000000E+00 -0.00000000000E+00 -0.45593999997E+02  0.45594000000E+02  0.51100000000E-03 0. -1.
         23    2    1    2    0    0 -0.35527136788E-14  0.17763568394E-14  0.00000000000E+00  0.91188000000E+02  0.91188000000E+02 0.  0.
    9900012    2    3    3    0    0  0.31214484849E+02  0.13912360376E+02 -0.13707139847E+02  0.54367034255E+02  0.39999886191E+02 0.  0.
        -12    1    3    3    0    0 -0.31214484849E+02 -0.13912360376E+02  0.13707139847E+02  0.36820965745E+02  0.00000000000E+00 0.  1.
         11    1    4    4    0    0 -0.17196853551E+01  0.65662475689E+00 -0.86718290380E+01  0.88650489517E+01  0.51100000000E-03 0. -1.
        -11    1    4    4    0    0 -0.66382130589E-01 -0.66707534027E+01 -0.61369804664E+00  0.66992524285E+01  0.51100000000E-03 0.  1.
         12    1    4    4    0    0  0.33000552334E+02  0.19926489022E+02 -0.44216127628E+01  0.38802732875E+02  0.00000000000E+00 0. -1.
</event>
<event>
 8    1  0.2558382E-006  0.9118800E+02  0.7816164E-02  0.1184000E+00
        -11   -1    0    0    0    0  0.00000000000E+00  0.00000000000E+00  0.45593999997E+02  0.45594000000E+02  0.51100000000E-03 0. -1.
         11   -1    0    0    0    0 -0.00000000000E+00 -0.00000000000E+00 -0.45593999997E+02  0.45594000000E+02  0.51100000000E-03 0.  1.
         23    2    1    2    0    0  0.00000000000E+00  0.55511151231E-15  0.10658141036E-13  0.91188000000E+02  0.91188000000E+02 0.  0.
    9900012    2    3    3    0    0 -0.18295059695E+02 -0.10125944204E+00  0.31954022056E+02  0.54367095770E+02  0.40000026428E+02 0.  0.
        -12    1    3    3    0    0  0.18295059695E+02  0.10125944204E+00 -0.31954022056E+02  0.36820904230E+02  0.00000000000E+00 0.  1.
         11    1    4    4    0    0 -0.91641303635E+01 -0.11463950640E+02  0.12516879012E+02  0.19289264114E+02  0.51100000000E-03 0. -1.
        -11    1    4    4    0    0  0.13965527328E+01 -0.71189613505E+01  0.18706557721E+01  0.74919505821E+01  0.51100000000E-03 0.  1.
        -12    1    4    4    0    0 -0.10527482065E+02  0.18481652549E+02  0.17566487272E+02  0.27585881074E+02  0.00000000000E+00 0.  1.
</event>
<event>
 8    1  0.2558382E-006  0.9118800E+02  0.7816164E-02  0.1184000E+00
        -11   -1    0    0    0    0  0.00000000000E+00  0.00000000000E+00  0.45593999997E+02  0.45594000000E+02  0.51100000000E-03 0.  1.
         11   -1    0    0    0    0 -0.00000000000E+00 -0.00000000000E+00 -0.45593999997E+02  0.45594000000E+02  0.51100000000E-03 0. -1.
         23    2    1    2    0    0  0.88817841970E-15  0.00000000000E+00 -0.71054273576E-14  0.91188000000E+02  0.91188000000E+02 0.  0.
    9900012    2    3    3    0    0  0.65762169931E+01 -0.13107999447E+02  0.33774471138E+02  0.54367066007E+02  0.39999958576E+02 0.  0.
         12    1    3    3    0    0 -0.65762169931E+01  0.13107999447E+02 -0.33774471138E+02  0.36820933993E+02  0.00000000000E+00 0. -1.
         11    1    4    4    0    0  0.55170226091E+01  0.16998655243E+00  0.88500669911E+01  0.10430250232E+02  0.51100000000E-03 0. -1.
        -11    1    4    4    0    0 -0.48444148043E-01  0.72630044135E+01  0.21989128325E+02  0.23157619582E+02  0.51100000000E-03 0.  1.
        -12    1    4    4    0    0  0.11076385320E+01 -0.20540990413E+02  0.29352758223E+01  0.20779196193E+02  0.00000000000E+00 0.  1.
</event>
<event>
 8    1  0.2558382E-006  0.9118800E+02  0.7816164E-02  0.1184000E+00
        -11   -1    0    0    0    0  0.00000000000E+00  0.00000000000E+00  0.45593999997E+02  0.45594000000E+02  0.51100000000E-03 0. -1.
         11   -1    0    0    0    0 -0.00000000000E+00 -0.00000000000E+00 -0.45593999997E+02  0.45594000000E+02  0.51100000000E-03 0.  1.
         23    2    1    2    0    0  0.00000000000E+00  0.00000000000E+00  0.00000000000E+00  0.91188000000E+02  0.91188000000E+02 0.  0.
    9900012    2    3    3    0    0 -0.10723334663E+02  0.40390901209E+01  0.34992470683E+02  0.54367120600E+02  0.40000083032E+02 0.  0.
        -12    1    3    3    0    0  0.10723334663E+02 -0.40390901209E+01 -0.34992470683E+02  0.36820879400E+02  0.00000000000E+00 0.  1.
         11    1    4    4    0    0  0.37172174269E+01  0.66122969413E+01  0.30120761656E+02  0.31061237246E+02  0.51100000000E-03 0. -1.
        -11    1    4    4    0    0  0.35786876280E+01 -0.29848028214E+01  0.19280057960E+01  0.50431398585E+01  0.51100000000E-03 0.  1.
         12    1    4    4    0    0 -0.18019239718E+02  0.41159600100E+00  0.29437032308E+01  0.18262743496E+02  0.00000000000E+00 0. -1.
</event>
<event>
 8    1  0.2558382E-006  0.9118800E+02  0.7816164E-02  0.1184000E+00
        -11   -1    0    0    0    0  0.00000000000E+00  0.00000000000E+00  0.45593999997E+02  0.45594000000E+02  0.51100000000E-03 0. -1.
         11   -1    0    0    0    0 -0.00000000000E+00 -0.00000000000E+00 -0.45593999997E+02  0.45594000000E+02  0.51100000000E-03 0.  1.
         23    2    1    2    0    0  0.00000000000E+00 -0.16653345369E-15  0.00000000000E+00  0.91188000000E+02  0.91188000000E+02 0.  0.
    9900012    2    3    3    0    0  0.78451658634E+01  0.27360442045E+00  0.35974405615E+02  0.54367090911E+02  0.40000015350E+02 0.  0.
        -12    1    3    3    0    0 -0.78451658634E+01 -0.27360442045E+00 -0.35974405615E+02  0.36820909089E+02  0.00000000000E+00 0.  1.
         11    1    4    4    0    0 -0.59845399956E+01 -0.47946432884E+01  0.22088254386E+02  0.23381494933E+02  0.51100000000E-03 0. -1.
        -11    1    4    4    0    0  0.11046387708E+01  0.11598225440E+02  0.11709459110E+02  0.16518186737E+02  0.51100000000E-03 0.  1.
        -12    1    4    4    0    0  0.12725067088E+02 -0.65299777315E+01  0.21766921194E+01  0.14467409241E+02  0.00000000000E+00 0.  1.
</event>
<event>
 8    1  0.2558382E-006  0.9118800E+02  0.7816164E-02  0.1184000E+00
        -11   -1    0    0    0    0  0.00000000000E+00  0.00000000000E+00  0.45593999997E+02  0.45594000000E+02  0.51100000000E-03 0. -1.
         11   -1    0    0    0    0 -0.00000000000E+00 -0.00000000000E+00 -0.45593999997E+02  0.45594000000E+02  0.51100000000E-03 0.  1.
         23    2    1    2    0    0 -0.17763568394E-14 -0.71054273576E-14  0.00000000000E+00  0.91188000000E+02  0.91188000000E+02 0.  0.
    9900012    2    3    3    0    0  0.15128467545E+02  0.31525741388E+02 -0.11534011811E+02  0.54367131885E+02  0.40000108757E+02 0.  0.
         12    1    3    3    0    0 -0.15128467545E+02 -0.31525741388E+02  0.11534011811E+02  0.36820868115E+02  0.00000000000E+00 0. -1.
         11    1    4    4    0    0  0.13576836113E+02  0.68434904523E+01 -0.39189527116E+01  0.15701020064E+02  0.51100000000E-03 0. -1.
        -11    1    4    4    0    0  0.14246620977E+02  0.19600878416E+02 -0.51109820146E+01  0.24764546864E+02  0.51100000000E-03 0.  1.
        -12    1    4    4    0    0 -0.12694989545E+02  0.50813725190E+01 -0.25040770851E+01  0.13901564958E+02  0.00000000000E+00 0.  1.
</event>
<event>
 8    1  0.2558382E-006  0.9118800E+02  0.7816164E-02  0.1184000E+00
        -11   -1    0    0    0    0  0.00000000000E+00  0.00000000000E+00  0.45593999997E+02  0.45594000000E+02  0.51100000000E-03 0.  1.
         11   -1    0    0    0    0 -0.00000000000E+00 -0.00000000000E+00 -0.45593999997E+02  0.45594000000E+02  0.51100000000E-03 0. -1.
         23    2    1    2    0    0  0.00000000000E+00  0.35527136788E-14 -0.71054273576E-14  0.91188000000E+02  0.91188000000E+02 0.  0.
    9900012    2    3    3    0    0  0.15731949873E+01 -0.14589631220E+02  0.33770511066E+02  0.54367086116E+02  0.40000004418E+02 0.  0.
         12    1    3    3    0    0 -0.15731949873E+01  0.14589631220E+02 -0.33770511066E+02  0.36820913884E+02  0.00000000000E+00 0. -1.
         11    1    4    4    0    0  0.36706412536E+01  0.74759498209E+01  0.20562101951E+00  0.83310091347E+01  0.51100000000E-03 0. -1.
        -11    1    4    4    0    0 -0.10671732782E+02 -0.48143845089E+01  0.87233112798E+01  0.14600011600E+02  0.51100000000E-03 0.  1.
        -12    1    4    4    0    0  0.85742865158E+01 -0.17251196532E+02  0.24841578767E+02  0.31436065381E+02  0.00000000000E+00 0.  1.
</event>
<event>
 8    1  0.2558382E-006  0.9118800E+02  0.7816164E-02  0.1184000E+00
        -11   -1    0    0    0    0  0.00000000000E+00  0.00000000000E+00  0.45593999997E+02  0.45594000000E+02  0.51100000000E-03 0.  1.
         11   -1    0    0    0    0 -0.00000000000E+00 -0.00000000000E+00 -0.45593999997E+02  0.45594000000E+02  0.51100000000E-03 0. -1.
         23    2    1    2    0    0  0.00000000000E+00  0.00000000000E+00  0.00000000000E+00  0.91188000000E+02  0.91188000000E+02 0.  0.
    9900012    2    3    3    0    0  0.32477397977E+02  0.16770797796E+02 -0.44429302539E+01  0.54367072970E+02  0.39999974450E+02 0.  0.
        -12    1    3    3    0    0 -0.32477397977E+02 -0.16770797796E+02  0.44429302539E+01  0.36820927030E+02  0.00000000000E+00 0.  1.
         11    1    4    4    0    0  0.38350651328E+01 -0.59687392435E+01 -0.42484464693E+01  0.82693935928E+01  0.51100000000E-03 0. -1.
        -11    1    4    4    0    0 -0.12202492863E+01 -0.49461062240E+01  0.15899638080E+01  0.53367555941E+01  0.51100000000E-03 0.  1.
         12    1    4    4    0    0  0.29862582131E+02  0.27685643264E+02 -0.17844475925E+01  0.40760923783E+02  0.00000000000E+00 0. -1.
</event>
<event>
 8    1  0.2558382E-006  0.9118800E+02  0.7816164E-02  0.1184000E+00
        -11   -1    0    0    0    0  0.00000000000E+00  0.00000000000E+00  0.45593999997E+02  0.45594000000E+02  0.51100000000E-03 0.  1.
         11   -1    0    0    0    0 -0.00000000000E+00 -0.00000000000E+00 -0.45593999997E+02  0.45594000000E+02  0.51100000000E-03 0. -1.
         23    2    1    2    0    0 -0.17763568394E-14  0.00000000000E+00  0.00000000000E+00  0.91188000000E+02  0.91188000000E+02 0.  0.
    9900012    2    3    3    0    0  0.15690760116E+02 -0.61915994773E+01 -0.32729873563E+02  0.54367075507E+02  0.39999980232E+02 0.  0.
        -12    1    3    3    0    0 -0.15690760116E+02  0.61915994773E+01  0.32729873563E+02  0.36820924493E+02  0.00000000000E+00 0.  1.
         11    1    4    4    0    0  0.12003810811E+02 -0.30206276522E+01 -0.38198620918E+02  0.40154082056E+02  0.51100000000E-03 0. -1.
        -11    1    4    4    0    0  0.68295371891E+01 -0.38817088755E+01  0.71115138163E+01  0.10596408402E+02  0.51100000000E-03 0.  1.
         12    1    4    4    0    0 -0.31425878846E+01  0.71073705034E+00 -0.16427664609E+01  0.36165850484E+01  0.00000000000E+00 0. -1.
</event>
<event>
 8    1  0.2558382E-006  0.9118800E+02  0.7816164E-02  0.1184000E+00
        -11   -1    0    0    0    0  0.00000000000E+00  0.00000000000E+00  0.45593999997E+02  0.45594000000E+02  0.51100000000E-03 0. -1.
         11   -1    0    0    0    0 -0.00000000000E+00 -0.00000000000E+00 -0.45593999997E+02  0.45594000000E+02  0.51100000000E-03 0.  1.
         23    2    1    2    0    0 -0.35527136788E-14 -0.35527136788E-14 -0.35527136788E-14  0.91188000000E+02  0.91188000000E+02 0.  0.
    9900012    2    3    3    0    0  0.17943500528E+02  0.26531670523E+02  0.18162624937E+02  0.54367086153E+02  0.40000004502E+02 0.  0.
        -12    1    3    3    0    0 -0.17943500528E+02 -0.26531670523E+02 -0.18162624937E+02  0.36820913847E+02  0.00000000000E+00 0.  1.
         11    1    4    4    0    0 -0.30857879858E+01  0.39281047566E+01  0.88171839991E+01  0.10133845687E+02  0.51100000000E-03 0. -1.
        -11    1    4    4    0    0 -0.50494343329E+00 -0.22571431336E+01  0.11058960309E+02  0.11298241738E+02  0.51100000000E-03 0.  1.
         12    1    4    4    0    0  0.21534231947E+02  0.24860708900E+02 -0.17135193708E+01  0.32934998727E+02  0.00000000000E+00 0. -1.
</event>
<event>
 8    1  0.2558382E-006  0.9118800E+02  0.7816164E-02  0.1184000E+00
        -11   -1    0    0    0    0  0.00000000000E+00  0.00000000000E+00  0.45593999997E+02  0.45594000000E+02  0.51100000000E-03 0. -1.
         11   -1    0    0    0    0 -0.00000000000E+00 -0.00000000000E+00 -0.45593999997E+02  0.45594000000E+02  0.51100000000E-03 0.  1.
         23    2    1    2    0    0  0.44408920985E-15  0.00000000000E+00  0.00000000000E+00  0.91188000000E+02  0.91188000000E+02 0.  0.
    9900012    2    3    3    0    0 -0.21245933110E+01 -0.14688671288E+02  0.33697315312E+02  0.54367081758E+02  0.39999994485E+02 0.  0.
        -12    1    3    3    0    0  0.21245933110E+01  0.14688671288E+02 -0.33697315312E+02  0.36820918242E+02  0.00000000000E+00 0.  1.
         11    1    4    4    0    0 -0.43312169481E+01 -0.80232986591E+01  0.23678249161E+02  0.25373061408E+02  0.51100000000E-03 0. -1.
        -11    1    4    4    0    0  0.79989555850E+00 -0.12939480136E+02  0.15737133798E+02  0.20389393309E+02  0.51100000000E-03 0.  1.
        -12    1    4    4    0    0  0.14067280787E+01  0.62741075067E+01 -0.57180676475E+01  0.86046270410E+01  0.00000000000E+00 0.  1.
</event>
<event>
 8    1  0.2558382E-006  0.9118800E+02  0.7816164E-02  0.1184000E+00
        -11   -1    0    0    0    0  0.00000000000E+00  0.00000000000E+00  0.45593999997E+02  0.45594000000E+02  0.51100000000E-03 0.  1.
         11   -1    0    0    0    0 -0.00000000000E+00 -0.00000000000E+00 -0.45593999997E+02  0.45594000000E+02  0.51100000000E-03 0. -1.
         23    2    1    2    0    0  0.00000000000E+00  0.00000000000E+00 -0.17763568394E-14  0.91188000000E+02  0.91188000000E+02 0.  0.
    9900012    2    3    3    0    0 -0.35773272239E+02  0.73538611205E+01 -0.46877161869E+01  0.54367068954E+02  0.39999965295E+02 0.  0.
         12    1    3    3    0    0  0.35773272239E+02 -0.73538611205E+01  0.46877161869E+01  0.36820931046E+02  0.00000000000E+00 0. -1.
         11    1    4    4    0    0 -0.12399839832E+02  0.12922765625E+02  0.94679688985E+01  0.20258241153E+02  0.51100000000E-03 0. -1.
        -11    1    4    4    0    0  0.19634268304E+01 -0.46976416559E+01 -0.50504808631E+01  0.71714879387E+01  0.51100000000E-03 0.  1.
        -12    1    4    4    0    0 -0.25336859237E+02 -0.87126284904E+00 -0.91052042223E+01  0.26937339863E+02  0.00000000000E+00 0.  1.
</event>
<event>
 8    1  0.2558382E-006  0.9118800E+02  0.7816164E-02  0.1184000E+00
        -11   -1    0    0    0    0  0.00000000000E+00  0.00000000000E+00  0.45593999997E+02  0.45594000000E+02  0.51100000000E-03 0. -1.
         11   -1    0    0    0    0 -0.00000000000E+00 -0.00000000000E+00 -0.45593999997E+02  0.45594000000E+02  0.51100000000E-03 0.  1.
         23    2    1    2    0    0  0.00000000000E+00  0.00000000000E+00 -0.17763568394E-14  0.91188000000E+02  0.91188000000E+02 0.  0.
    9900012    2    3    3    0    0 -0.34809051547E+02  0.86757228459E+01  0.82968463390E+01  0.54367137766E+02  0.40000122165E+02 0.  0.
         12    1    3    3    0    0  0.34809051547E+02 -0.86757228459E+01 -0.82968463390E+01  0.36820862234E+02  0.00000000000E+00 0. -1.
         11    1    4    4    0    0 -0.21234785073E+02  0.94045318305E+01  0.22663747012E+02  0.32450065407E+02  0.51100000000E-03 0. -1.
        -11    1    4    4    0    0  0.96240423869E+00 -0.90035412662E+00  0.20468177380E+00  0.13336995020E+01  0.51100000000E-03 0.  1.
        -12    1    4    4    0    0 -0.14536670713E+02  0.17154514196E+00 -0.14571582447E+02  0.20583372857E+02  0.00000000000E+00 0.  1.
</event>
<event>
 8    1  0.2558382E-006  0.9118800E+02  0.7816164E-02  0.1184000E+00
        -11   -1    0    0    0    0  0.00000000000E+00  0.00000000000E+00  0.45593999997E+02  0.45594000000E+02  0.51100000000E-03 0. -1.
         11   -1    0    0    0    0 -0.00000000000E+00 -0.00000000000E+00 -0.45593999997E+02  0.45594000000E+02  0.51100000000E-03 0.  1.
         23    2    1    2    0    0  0.00000000000E+00  0.00000000000E+00 -0.35527136788E-14  0.91188000000E+02  0.91188000000E+02 0.  0.
    9900012    2    3    3    0    0  0.10193054025E+02 -0.21659279085E+02 -0.27977838936E+02  0.54367052261E+02  0.39999927239E+02 0.  0.
         12    1    3    3    0    0 -0.10193054025E+02  0.21659279085E+02  0.27977838936E+02  0.36820947739E+02  0.00000000000E+00 0. -1.
         11    1    4    4    0    0  0.12687594829E+02 -0.14631966911E+02 -0.12554951974E+02  0.23080215284E+02  0.51100000000E-03 0. -1.
        -11    1    4    4    0    0  0.56055840426E+00 -0.16599772393E+02 -0.12605907873E+02  0.20851272929E+02  0.51100000000E-03 0.  1.
         12    1    4    4    0    0 -0.30550992085E+01  0.95724602180E+01 -0.28169790890E+01  0.10435564047E+02  0.00000000000E+00 0. -1.
</event>
<event>
 8    1  0.2558382E-006  0.9118800E+02  0.7816164E-02  0.1184000E+00
        -11   -1    0    0    0    0  0.00000000000E+00  0.00000000000E+00  0.45593999997E+02  0.45594000000E+02  0.51100000000E-03 0. -1.
         11   -1    0    0    0    0 -0.00000000000E+00 -0.00000000000E+00 -0.45593999997E+02  0.45594000000E+02  0.51100000000E-03 0.  1.
         23    2    1    2    0    0  0.00000000000E+00  0.00000000000E+00  0.00000000000E+00  0.91188000000E+02  0.91188000000E+02 0.  0.
    9900012    2    3    3    0    0 -0.54353582079E+01  0.30143438540E+02 -0.20435509668E+02  0.54367081200E+02  0.39999993212E+02 0.  0.
         12    1    3    3    0    0  0.54353582079E+01 -0.30143438540E+02  0.20435509668E+02  0.36820918800E+02  0.00000000000E+00 0. -1.
         11    1    4    4    0    0 -0.20577992777E+02  0.18481144941E+02 -0.75776585424E+01  0.28677995297E+02  0.51100000000E-03 0.  1.
        -11    1    4    4    0    0  0.99113622230E+00  0.66862039850E+01 -0.16337403237E+01  0.69539041154E+01  0.51100000000E-03 0. -1.
         12    1    4    4    0    0  0.14151498346E+02  0.49760896148E+01 -0.11224110802E+02  0.18735181787E+02  0.00000000000E+00 0. -1.
</event>
<event>
 8    1  0.2558382E-006  0.9118800E+02  0.7816164E-02  0.1184000E+00
        -11   -1    0    0    0    0  0.00000000000E+00  0.00000000000E+00  0.45593999997E+02  0.45594000000E+02  0.51100000000E-03 0. -1.
         11   -1    0    0    0    0 -0.00000000000E+00 -0.00000000000E+00 -0.45593999997E+02  0.45594000000E+02  0.51100000000E-03 0.  1.
         23    2    1    2    0    0 -0.44408920985E-15 -0.17763568394E-14  0.00000000000E+00  0.91188000000E+02  0.91188000000E+02 0.  0.
    9900012    2    3    3    0    0 -0.21405389705E+01  0.15677652435E+02 -0.33247662364E+02  0.54367112645E+02  0.40000064896E+02 0.  0.
         12    1    3    3    0    0  0.21405389705E+01 -0.15677652435E+02  0.33247662364E+02  0.36820887355E+02  0.00000000000E+00 0. -1.
         11    1    4    4    0    0 -0.21222060284E+01 -0.91146226406E+01 -0.15140024132E+00  0.93596488504E+01  0.51100000000E-03 0. -1.
        -11    1    4    4    0    0  0.63229242434E+01  0.70477049185E+01 -0.19792901513E+02  0.21941022450E+02  0.51100000000E-03 0.  1.
         12    1    4    4    0    0 -0.63412571855E+01  0.17744570157E+02 -0.13303360610E+02  0.23066441344E+02  0.00000000000E+00 0. -1.
</event>
<event>
 8    1  0.2558382E-006  0.9118800E+02  0.7816164E-02  0.1184000E+00
        -11   -1    0    0    0    0  0.00000000000E+00  0.00000000000E+00  0.45593999997E+02  0.45594000000E+02  0.51100000000E-03 0.  1.
         11   -1    0    0    0    0 -0.00000000000E+00 -0.00000000000E+00 -0.45593999997E+02  0.45594000000E+02  0.51100000000E-03 0. -1.
         23    2    1    2    0    0 -0.71054273576E-14  0.88817841970E-15  0.17763568394E-14  0.91188000000E+02  0.91188000000E+02 0.  0.
    9900012    2    3    3    0    0 -0.32840971589E+02  0.77479055729E+01 -0.14738212937E+02  0.54367158398E+02  0.40000169201E+02 0.  0.
        -12    1    3    3    0    0  0.32840971589E+02 -0.77479055729E+01  0.14738212937E+02  0.36820841602E+02  0.00000000000E+00 0.  1.
         11    1    4    4    0    0 -0.44663496541E+01  0.37281999364E+01 -0.89579990631E+01  0.10681455962E+02  0.51100000000E-03 0. -1.
        -11    1    4    4    0    0 -0.18134048327E+01 -0.10377531134E+02 -0.82384708368E+01  0.13373630454E+02  0.51100000000E-03 0.  1.
        -12    1    4    4    0    0 -0.26561217102E+02  0.14397236770E+02  0.24582569632E+01  0.30312071983E+02  0.00000000000E+00 0.  1.
</event>
<event>
 8    1  0.2558382E-006  0.9118800E+02  0.7816164E-02  0.1184000E+00
        -11   -1    0    0    0    0  0.00000000000E+00  0.00000000000E+00  0.45593999997E+02  0.45594000000E+02  0.51100000000E-03 0.  1.
         11   -1    0    0    0    0 -0.00000000000E+00 -0.00000000000E+00 -0.45593999997E+02  0.45594000000E+02  0.51100000000E-03 0. -1.
         23    2    1    2    0    0  0.00000000000E+00  0.00000000000E+00  0.35527136788E-14  0.91188000000E+02  0.91188000000E+02 0.  0.
    9900012    2    3    3    0    0  0.22028006653E+02 -0.22953159167E+02  0.18539169292E+02  0.54367063145E+02  0.39999952051E+02 0.  0.
         12    1    3    3    0    0 -0.22028006653E+02  0.22953159167E+02 -0.18539169292E+02  0.36820936855E+02  0.00000000000E+00 0. -1.
         11    1    4    4    0    0  0.11909611884E+02 -0.37648994825E+01 -0.91645414533E+01  0.15492002571E+02  0.51100000000E-03 0. -1.
        -11    1    4    4    0    0  0.92299015937E+01 -0.21314488358E+02  0.19417458662E+02  0.30274348854E+02  0.51100000000E-03 0.  1.
         12    1    4    4    0    0  0.88849317539E+00  0.21262286737E+01  0.82862520837E+01  0.86007117200E+01  0.00000000000E+00 0. -1.
</event>
<event>
 8    1  0.2558382E-006  0.9118800E+02  0.7816164E-02  0.1184000E+00
        -11   -1    0    0    0    0  0.00000000000E+00  0.00000000000E+00  0.45593999997E+02  0.45594000000E+02  0.51100000000E-03 0.  1.
         11   -1    0    0    0    0 -0.00000000000E+00 -0.00000000000E+00 -0.45593999997E+02  0.45594000000E+02  0.51100000000E-03 0. -1.
         23    2    1    2    0    0 -0.17763568394E-14  0.00000000000E+00 -0.35527136788E-14  0.91188000000E+02  0.91188000000E+02 0.  0.
    9900012    2    3    3    0    0  0.13760212760E+02  0.15740257558E+02  0.30309736734E+02  0.54367091482E+02  0.40000016651E+02 0.  0.
         12    1    3    3    0    0 -0.13760212760E+02 -0.15740257558E+02 -0.30309736734E+02  0.36820908518E+02  0.00000000000E+00 0. -1.
         11    1    4    4    0    0 -0.23709874514E+01 -0.31579675362E+01  0.27944754148E+00  0.39588422100E+01  0.51100000000E-03 0. -1.
        -11    1    4    4    0    0 -0.23107593719E+01  0.72627992218E+01 -0.50216662170E+01  0.91271569104E+01  0.51100000000E-03 0.  1.
        -12    1    4    4    0    0  0.18441959583E+02  0.11635425872E+02  0.35051955410E+02  0.41281092361E+02  0.00000000000E+00 0.  1.
</event>
<event>
 8    1  0.2558382E-006  0.9118800E+02  0.7816164E-02  0.1184000E+00
        -11   -1    0    0    0    0  0.00000000000E+00  0.00000000000E+00  0.45593999997E+02  0.45594000000E+02  0.51100000000E-03 0.  1.
         11   -1    0    0    0    0 -0.00000000000E+00 -0.00000000000E+00 -0.45593999997E+02  0.45594000000E+02  0.51100000000E-03 0. -1.
         23    2    1    2    0    0  0.00000000000E+00  0.00000000000E+00  0.44408920985E-15  0.91188000000E+02  0.91188000000E+02 0.  0.
    9900012    2    3    3    0    0 -0.15419796894E+02  0.33370602705E+02 -0.21003803035E+01  0.54367097532E+02  0.40000030443E+02 0.  0.
        -12    1    3    3    0    0  0.15419796894E+02 -0.33370602705E+02  0.21003803035E+01  0.36820902468E+02  0.00000000000E+00 0.  1.
         11    1    4    4    0    0 -0.26308968167E+02  0.15115313819E+02 -0.32180262379E+01  0.30512132193E+02  0.51100000000E-03 0. -1.
        -11    1    4    4    0    0  0.10453705334E+01 -0.46377506978E+00  0.24083192889E+01  0.26660624385E+01  0.51100000000E-03 0.  1.
         12    1    4    4    0    0  0.98438007400E+01  0.18719063956E+02 -0.12906733545E+01  0.21188902900E+02  0.00000000000E+00 0. -1.
</event>
<event>
 8    1  0.2558382E-006  0.9118800E+02  0.7816164E-02  0.1184000E+00
        -11   -1    0    0    0    0  0.00000000000E+00  0.00000000000E+00  0.45593999997E+02  0.45594000000E+02  0.51100000000E-03 0. -1.
         11   -1    0    0    0    0 -0.00000000000E+00 -0.00000000000E+00 -0.45593999997E+02  0.45594000000E+02  0.51100000000E-03 0.  1.
         23    2    1    2    0    0  0.35527136788E-14  0.44408920985E-15 -0.35527136788E-14  0.91188000000E+02  0.91188000000E+02 0.  0.
    9900012    2    3    3    0    0 -0.22575294228E+02  0.32104244134E+00  0.29086731327E+02  0.54367015263E+02  0.39999842894E+02 0.  0.
        -12    1    3    3    0    0  0.22575294228E+02 -0.32104244134E+00 -0.29086731327E+02  0.36820984737E+02  0.00000000000E+00 0.  1.
         11    1    4    4    0    0 -0.21112903286E+02  0.46350674399E+01  0.24807429840E+02  0.32903603311E+02  0.51100000000E-03 0. -1.
        -11    1    4    4    0    0  0.54622036861E+01  0.51110047049E+01 -0.25704306739E+01  0.79098136711E+01  0.51100000000E-03 0.  1.
         12    1    4    4    0    0 -0.69245946285E+01 -0.94250297034E+01  0.68497321612E+01  0.13553598281E+02  0.00000000000E+00 0. -1.
</event>
<event>
 8    1  0.2558382E-006  0.9118800E+02  0.7816164E-02  0.1184000E+00
        -11   -1    0    0    0    0  0.00000000000E+00  0.00000000000E+00  0.45593999997E+02  0.45594000000E+02  0.51100000000E-03 0.  1.
         11   -1    0    0    0    0 -0.00000000000E+00 -0.00000000000E+00 -0.45593999997E+02  0.45594000000E+02  0.51100000000E-03 0. -1.
         23    2    1    2    0    0 -0.35527136788E-14  0.35527136788E-14  0.00000000000E+00  0.91188000000E+02  0.91188000000E+02 0.  0.
    9900012    2    3    3    0    0  0.24705080902E+02 -0.20402449213E+02 -0.18143253047E+02  0.54367101214E+02  0.40000038838E+02 0.  0.
        -12    1    3    3    0    0 -0.24705080902E+02  0.20402449213E+02  0.18143253047E+02  0.36820898786E+02  0.00000000000E+00 0.  1.
         11    1    4    4    0    0  0.30900667709E+02 -0.35632957596E+01 -0.14931713373E+02  0.34503686847E+02  0.51100000000E-03 0. -1.
        -11    1    4    4    0    0 -0.30543686859E+01 -0.16036558023E+02 -0.22331402095E+01  0.16476870964E+02  0.51100000000E-03 0.  1.
        -12    1    4    4    0    0 -0.31412181214E+01 -0.80259543077E+00 -0.97839946468E+00  0.33865434036E+01  0.00000000000E+00 0.  1.
</event>
<event>
 8    1  0.2558382E-006  0.9118800E+02  0.7816164E-02  0.1184000E+00
        -11   -1    0    0    0    0  0.00000000000E+00  0.00000000000E+00  0.45593999997E+02  0.45594000000E+02  0.51100000000E-03 0. -1.
         11   -1    0    0    0    0 -0.00000000000E+00 -0.00000000000E+00 -0.45593999997E+02  0.45594000000E+02  0.51100000000E-03 0.  1.
         23    2    1    2    0    0  0.00000000000E+00  0.00000000000E+00  0.00000000000E+00  0.91188000000E+02  0.91188000000E+02 0.  0.
    9900012    2    3    3    0    0  0.25929821080E+02 -0.15274030159E+02 -0.21216203459E+02  0.54367096864E+02  0.40000028921E+02 0.  0.
         12    1    3    3    0    0 -0.25929821080E+02  0.15274030159E+02  0.21216203459E+02  0.36820903136E+02  0.00000000000E+00 0. -1.
         11    1    4    4    0    0  0.71656596389E+01  0.10505889583E+02 -0.10136797977E+02  0.16262689429E+02  0.51100000000E-03 0. -1.
        -11    1    4    4    0    0  0.13297572579E+02 -0.21643390621E+02 -0.15677044317E+02  0.29850150968E+02  0.51100000000E-03 0.  1.
        -12    1    4    4    0    0  0.54665888623E+01 -0.41365291211E+01  0.45976388348E+01  0.82542564665E+01  0.00000000000E+00 0.  1.
</event>
<event>
 8    1  0.2558382E-006  0.9118800E+02  0.7816164E-02  0.1184000E+00
        -11   -1    0    0    0    0  0.00000000000E+00  0.00000000000E+00  0.45593999997E+02  0.45594000000E+02  0.51100000000E-03 0.  1.
         11   -1    0    0    0    0 -0.00000000000E+00 -0.00000000000E+00 -0.45593999997E+02  0.45594000000E+02  0.51100000000E-03 0. -1.
         23    2    1    2    0    0  0.00000000000E+00  0.35527136788E-14  0.00000000000E+00  0.91188000000E+02  0.91188000000E+02 0.  0.
    9900012    2    3    3    0    0  0.17936207506E+02  0.27798178101E+02 -0.16165873457E+02  0.54367058811E+02  0.39999942171E+02 0.  0.
         12    1    3    3    0    0 -0.17936207506E+02 -0.27798178101E+02  0.16165873457E+02  0.36820941189E+02  0.00000000000E+00 0. -1.
         11    1    4    4    0    0  0.14871720188E+02  0.24861730542E+02 -0.15981376032E+02  0.33085919770E+02  0.51100000000E-03 0. -1.
        -11    1    4    4    0    0  0.67058220887E+01  0.91544540558E+01 -0.52194587517E+01  0.12490589612E+02  0.51100000000E-03 0.  1.
         12    1    4    4    0    0 -0.36413347711E+01 -0.62180064965E+01  0.50349613264E+01  0.87905494290E+01  0.00000000000E+00 0. -1.
</event>
<event>
 8    1  0.2558382E-006  0.9118800E+02  0.7816164E-02  0.1184000E+00
        -11   -1    0    0    0    0  0.00000000000E+00  0.00000000000E+00  0.45593999997E+02  0.45594000000E+02  0.51100000000E-03 0. -1.
         11   -1    0    0    0    0 -0.00000000000E+00 -0.00000000000E+00 -0.45593999997E+02  0.45594000000E+02  0.51100000000E-03 0.  1.
         23    2    1    2    0    0 -0.88817841970E-15  0.35527136788E-14 -0.35527136788E-14  0.91188000000E+02  0.91188000000E+02 0.  0.
    9900012    2    3    3    0    0  0.69028454140E+01  0.28263331732E+02 -0.22568022424E+02  0.54367070740E+02  0.39999969367E+02 0.  0.
         12    1    3    3    0    0 -0.69028454140E+01 -0.28263331732E+02  0.22568022424E+02  0.36820929260E+02  0.00000000000E+00 0. -1.
         11    1    4    4    0    0 -0.84545283388E+00  0.60879123016E+01  0.81021934664E+01  0.10169710218E+02  0.51100000000E-03 0. -1.
        -11    1    4    4    0    0 -0.33075146197E+01 -0.26838347554E+01 -0.66895430384E+01  0.79304860051E+01  0.51100000000E-03 0.  1.
        -12    1    4    4    0    0  0.11055812868E+02  0.24859254186E+02 -0.23980672852E+02  0.36266874518E+02  0.00000000000E+00 0.  1.
</event>
<event>
 8    1  0.2558382E-006  0.9118800E+02  0.7816164E-02  0.1184000E+00
        -11   -1    0    0    0    0  0.00000000000E+00  0.00000000000E+00  0.45593999997E+02  0.45594000000E+02  0.51100000000E-03 0.  1.
         11   -1    0    0    0    0 -0.00000000000E+00 -0.00000000000E+00 -0.45593999997E+02  0.45594000000E+02  0.51100000000E-03 0. -1.
         23    2    1    2    0    0 -0.17763568394E-14  0.00000000000E+00  0.26645352591E-14  0.91188000000E+02  0.91188000000E+02 0.  0.
    9900012    2    3    3    0    0 -0.13988072747E+02 -0.33433523832E+02  0.65048927450E+01  0.54367077624E+02  0.39999985059E+02 0.  0.
         12    1    3    3    0    0  0.13988072747E+02  0.33433523832E+02 -0.65048927450E+01  0.36820922376E+02  0.00000000000E+00 0. -1.
         11    1    4    4    0    0 -0.22692488704E+02 -0.33433615645E+02 -0.17978086157E+01  0.40447346202E+02  0.51100000000E-03 0. -1.
        -11    1    4    4    0    0  0.50639460801E+01 -0.27763321808E+01  0.19628270331E+01  0.60995295313E+01  0.51100000000E-03 0.  1.
         12    1    4    4    0    0  0.36404698771E+01  0.27764239938E+01  0.63398743275E+01  0.78202018905E+01  0.00000000000E+00 0. -1.
</event>
<event>
 8    1  0.2558382E-006  0.9118800E+02  0.7816164E-02  0.1184000E+00
        -11   -1    0    0    0    0  0.00000000000E+00  0.00000000000E+00  0.45593999997E+02  0.45594000000E+02  0.51100000000E-03 0. -1.
         11   -1    0    0    0    0 -0.00000000000E+00 -0.00000000000E+00 -0.45593999997E+02  0.45594000000E+02  0.51100000000E-03 0.  1.
         23    2    1    2    0    0  0.17763568394E-14 -0.17763568394E-14  0.00000000000E+00  0.91188000000E+02  0.91188000000E+02 0.  0.
    9900012    2    3    3    0    0  0.14472576882E+02  0.11005472727E+02 -0.32018836541E+02  0.54367057522E+02  0.39999939233E+02 0.  0.
         12    1    3    3    0    0 -0.14472576882E+02 -0.11005472727E+02  0.32018836541E+02  0.36820942478E+02  0.00000000000E+00 0. -1.
         11    1    4    4    0    0  0.63693494736E+01 -0.62693037851E+01  0.26991290587E+01  0.93358492170E+01  0.51100000000E-03 0. -1.
        -11    1    4    4    0    0 -0.23199623070E+01 -0.38402142160E+01 -0.96278672720E+01  0.10621925381E+02  0.51100000000E-03 0.  1.
        -12    1    4    4    0    0  0.10423189715E+02  0.21114990728E+02 -0.25090098327E+02  0.34409282924E+02  0.00000000000E+00 0.  1.
</event>
<event>
 8    1  0.2558382E-006  0.9118800E+02  0.7816164E-02  0.1184000E+00
        -11   -1    0    0    0    0  0.00000000000E+00  0.00000000000E+00  0.45593999997E+02  0.45594000000E+02  0.51100000000E-03 0. -1.
         11   -1    0    0    0    0 -0.00000000000E+00 -0.00000000000E+00 -0.45593999997E+02  0.45594000000E+02  0.51100000000E-03 0.  1.
         23    2    1    2    0    0 -0.35527136788E-14  0.71054273576E-14  0.88817841970E-15  0.91188000000E+02  0.91188000000E+02 0.  0.
    9900012    2    3    3    0    0  0.25359223548E+02 -0.26340627483E+02 -0.43429263595E+01  0.54367083600E+02  0.39999998683E+02 0.  0.
         12    1    3    3    0    0 -0.25359223548E+02  0.26340627483E+02  0.43429263595E+01  0.36820916400E+02  0.00000000000E+00 0. -1.
         11    1    4    4    0    0 -0.56018829721E+01 -0.12154595361E+02  0.88624022640E+01  0.16051711914E+02  0.51100000000E-03 0. -1.
        -11    1    4    4    0    0  0.29991467402E+02 -0.12354828532E+02 -0.90553179494E+01  0.33676827173E+02  0.51100000000E-03 0.  1.
         12    1    4    4    0    0  0.96963911834E+00 -0.18312035899E+01 -0.41500106742E+01  0.46385445135E+01  0.00000000000E+00 0. -1.
</event>
<event>
 8    1  0.2558382E-006  0.9118800E+02  0.7816164E-02  0.1184000E+00
        -11   -1    0    0    0    0  0.00000000000E+00  0.00000000000E+00  0.45593999997E+02  0.45594000000E+02  0.51100000000E-03 0. -1.
         11   -1    0    0    0    0 -0.00000000000E+00 -0.00000000000E+00 -0.45593999997E+02  0.45594000000E+02  0.51100000000E-03 0.  1.
         23    2    1    2    0    0  0.00000000000E+00 -0.35527136788E-14  0.00000000000E+00  0.91188000000E+02  0.91188000000E+02 0.  0.
    9900012    2    3    3    0    0 -0.16749958585E+02 -0.19755264610E+02  0.26171516123E+02  0.54367084089E+02  0.39999999797E+02 0.  0.
        -12    1    3    3    0    0  0.16749958585E+02  0.19755264610E+02 -0.26171516123E+02  0.36820915911E+02  0.00000000000E+00 0.  1.
         11    1    4    4    0    0 -0.99337352450E+00  0.16011867978E+01  0.37489199561E+01  0.41958302181E+01  0.51100000000E-03 0. -1.
        -11    1    4    4    0    0 -0.21173531592E+02 -0.28334591522E+02  0.14242179331E+02  0.38131446198E+02  0.51100000000E-03 0.  1.
        -12    1    4    4    0    0  0.54169465319E+01  0.69781401142E+01  0.81804168360E+01  0.12039807673E+02  0.00000000000E+00 0.  1.
</event>
<event>
 8    1  0.2558382E-006  0.9118800E+02  0.7816164E-02  0.1184000E+00
        -11   -1    0    0    0    0  0.00000000000E+00  0.00000000000E+00  0.45593999997E+02  0.45594000000E+02  0.51100000000E-03 0.  1.
         11   -1    0    0    0    0 -0.00000000000E+00 -0.00000000000E+00 -0.45593999997E+02  0.45594000000E+02  0.51100000000E-03 0. -1.
         23    2    1    2    0    0  0.35527136788E-14  0.00000000000E+00  0.35527136788E-14  0.91188000000E+02  0.91188000000E+02 0.  0.
    9900012    2    3    3    0    0 -0.22585566531E+02 -0.21415581957E+02 -0.19673458754E+02  0.54367082773E+02  0.39999996797E+02 0.  0.
        -12    1    3    3    0    0  0.22585566531E+02  0.21415581957E+02  0.19673458754E+02  0.36820917227E+02  0.00000000000E+00 0.  1.
         11    1    4    4    0    0 -0.24510067156E+02 -0.73925773286E+01  0.24516216815E+01  0.25717776744E+02  0.51100000000E-03 0. -1.
        -11    1    4    4    0    0  0.65176255937E+01 -0.94884254700E+01 -0.11892501430E+02  0.16551170708E+02  0.51100000000E-03 0.  1.
         12    1    4    4    0    0 -0.45931249694E+01 -0.45345791581E+01 -0.10232579006E+02  0.12098135321E+02  0.00000000000E+00 0. -1.
</event>
<event>
 8    1  0.2558382E-006  0.9118800E+02  0.7816164E-02  0.1184000E+00
        -11   -1    0    0    0    0  0.00000000000E+00  0.00000000000E+00  0.45593999997E+02  0.45594000000E+02  0.51100000000E-03 0.  1.
         11   -1    0    0    0    0 -0.00000000000E+00 -0.00000000000E+00 -0.45593999997E+02  0.45594000000E+02  0.51100000000E-03 0. -1.
         23    2    1    2    0    0  0.10658141036E-13  0.00000000000E+00  0.00000000000E+00  0.91188000000E+02  0.91188000000E+02 0.  0.
    9900012    2    3    3    0    0  0.30600020371E+02  0.57343819323E+01  0.19660475356E+02  0.54367100037E+02  0.40000036154E+02 0.  0.
         12    1    3    3    0    0 -0.30600020371E+02 -0.57343819323E+01 -0.19660475356E+02  0.36820899963E+02  0.00000000000E+00 0. -1.
         11    1    4    4    0    0  0.12242264052E+02  0.67395647146E+01  0.17233268340E+02  0.22187390554E+02  0.51100000000E-03 0. -1.
        -11    1    4    4    0    0  0.30175944132E+01  0.68624459032E+01  0.10694157937E+02  0.13060017384E+02  0.51100000000E-03 0.  1.
         12    1    4    4    0    0  0.15340161906E+02 -0.78676286855E+01 -0.82669509205E+01  0.19119692099E+02  0.00000000000E+00 0. -1.
</event>
<event>
 8    1  0.2558382E-006  0.9118800E+02  0.7816164E-02  0.1184000E+00
        -11   -1    0    0    0    0  0.00000000000E+00  0.00000000000E+00  0.45593999997E+02  0.45594000000E+02  0.51100000000E-03 0.  1.
         11   -1    0    0    0    0 -0.00000000000E+00 -0.00000000000E+00 -0.45593999997E+02  0.45594000000E+02  0.51100000000E-03 0. -1.
         23    2    1    2    0    0  0.17763568394E-14  0.00000000000E+00  0.00000000000E+00  0.91188000000E+02  0.91188000000E+02 0.  0.
    9900012    2    3    3    0    0 -0.96262100949E+01 -0.11624117584E+02  0.33585650690E+02  0.54367082539E+02  0.39999996263E+02 0.  0.
         12    1    3    3    0    0  0.96262100949E+01  0.11624117584E+02 -0.33585650690E+02  0.36820917461E+02  0.00000000000E+00 0. -1.
         11    1    4    4    0    0 -0.94406620667E+01  0.85392119656E+01  0.27011816427E+02  0.29861052697E+02  0.51100000000E-03 0. -1.
        -11    1    4    4    0    0  0.56262433758E+01 -0.11599236208E+02  0.57726170398E+01  0.14125154969E+02  0.51100000000E-03 0.  1.
         12    1    4    4    0    0 -0.58117914040E+01 -0.85640933414E+01  0.80121722408E+00  0.10380874873E+02  0.00000000000E+00 0. -1.
</event>
<event>
 8    1  0.2558382E-006  0.9118800E+02  0.7816164E-02  0.1184000E+00
        -11   -1    0    0    0    0  0.00000000000E+00  0.00000000000E+00  0.45593999997E+02  0.45594000000E+02  0.51100000000E-03 0. -1.
         11   -1    0    0    0    0 -0.00000000000E+00 -0.00000000000E+00 -0.45593999997E+02  0.45594000000E+02  0.51100000000E-03 0.  1.
         23    2    1    2    0    0  0.00000000000E+00 -0.17763568394E-14  0.00000000000E+00  0.91188000000E+02  0.91188000000E+02 0.  0.
    9900012    2    3    3    0    0  0.12345199650E+02  0.14243556248E+02 -0.31630694499E+02  0.54367032013E+02  0.39999881080E+02 0.  0.
         12    1    3    3    0    0 -0.12345199650E+02 -0.14243556248E+02  0.31630694499E+02  0.36820967987E+02  0.00000000000E+00 0. -1.
         11    1    4    4    0    0 -0.30338460432E-01  0.38431293601E+01 -0.23089587130E+01  0.44835091503E+01  0.51100000000E-03 0. -1.
        -11    1    4    4    0    0  0.11729103986E+02  0.19282016868E+02 -0.38438087212E+01  0.22894167828E+02  0.51100000000E-03 0.  1.
         12    1    4    4    0    0  0.64643412452E+00 -0.88815899801E+01 -0.25477927065E+02  0.26989355035E+02  0.00000000000E+00 0. -1.
</event>
<event>
 8    1  0.2558382E-006  0.9118800E+02  0.7816164E-02  0.1184000E+00
        -11   -1    0    0    0    0  0.00000000000E+00  0.00000000000E+00  0.45593999997E+02  0.45594000000E+02  0.51100000000E-03 0. -1.
         11   -1    0    0    0    0 -0.00000000000E+00 -0.00000000000E+00 -0.45593999997E+02  0.45594000000E+02  0.51100000000E-03 0.  1.
         23    2    1    2    0    0  0.00000000000E+00  0.00000000000E+00  0.00000000000E+00  0.91188000000E+02  0.91188000000E+02 0.  0.
    9900012    2    3    3    0    0  0.19295171425E+02  0.31216888224E+02 -0.29971448243E+01  0.54367073507E+02  0.39999975673E+02 0.  0.
         12    1    3    3    0    0 -0.19295171425E+02 -0.31216888224E+02  0.29971448243E+01  0.36820926493E+02  0.00000000000E+00 0. -1.
         11    1    4    4    0    0 -0.41599452644E+01 -0.44151459208E+01 -0.10853714876E+00  0.60671606769E+01  0.51100000000E-03 0. -1.
        -11    1    4    4    0    0  0.10631932491E+01  0.10415514644E+02  0.76516118321E+01  0.12967670920E+02  0.51100000000E-03 0.  1.
        -12    1    4    4    0    0  0.22391923441E+02  0.25216519501E+02 -0.10540219508E+02  0.35332241910E+02  0.00000000000E+00 0.  1.
</event>
<event>
 8    1  0.2558382E-006  0.9118800E+02  0.7816164E-02  0.1184000E+00
        -11   -1    0    0    0    0  0.00000000000E+00  0.00000000000E+00  0.45593999997E+02  0.45594000000E+02  0.51100000000E-03 0.  1.
         11   -1    0    0    0    0 -0.00000000000E+00 -0.00000000000E+00 -0.45593999997E+02  0.45594000000E+02  0.51100000000E-03 0. -1.
         23    2    1    2    0    0  0.00000000000E+00  0.35527136788E-14  0.17763568394E-14  0.91188000000E+02  0.91188000000E+02 0.  0.
    9900012    2    3    3    0    0 -0.21690454650E+02 -0.28153324574E+02 -0.96278045927E+01  0.54367080283E+02  0.39999991122E+02 0.  0.
        -12    1    3    3    0    0  0.21690454650E+02  0.28153324574E+02  0.96278045927E+01  0.36820919717E+02  0.00000000000E+00 0.  1.
         11    1    4    4    0    0 -0.16750127554E+02 -0.29868530682E+02 -0.89714239172E+01  0.35400315613E+02  0.51100000000E-03 0. -1.
        -11    1    4    4    0    0 -0.38340921215E+01 -0.43974949779E+00 -0.92582187627E+01  0.10030366740E+02  0.51100000000E-03 0.  1.
         12    1    4    4    0    0 -0.11062349751E+01  0.21549556059E+01  0.86018380872E+01  0.89363979300E+01  0.00000000000E+00 0. -1.
</event>
<event>
 8    1  0.2558382E-006  0.9118800E+02  0.7816164E-02  0.1184000E+00
        -11   -1    0    0    0    0  0.00000000000E+00  0.00000000000E+00  0.45593999997E+02  0.45594000000E+02  0.51100000000E-03 0.  1.
         11   -1    0    0    0    0 -0.00000000000E+00 -0.00000000000E+00 -0.45593999997E+02  0.45594000000E+02  0.51100000000E-03 0. -1.
         23    2    1    2    0    0  0.00000000000E+00 -0.19428902931E-14  0.35527136788E-14  0.91188000000E+02  0.91188000000E+02 0.  0.
    9900012    2    3    3    0    0  0.24551716141E+02 -0.36565071448E+00  0.27438272454E+02  0.54367092065E+02  0.40000017981E+02 0.  0.
         12    1    3    3    0    0 -0.24551716141E+02  0.36565071448E+00 -0.27438272454E+02  0.36820907935E+02  0.00000000000E+00 0. -1.
         11    1    4    4    0    0  0.29072991305E+01 -0.12497764626E+02  0.71488287411E+01  0.14688507804E+02  0.51100000000E-03 0. -1.
        -11    1    4    4    0    0  0.10406560988E+02 -0.48000347235E+01  0.74673231303E+00  0.11484531090E+02  0.51100000000E-03 0.  1.
        -12    1    4    4    0    0  0.11237856023E+02  0.16932148635E+02  0.19542711400E+02  0.28194053171E+02  0.00000000000E+00 0.  1.
</event>
<event>
 8    1  0.2558382E-006  0.9118800E+02  0.7816164E-02  0.1184000E+00
        -11   -1    0    0    0    0  0.00000000000E+00  0.00000000000E+00  0.45593999997E+02  0.45594000000E+02  0.51100000000E-03 0.  1.
         11   -1    0    0    0    0 -0.00000000000E+00 -0.00000000000E+00 -0.45593999997E+02  0.45594000000E+02  0.51100000000E-03 0. -1.
         23    2    1    2    0    0  0.00000000000E+00  0.00000000000E+00 -0.17763568394E-14  0.91188000000E+02  0.91188000000E+02 0.  0.
    9900012    2    3    3    0    0  0.20582872399E+02 -0.27464431551E+02 -0.13335307453E+02  0.54367081197E+02  0.39999993204E+02 0.  0.
        -12    1    3    3    0    0 -0.20582872399E+02  0.27464431551E+02  0.13335307453E+02  0.36820918803E+02  0.00000000000E+00 0.  1.
         11    1    4    4    0    0  0.46830746631E+01 -0.17944455526E+02 -0.19850154358E+02  0.27165479946E+02  0.51100000000E-03 0. -1.
        -11    1    4    4    0    0  0.13959556462E+02 -0.15031078454E+02  0.57846040079E+01  0.21313474140E+02  0.51100000000E-03 0.  1.
        -12    1    4    4    0    0  0.19402412741E+01  0.55111024290E+01  0.73024289637E+00  0.58881271107E+01  0.00000000000E+00 0.  1.
</event>
<event>
 8    1  0.2558382E-006  0.9118800E+02  0.7816164E-02  0.1184000E+00
        -11   -1    0    0    0    0  0.00000000000E+00  0.00000000000E+00  0.45593999997E+02  0.45594000000E+02  0.51100000000E-03 0.  1.
         11   -1    0    0    0    0 -0.00000000000E+00 -0.00000000000E+00 -0.45593999997E+02  0.45594000000E+02  0.51100000000E-03 0. -1.
         23    2    1    2    0    0  0.00000000000E+00  0.22204460493E-15  0.17763568394E-14  0.91188000000E+02  0.91188000000E+02 0.  0.
    9900012    2    3    3    0    0 -0.34501170235E+02  0.15054408773E+01  0.12774326697E+02  0.54367074939E+02  0.39999978938E+02 0.  0.
         12    1    3    3    0    0  0.34501170235E+02 -0.15054408773E+01 -0.12774326697E+02  0.36820925061E+02  0.00000000000E+00 0. -1.
         11    1    4    4    0    0 -0.85636435531E+01  0.16216538046E+02  0.14436868174E+02  0.23339564264E+02  0.51100000000E-03 0. -1.
        -11    1    4    4    0    0 -0.72631292971E+01 -0.38265337218E+00  0.99102158841E+00  0.73404083565E+01  0.51100000000E-03 0.  1.
         12    1    4    4    0    0 -0.18674397385E+02 -0.14328443796E+02 -0.26535630652E+01  0.23687102318E+02  0.00000000000E+00 0. -1.
</event>
<event>
 8    1  0.2558382E-006  0.9118800E+02  0.7816164E-02  0.1184000E+00
        -11   -1    0    0    0    0  0.00000000000E+00  0.00000000000E+00  0.45593999997E+02  0.45594000000E+02  0.51100000000E-03 0.  1.
         11   -1    0    0    0    0 -0.00000000000E+00 -0.00000000000E+00 -0.45593999997E+02  0.45594000000E+02  0.51100000000E-03 0. -1.
         23    2    1    2    0    0  0.00000000000E+00  0.00000000000E+00 -0.38857805862E-15  0.91188000000E+02  0.91188000000E+02 0.  0.
    9900012    2    3    3    0    0 -0.70262025299E+01  0.36143365052E+02  0.26783226368E+00  0.54367053605E+02  0.39999930303E+02 0.  0.
         12    1    3    3    0    0  0.70262025299E+01 -0.36143365052E+02 -0.26783226368E+00  0.36820946395E+02  0.00000000000E+00 0. -1.
         11    1    4    4    0    0 -0.69819811689E+01  0.22551025660E+01 -0.34739543446E+01  0.81179989945E+01  0.51100000000E-03 0. -1.
        -11    1    4    4    0    0 -0.13032924722E+02  0.24307465402E+02 -0.47884566421E+01  0.27993558515E+02  0.51100000000E-03 0.  1.
        -12    1    4    4    0    0  0.12988703361E+02  0.95807970846E+01  0.85302432504E+01  0.18255496095E+02  0.00000000000E+00 0.  1.
</event>
<event>
 8    1  0.2558382E-006  0.9118800E+02  0.7816164E-02  0.1184000E+00
        -11   -1    0    0    0    0  0.00000000000E+00  0.00000000000E+00  0.45593999997E+02  0.45594000000E+02  0.51100000000E-03 0.  1.
         11   -1    0    0    0    0 -0.00000000000E+00 -0.00000000000E+00 -0.45593999997E+02  0.45594000000E+02  0.51100000000E-03 0. -1.
         23    2    1    2    0    0  0.00000000000E+00  0.00000000000E+00  0.00000000000E+00  0.91188000000E+02  0.91188000000E+02 0.  0.
    9900012    2    3    3    0    0 -0.11572555275E+02 -0.23077674137E+02 -0.26254065250E+02  0.54367095322E+02  0.40000025406E+02 0.  0.
        -12    1    3    3    0    0  0.11572555275E+02  0.23077674137E+02  0.26254065250E+02  0.36820904678E+02  0.00000000000E+00 0.  1.
         11    1    4    4    0    0 -0.52873414614E+01 -0.13869313777E+02 -0.29370334101E+02  0.32907907406E+02  0.51100000000E-03 0. -1.
        -11    1    4    4    0    0 -0.75251100818E+01  0.60877715600E+00  0.74952214569E+01  0.10638432042E+02  0.51100000000E-03 0.  1.
        -12    1    4    4    0    0  0.12398962682E+01 -0.98171375157E+01 -0.43789526060E+01  0.10820755874E+02  0.00000000000E+00 0.  1.
</event>
<event>
 8    1  0.2558382E-006  0.9118800E+02  0.7816164E-02  0.1184000E+00
        -11   -1    0    0    0    0  0.00000000000E+00  0.00000000000E+00  0.45593999997E+02  0.45594000000E+02  0.51100000000E-03 0.  1.
         11   -1    0    0    0    0 -0.00000000000E+00 -0.00000000000E+00 -0.45593999997E+02  0.45594000000E+02  0.51100000000E-03 0. -1.
         23    2    1    2    0    0  0.17763568394E-14 -0.17763568394E-14  0.00000000000E+00  0.91188000000E+02  0.91188000000E+02 0.  0.
    9900012    2    3    3    0    0  0.15062359894E+02 -0.67487122005E+01 -0.32914464448E+02  0.54367057972E+02  0.39999940258E+02 0.  0.
        -12    1    3    3    0    0 -0.15062359894E+02  0.67487122005E+01  0.32914464448E+02  0.36820942028E+02  0.00000000000E+00 0.  1.
         11    1    4    4    0    0  0.79994134319E+01 -0.26665591009E+01 -0.25094056531E+02  0.26472869624E+02  0.51100000000E-03 0. -1.
        -11    1    4    4    0    0  0.45863458715E+01  0.86571571688E+01 -0.10797094609E+02  0.14579375534E+02  0.51100000000E-03 0.  1.
        -12    1    4    4    0    0  0.24766005902E+01 -0.12739310268E+02  0.29766866918E+01  0.13314812814E+02  0.00000000000E+00 0.  1.
</event>
<event>
 8    1  0.2558382E-006  0.9118800E+02  0.7816164E-02  0.1184000E+00
        -11   -1    0    0    0    0  0.00000000000E+00  0.00000000000E+00  0.45593999997E+02  0.45594000000E+02  0.51100000000E-03 0.  1.
         11   -1    0    0    0    0 -0.00000000000E+00 -0.00000000000E+00 -0.45593999997E+02  0.45594000000E+02  0.51100000000E-03 0. -1.
         23    2    1    2    0    0  0.00000000000E+00  0.00000000000E+00  0.00000000000E+00  0.91188000000E+02  0.91188000000E+02 0.  0.
    9900012    2    3    3    0    0 -0.70961850613E+01  0.22788878012E+02 -0.28037285455E+02  0.54367106758E+02  0.40000051476E+02 0.  0.
        -12    1    3    3    0    0  0.70961850613E+01 -0.22788878012E+02  0.28037285455E+02  0.36820893242E+02  0.00000000000E+00 0.  1.
         11    1    4    4    0    0 -0.63290837102E+01  0.18612412069E+02 -0.23705585293E+02  0.30796654980E+02  0.51100000000E-03 0. -1.
        -11    1    4    4    0    0 -0.84651284631E+01 -0.60238887508E+01 -0.18997223145E+01  0.10561940196E+02  0.51100000000E-03 0.  1.
         12    1    4    4    0    0  0.76980271120E+01  0.10200354695E+02 -0.24319778473E+01  0.13008511581E+02  0.00000000000E+00 0. -1.
</event>
<event>
 8    1  0.2558382E-006  0.9118800E+02  0.7816164E-02  0.1184000E+00
        -11   -1    0    0    0    0  0.00000000000E+00  0.00000000000E+00  0.45593999997E+02  0.45594000000E+02  0.51100000000E-03 0.  1.
         11   -1    0    0    0    0 -0.00000000000E+00 -0.00000000000E+00 -0.45593999997E+02  0.45594000000E+02  0.51100000000E-03 0. -1.
         23    2    1    2    0    0  0.00000000000E+00  0.00000000000E+00  0.00000000000E+00  0.91188000000E+02  0.91188000000E+02 0.  0.
    9900012    2    3    3    0    0  0.15638060011E+02 -0.19088022041E+02  0.27329087480E+02  0.54367074851E+02  0.39999978738E+02 0.  0.
         12    1    3    3    0    0 -0.15638060011E+02  0.19088022041E+02 -0.27329087480E+02  0.36820925149E+02  0.00000000000E+00 0. -1.
         11    1    4    4    0    0  0.59230885249E+01  0.24034449186E+01 -0.89660403717E+01  0.11011330771E+02  0.51100000000E-03 0. -1.
        -11    1    4    4    0    0  0.19309135469E+01 -0.63490943434E+01  0.11510009371E+02  0.13286073238E+02  0.51100000000E-03 0.  1.
         12    1    4    4    0    0  0.77840579395E+01 -0.15142372616E+02  0.24785118481E+02  0.30069670842E+02  0.00000000000E+00 0. -1.
</event>
<event>
 8    1  0.2558382E-006  0.9118800E+02  0.7816164E-02  0.1184000E+00
        -11   -1    0    0    0    0  0.00000000000E+00  0.00000000000E+00  0.45593999997E+02  0.45594000000E+02  0.51100000000E-03 0.  1.
         11   -1    0    0    0    0 -0.00000000000E+00 -0.00000000000E+00 -0.45593999997E+02  0.45594000000E+02  0.51100000000E-03 0. -1.
         23    2    1    2    0    0  0.00000000000E+00  0.00000000000E+00 -0.55511151231E-15  0.91188000000E+02  0.91188000000E+02 0.  0.
    9900012    2    3    3    0    0 -0.28012985099E+02 -0.23883643614E+02 -0.78896042919E+00  0.54367106135E+02  0.40000050057E+02 0.  0.
        -12    1    3    3    0    0  0.28012985099E+02  0.23883643614E+02  0.78896042919E+00  0.36820893865E+02  0.00000000000E+00 0.  1.
         11    1    4    4    0    0 -0.12833367214E+02 -0.14070787941E+02 -0.42747095277E+01  0.19518082108E+02  0.51100000000E-03 0. -1.
        -11    1    4    4    0    0 -0.14909547042E+01  0.94743846641E+01 -0.34649217494E+01  0.10197675896E+02  0.51100000000E-03 0.  1.
         12    1    4    4    0    0 -0.13688663181E+02 -0.19287240336E+02  0.69506708480E+01  0.24651348132E+02  0.00000000000E+00 0. -1.
</event>
<event>
 8    1  0.2558382E-006  0.9118800E+02  0.7816164E-02  0.1184000E+00
        -11   -1    0    0    0    0  0.00000000000E+00  0.00000000000E+00  0.45593999997E+02  0.45594000000E+02  0.51100000000E-03 0. -1.
         11   -1    0    0    0    0 -0.00000000000E+00 -0.00000000000E+00 -0.45593999997E+02  0.45594000000E+02  0.51100000000E-03 0.  1.
         23    2    1    2    0    0  0.35527136788E-14  0.00000000000E+00 -0.88817841970E-15  0.91188000000E+02  0.91188000000E+02 0.  0.
    9900012    2    3    3    0    0  0.16388110177E+02 -0.31995462069E+02 -0.79686689697E+01  0.54367089727E+02  0.40000012651E+02 0.  0.
         12    1    3    3    0    0 -0.16388110177E+02  0.31995462069E+02  0.79686689697E+01  0.36820910273E+02  0.00000000000E+00 0. -1.
         11    1    4    4    0    0  0.55008804890E+01  0.47224035946E+00 -0.72591054060E+01  0.91201594651E+01  0.51100000000E-03 0. -1.
        -11    1    4    4    0    0  0.11229696149E+02 -0.11749365284E+02 -0.13299594768E+02  0.21000782876E+02  0.51100000000E-03 0.  1.
         12    1    4    4    0    0 -0.34246646165E+00 -0.20718337145E+02  0.12590031204E+02  0.24246147386E+02  0.00000000000E+00 0. -1.
</event>
<event>
 8    1  0.2558382E-006  0.9118800E+02  0.7816164E-02  0.1184000E+00
        -11   -1    0    0    0    0  0.00000000000E+00  0.00000000000E+00  0.45593999997E+02  0.45594000000E+02  0.51100000000E-03 0. -1.
         11   -1    0    0    0    0 -0.00000000000E+00 -0.00000000000E+00 -0.45593999997E+02  0.45594000000E+02  0.51100000000E-03 0.  1.
         23    2    1    2    0    0 -0.44408920985E-15  0.17763568394E-14  0.00000000000E+00  0.91188000000E+02  0.91188000000E+02 0.  0.
    9900012    2    3    3    0    0  0.30630654749E+00  0.80465805720E+01  0.35929766075E+02  0.54366954757E+02  0.39999704958E+02 0.  0.
        -12    1    3    3    0    0 -0.30630654749E+00 -0.80465805720E+01 -0.35929766075E+02  0.36821045243E+02  0.00000000000E+00 0.  1.
         11    1    4    4    0    0 -0.28098255435E+01  0.12687064124E+02  0.34022089635E+02  0.36419216069E+02  0.51100000000E-03 0. -1.
        -11    1    4    4    0    0 -0.19161833078E+01 -0.31884147332E+01  0.86465591804E+01  0.94127962318E+01  0.51100000000E-03 0.  1.
        -12    1    4    4    0    0  0.50323153988E+01 -0.14520688187E+01 -0.67388827408E+01  0.85349424556E+01  0.00000000000E+00 0.  1.
</event>
<event>
 8    1  0.2558382E-006  0.9118800E+02  0.7816164E-02  0.1184000E+00
        -11   -1    0    0    0    0  0.00000000000E+00  0.00000000000E+00  0.45593999997E+02  0.45594000000E+02  0.51100000000E-03 0.  1.
         11   -1    0    0    0    0 -0.00000000000E+00 -0.00000000000E+00 -0.45593999997E+02  0.45594000000E+02  0.51100000000E-03 0. -1.
         23    2    1    2    0    0  0.00000000000E+00 -0.35527136788E-14 -0.35527136788E-14  0.91188000000E+02  0.91188000000E+02 0.  0.
    9900012    2    3    3    0    0 -0.23601060705E+02 -0.20906081305E+02 -0.19018597278E+02  0.54367063776E+02  0.39999953491E+02 0.  0.
        -12    1    3    3    0    0  0.23601060705E+02  0.20906081305E+02  0.19018597278E+02  0.36820936224E+02  0.00000000000E+00 0.  1.
         11    1    4    4    0    0 -0.12920260961E+01 -0.19049437943E+01  0.71410070071E+01  0.75028077164E+01  0.51100000000E-03 0. -1.
        -11    1    4    4    0    0 -0.10032864940E+02 -0.72953049232E+01  0.33301187473E+01  0.12844047024E+02  0.51100000000E-03 0.  1.
         12    1    4    4    0    0 -0.12276169669E+02 -0.11705832588E+02 -0.29489723032E+02  0.34020209036E+02  0.00000000000E+00 0. -1.
</event>
<event>
 8    1  0.2558382E-006  0.9118800E+02  0.7816164E-02  0.1184000E+00
        -11   -1    0    0    0    0  0.00000000000E+00  0.00000000000E+00  0.45593999997E+02  0.45594000000E+02  0.51100000000E-03 0.  1.
         11   -1    0    0    0    0 -0.00000000000E+00 -0.00000000000E+00 -0.45593999997E+02  0.45594000000E+02  0.51100000000E-03 0. -1.
         23    2    1    2    0    0  0.00000000000E+00  0.00000000000E+00  0.00000000000E+00  0.91188000000E+02  0.91188000000E+02 0.  0.
    9900012    2    3    3    0    0  0.30202713125E+02  0.20329374183E+02 -0.55035071086E+01  0.54367137364E+02  0.40000121248E+02 0.  0.
        -12    1    3    3    0    0 -0.30202713125E+02 -0.20329374183E+02  0.55035071086E+01  0.36820862636E+02  0.00000000000E+00 0.  1.
         11    1    4    4    0    0  0.52983691212E+00  0.19347209606E+02 -0.21753254777E+01  0.19476326345E+02  0.51100000000E-03 0. -1.
        -11    1    4    4    0    0  0.20150550839E+02  0.89076595594E+01  0.11615536350E+00  0.22031899379E+02  0.51100000000E-03 0.  1.
        -12    1    4    4    0    0  0.95223253737E+01 -0.79254949819E+01 -0.34443369943E+01  0.12858911640E+02  0.00000000000E+00 0.  1.
</event>
<event>
 8    1  0.2558382E-006  0.9118800E+02  0.7816164E-02  0.1184000E+00
        -11   -1    0    0    0    0  0.00000000000E+00  0.00000000000E+00  0.45593999997E+02  0.45594000000E+02  0.51100000000E-03 0. -1.
         11   -1    0    0    0    0 -0.00000000000E+00 -0.00000000000E+00 -0.45593999997E+02  0.45594000000E+02  0.51100000000E-03 0.  1.
         23    2    1    2    0    0  0.00000000000E+00  0.00000000000E+00  0.00000000000E+00  0.91188000000E+02  0.91188000000E+02 0.  0.
    9900012    2    3    3    0    0 -0.25636846209E+02 -0.11593549097E+02 -0.23751238906E+02  0.54367087276E+02  0.40000007064E+02 0.  0.
         12    1    3    3    0    0  0.25636846209E+02  0.11593549097E+02  0.23751238906E+02  0.36820912724E+02  0.00000000000E+00 0. -1.
         11    1    4    4    0    0  0.14649602691E+01 -0.10571582384E+02 -0.10419675163E+02  0.14915565475E+02  0.51100000000E-03 0. -1.
        -11    1    4    4    0    0 -0.28295295595E+02 -0.83685597859E+01 -0.90430591873E+01  0.30861520789E+02  0.51100000000E-03 0.  1.
         12    1    4    4    0    0  0.11934891169E+01  0.73465930731E+01 -0.42885045559E+01  0.85900010116E+01  0.00000000000E+00 0. -1.
</event>
<event>
 8    1  0.2558382E-006  0.9118800E+02  0.7816164E-02  0.1184000E+00
        -11   -1    0    0    0    0  0.00000000000E+00  0.00000000000E+00  0.45593999997E+02  0.45594000000E+02  0.51100000000E-03 0.  1.
         11   -1    0    0    0    0 -0.00000000000E+00 -0.00000000000E+00 -0.45593999997E+02  0.45594000000E+02  0.51100000000E-03 0. -1.
         23    2    1    2    0    0  0.71054273576E-14 -0.17763568394E-14  0.00000000000E+00  0.91188000000E+02  0.91188000000E+02 0.  0.
    9900012    2    3    3    0    0 -0.34543643739E+02 -0.12050108708E+02 -0.41605285091E+01  0.54367103214E+02  0.40000043396E+02 0.  0.
         12    1    3    3    0    0  0.34543643739E+02  0.12050108708E+02  0.41605285091E+01  0.36820896786E+02  0.00000000000E+00 0. -1.
         11    1    4    4    0    0 -0.30654208215E+00  0.19092001686E+01 -0.14721358551E+00  0.19392486774E+01  0.51100000000E-03 0. -1.
        -11    1    4    4    0    0  0.16853699825E+01 -0.73818774276E+01  0.10655899849E+02  0.13072137858E+02  0.51100000000E-03 0.  1.
         12    1    4    4    0    0 -0.35922471640E+02 -0.65774314491E+01 -0.14669214773E+02  0.39355716678E+02  0.00000000000E+00 0. -1.
</event>
<event>
 8    1  0.2558382E-006  0.9118800E+02  0.7816164E-02  0.1184000E+00
        -11   -1    0    0    0    0  0.00000000000E+00  0.00000000000E+00  0.45593999997E+02  0.45594000000E+02  0.51100000000E-03 0.  1.
         11   -1    0    0    0    0 -0.00000000000E+00 -0.00000000000E+00 -0.45593999997E+02  0.45594000000E+02  0.51100000000E-03 0. -1.
         23    2    1    2    0    0  0.00000000000E+00  0.00000000000E+00  0.35527136788E-14  0.91188000000E+02  0.91188000000E+02 0.  0.
    9900012    2    3    3    0    0  0.38958205781E+01  0.18644397168E+02  0.31511728084E+02  0.54367082432E+02  0.39999996019E+02 0.  0.
         12    1    3    3    0    0 -0.38958205781E+01 -0.18644397168E+02 -0.31511728084E+02  0.36820917568E+02  0.00000000000E+00 0. -1.
         11    1    4    4    0    0  0.20642888865E+01 -0.14332374165E+01 -0.69965379327E+01  0.74341779239E+01  0.51100000000E-03 0. -1.
        -11    1    4    4    0    0  0.42635786216E+01  0.95108264844E+01  0.47093835146E+01  0.11437316837E+02  0.51100000000E-03 0.  1.
        -12    1    4    4    0    0 -0.24320469300E+01  0.10566808100E+02  0.33798882502E+02  0.35495587671E+02  0.00000000000E+00 0.  1.
</event>
<event>
 8    1  0.2558382E-006  0.9118800E+02  0.7816164E-02  0.1184000E+00
        -11   -1    0    0    0    0  0.00000000000E+00  0.00000000000E+00  0.45593999997E+02  0.45594000000E+02  0.51100000000E-03 0.  1.
         11   -1    0    0    0    0 -0.00000000000E+00 -0.00000000000E+00 -0.45593999997E+02  0.45594000000E+02  0.51100000000E-03 0. -1.
         23    2    1    2    0    0  0.00000000000E+00 -0.35527136788E-14  0.00000000000E+00  0.91188000000E+02  0.91188000000E+02 0.  0.
    9900012    2    3    3    0    0 -0.13793835113E+02  0.23159316934E+02  0.25082901764E+02  0.54367138945E+02  0.40000124852E+02 0.  0.
         12    1    3    3    0    0  0.13793835113E+02 -0.23159316934E+02 -0.25082901764E+02  0.36820861055E+02  0.00000000000E+00 0. -1.
         11    1    4    4    0    0  0.82277514296E+01  0.24287684088E+01  0.68011793032E+01  0.10947641287E+02  0.51100000000E-03 0. -1.
        -11    1    4    4    0    0 -0.13854872468E+02  0.22682389875E+02  0.40366603647E+01  0.26883878602E+02  0.51100000000E-03 0.  1.
        -12    1    4    4    0    0 -0.81667140744E+01 -0.19518413500E+01  0.14245062096E+02  0.16535619056E+02  0.00000000000E+00 0.  1.
</event>
<event>
 8    1  0.2558382E-006  0.9118800E+02  0.7816164E-02  0.1184000E+00
        -11   -1    0    0    0    0  0.00000000000E+00  0.00000000000E+00  0.45593999997E+02  0.45594000000E+02  0.51100000000E-03 0. -1.
         11   -1    0    0    0    0 -0.00000000000E+00 -0.00000000000E+00 -0.45593999997E+02  0.45594000000E+02  0.51100000000E-03 0.  1.
         23    2    1    2    0    0  0.00000000000E+00  0.00000000000E+00  0.17763568394E-14  0.91188000000E+02  0.91188000000E+02 0.  0.
    9900012    2    3    3    0    0 -0.20839076085E+02 -0.26678192941E+02 -0.14484062769E+02  0.54367066484E+02  0.39999959665E+02 0.  0.
         12    1    3    3    0    0  0.20839076085E+02  0.26678192941E+02  0.14484062769E+02  0.36820933516E+02  0.00000000000E+00 0. -1.
         11    1    4    4    0    0 -0.27899399873E+02 -0.14096970293E+02 -0.88112272947E+01  0.32476742623E+02  0.51100000000E-03 0. -1.
        -11    1    4    4    0    0  0.36572486145E+01 -0.14909960609E+02 -0.61460262357E+00  0.15364248418E+02  0.51100000000E-03 0.  1.
        -12    1    4    4    0    0  0.34030751727E+01  0.23287379618E+01 -0.50582328505E+01  0.65260754436E+01  0.00000000000E+00 0.  1.
</event>
<event>
 8    1  0.2558382E-006  0.9118800E+02  0.7816164E-02  0.1184000E+00
        -11   -1    0    0    0    0  0.00000000000E+00  0.00000000000E+00  0.45593999997E+02  0.45594000000E+02  0.51100000000E-03 0.  1.
         11   -1    0    0    0    0 -0.00000000000E+00 -0.00000000000E+00 -0.45593999997E+02  0.45594000000E+02  0.51100000000E-03 0. -1.
         23    2    1    2    0    0  0.00000000000E+00  0.88817841970E-15  0.00000000000E+00  0.91188000000E+02  0.91188000000E+02 0.  0.
    9900012    2    3    3    0    0 -0.10716800339E+02 -0.56961492968E+01  0.34763260894E+02  0.54367078850E+02  0.39999987855E+02 0.  0.
         12    1    3    3    0    0  0.10716800339E+02  0.56961492968E+01 -0.34763260894E+02  0.36820921150E+02  0.00000000000E+00 0. -1.
         11    1    4    4    0    0  0.35719637633E+01 -0.11041750785E+01  0.16230546656E+01  0.40758354284E+01  0.51100000000E-03 0. -1.
        -11    1    4    4    0    0 -0.12154260885E+02  0.14223673126E+02  0.14007144302E+02  0.23371757029E+02  0.51100000000E-03 0.  1.
        -12    1    4    4    0    0 -0.21345032180E+01 -0.18815647345E+02  0.19133061926E+02  0.26919486393E+02  0.00000000000E+00 0.  1.
</event>
<event>
 8    1  0.2558382E-006  0.9118800E+02  0.7816164E-02  0.1184000E+00
        -11   -1    0    0    0    0  0.00000000000E+00  0.00000000000E+00  0.45593999997E+02  0.45594000000E+02  0.51100000000E-03 0.  1.
         11   -1    0    0    0    0 -0.00000000000E+00 -0.00000000000E+00 -0.45593999997E+02  0.45594000000E+02  0.51100000000E-03 0. -1.
         23    2    1    2    0    0  0.44408920985E-15  0.00000000000E+00  0.17763568394E-14  0.91188000000E+02  0.91188000000E+02 0.  0.
    9900012    2    3    3    0    0 -0.15338716076E+01 -0.35536919857E+02  0.95159860196E+01  0.54367089841E+02  0.40000012910E+02 0.  0.
         12    1    3    3    0    0  0.15338716076E+01  0.35536919857E+02 -0.95159860196E+01  0.36820910159E+02  0.00000000000E+00 0. -1.
         11    1    4    4    0    0 -0.13047751720E+02 -0.19264257044E+02 -0.59462452804E+01  0.24014854936E+02  0.51100000000E-03 0. -1.
        -11    1    4    4    0    0 -0.22279179366E+01 -0.11251670865E+02  0.73562721247E+01  0.13626388202E+02  0.51100000000E-03 0.  1.
         12    1    4    4    0    0  0.13741798049E+02 -0.50209919477E+01  0.81059591753E+01  0.16725846703E+02  0.00000000000E+00 0. -1.
</event>
<event>
 8    1  0.2558382E-006  0.9118800E+02  0.7816164E-02  0.1184000E+00
        -11   -1    0    0    0    0  0.00000000000E+00  0.00000000000E+00  0.45593999997E+02  0.45594000000E+02  0.51100000000E-03 0. -1.
         11   -1    0    0    0    0 -0.00000000000E+00 -0.00000000000E+00 -0.45593999997E+02  0.45594000000E+02  0.51100000000E-03 0.  1.
         23    2    1    2    0    0 -0.35527136788E-14  0.00000000000E+00  0.00000000000E+00  0.91188000000E+02  0.91188000000E+02 0.  0.
    9900012    2    3    3    0    0 -0.19418329576E+02  0.24142063685E+02  0.19896452118E+02  0.54367087879E+02  0.40000008439E+02 0.  0.
        -12    1    3    3    0    0  0.19418329576E+02 -0.24142063685E+02 -0.19896452118E+02  0.36820912121E+02  0.00000000000E+00 0.  1.
         11    1    4    4    0    0 -0.60258070146E+01  0.16395459340E+02  0.27716117671E+02  0.32761328059E+02  0.51100000000E-03 0. -1.
        -11    1    4    4    0    0 -0.29552814106E+01  0.88950396550E+01 -0.54466120189E+01  0.10840710375E+02  0.51100000000E-03 0.  1.
        -12    1    4    4    0    0 -0.10437241151E+02 -0.11484353095E+01 -0.23730535344E+01  0.10765049446E+02  0.00000000000E+00 0.  1.
</event>
<event>
 8    1  0.2558382E-006  0.9118800E+02  0.7816164E-02  0.1184000E+00
        -11   -1    0    0    0    0  0.00000000000E+00  0.00000000000E+00  0.45593999997E+02  0.45594000000E+02  0.51100000000E-03 0. -1.
         11   -1    0    0    0    0 -0.00000000000E+00 -0.00000000000E+00 -0.45593999997E+02  0.45594000000E+02  0.51100000000E-03 0.  1.
         23    2    1    2    0    0  0.17763568394E-14  0.00000000000E+00 -0.71054273576E-14  0.91188000000E+02  0.91188000000E+02 0.  0.
    9900012    2    3    3    0    0 -0.43332662118E+01  0.16597151748E+01  0.36527371315E+02  0.54367072449E+02  0.39999973263E+02 0.  0.
        -12    1    3    3    0    0  0.43332662118E+01 -0.16597151748E+01 -0.36527371315E+02  0.36820927551E+02  0.00000000000E+00 0.  1.
         11    1    4    4    0    0 -0.31899745040E+01 -0.19740752838E+01  0.14254684803E+02  0.14740045782E+02  0.51100000000E-03 0. -1.
        -11    1    4    4    0    0  0.10619442261E+02  0.34597331977E+01  0.25148085630E+02  0.27516695275E+02  0.51100000000E-03 0.  1.
        -12    1    4    4    0    0 -0.11762733969E+02  0.17405726083E+00 -0.28753991183E+01  0.12110331393E+02  0.00000000000E+00 0.  1.
</event>
<event>
 8    1  0.2558382E-006  0.9118800E+02  0.7816164E-02  0.1184000E+00
        -11   -1    0    0    0    0  0.00000000000E+00  0.00000000000E+00  0.45593999997E+02  0.45594000000E+02  0.51100000000E-03 0.  1.
         11   -1    0    0    0    0 -0.00000000000E+00 -0.00000000000E+00 -0.45593999997E+02  0.45594000000E+02  0.51100000000E-03 0. -1.
         23    2    1    2    0    0  0.00000000000E+00 -0.13322676296E-14  0.00000000000E+00  0.91188000000E+02  0.91188000000E+02 0.  0.
    9900012    2    3    3    0    0  0.14018388592E+02  0.37758530472E+01  0.33837953873E+02  0.54367090081E+02  0.40000013458E+02 0.  0.
         12    1    3    3    0    0 -0.14018388592E+02 -0.37758530472E+01 -0.33837953873E+02  0.36820909919E+02  0.00000000000E+00 0. -1.
         11    1    4    4    0    0  0.29193569375E+01  0.18791575711E+02  0.23670898485E+02  0.30363751382E+02  0.51100000000E-03 0. -1.
        -11    1    4    4    0    0 -0.37099497428E-01 -0.42210912727E+00 -0.19579494304E+01  0.20032769956E+01  0.51100000000E-03 0.  1.
        -12    1    4    4    0    0  0.11136131152E+02 -0.14593613537E+02  0.12125004818E+02  0.22000061703E+02  0.00000000000E+00 0.  1.
</event>
<event>
 8    1  0.2558382E-006  0.9118800E+02  0.7816164E-02  0.1184000E+00
        -11   -1    0    0    0    0  0.00000000000E+00  0.00000000000E+00  0.45593999997E+02  0.45594000000E+02  0.51100000000E-03 0. -1.
         11   -1    0    0    0    0 -0.00000000000E+00 -0.00000000000E+00 -0.45593999997E+02  0.45594000000E+02  0.51100000000E-03 0.  1.
         23    2    1    2    0    0  0.00000000000E+00  0.17763568394E-14  0.00000000000E+00  0.91188000000E+02  0.91188000000E+02 0.  0.
    9900012    2    3    3    0    0 -0.48588191593E+01  0.44796330049E+01  0.36222958590E+02  0.54367109673E+02  0.40000058122E+02 0.  0.
        -12    1    3    3    0    0  0.48588191593E+01 -0.44796330049E+01 -0.36222958590E+02  0.36820890327E+02  0.00000000000E+00 0.  1.
         11    1    4    4    0    0  0.13363984369E+01 -0.94666034473E+01  0.11838581643E+02  0.15216916810E+02  0.51100000000E-03 0. -1.
        -11    1    4    4    0    0 -0.11198918262E+02 -0.24028316637E+01  0.31326320624E+01  0.11874458057E+02  0.51100000000E-03 0.  1.
        -12    1    4    4    0    0  0.50037006659E+01  0.16349068116E+02  0.21251744884E+02  0.27275734806E+02  0.00000000000E+00 0.  1.
</event>
<event>
 8    1  0.2558382E-006  0.9118800E+02  0.7816164E-02  0.1184000E+00
        -11   -1    0    0    0    0  0.00000000000E+00  0.00000000000E+00  0.45593999997E+02  0.45594000000E+02  0.51100000000E-03 0. -1.
         11   -1    0    0    0    0 -0.00000000000E+00 -0.00000000000E+00 -0.45593999997E+02  0.45594000000E+02  0.51100000000E-03 0.  1.
         23    2    1    2    0    0  0.00000000000E+00 -0.44408920985E-15  0.00000000000E+00  0.91188000000E+02  0.91188000000E+02 0.  0.
    9900012    2    3    3    0    0 -0.16974400530E+02  0.21084414186E+01 -0.32606800949E+02  0.54367091990E+02  0.40000017809E+02 0.  0.
         12    1    3    3    0    0  0.16974400530E+02 -0.21084414186E+01  0.32606800949E+02  0.36820908010E+02  0.00000000000E+00 0. -1.
         11    1    4    4    0    0 -0.20781299748E+01  0.68152254032E+01 -0.51147733830E+01  0.87707940638E+01  0.51100000000E-03 0. -1.
        -11    1    4    4    0    0 -0.98198293094E+01 -0.24377231025E+01 -0.34898056466E+02  0.36335187999E+02  0.51100000000E-03 0.  1.
        -12    1    4    4    0    0 -0.50764412463E+01 -0.22690608820E+01  0.74060288999E+01  0.92611099269E+01  0.00000000000E+00 0.  1.
</event>
<event>
 8    1  0.2558382E-006  0.9118800E+02  0.7816164E-02  0.1184000E+00
        -11   -1    0    0    0    0  0.00000000000E+00  0.00000000000E+00  0.45593999997E+02  0.45594000000E+02  0.51100000000E-03 0.  1.
         11   -1    0    0    0    0 -0.00000000000E+00 -0.00000000000E+00 -0.45593999997E+02  0.45594000000E+02  0.51100000000E-03 0. -1.
         23    2    1    2    0    0  0.35527136788E-14 -0.17763568394E-14 -0.35527136788E-14  0.91188000000E+02  0.91188000000E+02 0.  0.
    9900012    2    3    3    0    0  0.27952247990E+02 -0.13765794474E+02  0.19620265619E+02  0.54367080835E+02  0.39999992380E+02 0.  0.
         12    1    3    3    0    0 -0.27952247990E+02  0.13765794474E+02 -0.19620265619E+02  0.36820919165E+02  0.00000000000E+00 0. -1.
         11    1    4    4    0    0  0.37784506219E+01  0.41562900838E+01 -0.64942189496E+00  0.56544836565E+01  0.51100000000E-03 0. -1.
        -11    1    4    4    0    0  0.21933570597E+02 -0.13659122541E+01 -0.59386921923E+00  0.21984083250E+02  0.51100000000E-03 0.  1.
        -12    1    4    4    0    0  0.22402267715E+01 -0.16556172303E+02  0.20863556733E+02  0.26728513929E+02  0.00000000000E+00 0.  1.
</event>
<event>
 8    1  0.2558382E-006  0.9118800E+02  0.7816164E-02  0.1184000E+00
        -11   -1    0    0    0    0  0.00000000000E+00  0.00000000000E+00  0.45593999997E+02  0.45594000000E+02  0.51100000000E-03 0. -1.
         11   -1    0    0    0    0 -0.00000000000E+00 -0.00000000000E+00 -0.45593999997E+02  0.45594000000E+02  0.51100000000E-03 0.  1.
         23    2    1    2    0    0  0.17763568394E-14 -0.35527136788E-14  0.00000000000E+00  0.91188000000E+02  0.91188000000E+02 0.  0.
    9900012    2    3    3    0    0  0.97186766380E+01  0.27874557718E+02 -0.22007620932E+02  0.54367095303E+02  0.40000025363E+02 0.  0.
         12    1    3    3    0    0 -0.97186766380E+01 -0.27874557718E+02  0.22007620932E+02  0.36820904697E+02  0.00000000000E+00 0. -1.
         11    1    4    4    0    0  0.15188146743E+02  0.73235460848E+01 -0.25999950664E+01  0.17060893978E+02  0.51100000000E-03 0. -1.
        -11    1    4    4    0    0 -0.80815732758E+01 -0.25084595534E+01 -0.34287154785E+01  0.91301854328E+01  0.51100000000E-03 0.  1.
        -12    1    4    4    0    0  0.26121031710E+01  0.23059471187E+02 -0.15978910387E+02  0.28176015892E+02  0.00000000000E+00 0.  1.
</event>
<event>
 8    1  0.2558382E-006  0.9118800E+02  0.7816164E-02  0.1184000E+00
        -11   -1    0    0    0    0  0.00000000000E+00  0.00000000000E+00  0.45593999997E+02  0.45594000000E+02  0.51100000000E-03 0. -1.
         11   -1    0    0    0    0 -0.00000000000E+00 -0.00000000000E+00 -0.45593999997E+02  0.45594000000E+02  0.51100000000E-03 0.  1.
         23    2    1    2    0    0 -0.17763568394E-14  0.00000000000E+00 -0.35527136788E-14  0.91188000000E+02  0.91188000000E+02 0.  0.
    9900012    2    3    3    0    0  0.51480901272E+01 -0.23143021577E+02 -0.28172275636E+02  0.54367090259E+02  0.40000013862E+02 0.  0.
         12    1    3    3    0    0 -0.51480901272E+01  0.23143021577E+02  0.28172275636E+02  0.36820909741E+02  0.00000000000E+00 0. -1.
         11    1    4    4    0    0 -0.12624784126E+02 -0.70972580572E+01 -0.11977117250E+02  0.18793817708E+02  0.51100000000E-03 0. -1.
        -11    1    4    4    0    0  0.27621467315E+01  0.50601313811E+01 -0.32706925029E+01  0.66281078650E+01  0.51100000000E-03 0.  1.
         12    1    4    4    0    0  0.15010727522E+02 -0.21105894901E+02 -0.12924465883E+02  0.28945164686E+02  0.00000000000E+00 0. -1.
</event>
<event>
 8    1  0.2558382E-006  0.9118800E+02  0.7816164E-02  0.1184000E+00
        -11   -1    0    0    0    0  0.00000000000E+00  0.00000000000E+00  0.45593999997E+02  0.45594000000E+02  0.51100000000E-03 0.  1.
         11   -1    0    0    0    0 -0.00000000000E+00 -0.00000000000E+00 -0.45593999997E+02  0.45594000000E+02  0.51100000000E-03 0. -1.
         23    2    1    2    0    0 -0.11102230246E-14  0.00000000000E+00  0.00000000000E+00  0.91188000000E+02  0.91188000000E+02 0.  0.
    9900012    2    3    3    0    0  0.19421857830E+01  0.35997257537E+02  0.74970008157E+01  0.54367086689E+02  0.40000005725E+02 0.  0.
        -12    1    3    3    0    0 -0.19421857830E+01 -0.35997257537E+02 -0.74970008157E+01  0.36820913311E+02  0.00000000000E+00 0.  1.
         11    1    4    4    0    0 -0.21328130486E+01  0.91603946877E+01 -0.45395929989E+01  0.10443640514E+02  0.51100000000E-03 0. -1.
        -11    1    4    4    0    0  0.17253700395E+02  0.83138937613E+01  0.83512882012E+01  0.20893899149E+02  0.51100000000E-03 0.  1.
        -12    1    4    4    0    0 -0.13178701563E+02  0.18522969088E+02  0.36853056134E+01  0.23029547025E+02  0.00000000000E+00 0.  1.
</event>
<event>
 8    1  0.2558382E-006  0.9118800E+02  0.7816164E-02  0.1184000E+00
        -11   -1    0    0    0    0  0.00000000000E+00  0.00000000000E+00  0.45593999997E+02  0.45594000000E+02  0.51100000000E-03 0.  1.
         11   -1    0    0    0    0 -0.00000000000E+00 -0.00000000000E+00 -0.45593999997E+02  0.45594000000E+02  0.51100000000E-03 0. -1.
         23    2    1    2    0    0  0.88817841970E-15  0.88817841970E-15  0.00000000000E+00  0.91188000000E+02  0.91188000000E+02 0.  0.
    9900012    2    3    3    0    0 -0.76080536153E+01 -0.54683488111E+01 -0.35608909698E+02  0.54367085177E+02  0.40000002277E+02 0.  0.
        -12    1    3    3    0    0  0.76080536153E+01  0.54683488111E+01  0.35608909698E+02  0.36820914823E+02  0.00000000000E+00 0.  1.
         11    1    4    4    0    0  0.17977310951E+01  0.83683613983E+01 -0.24633225266E+02  0.26077904380E+02  0.51100000000E-03 0. -1.
        -11    1    4    4    0    0 -0.14682216271E+02 -0.14151280734E+02 -0.10619729546E+02  0.22991408764E+02  0.51100000000E-03 0.  1.
        -12    1    4    4    0    0  0.52764315609E+01  0.31457052488E+00 -0.35595488601E+00  0.52977720329E+01  0.00000000000E+00 0.  1.
</event>
<event>
 8    1  0.2558382E-006  0.9118800E+02  0.7816164E-02  0.1184000E+00
        -11   -1    0    0    0    0  0.00000000000E+00  0.00000000000E+00  0.45593999997E+02  0.45594000000E+02  0.51100000000E-03 0. -1.
         11   -1    0    0    0    0 -0.00000000000E+00 -0.00000000000E+00 -0.45593999997E+02  0.45594000000E+02  0.51100000000E-03 0.  1.
         23    2    1    2    0    0  0.17763568394E-14  0.00000000000E+00  0.00000000000E+00  0.91188000000E+02  0.91188000000E+02 0.  0.
    9900012    2    3    3    0    0 -0.96097679910E+01 -0.33100211482E+02  0.12954106665E+02  0.54367074965E+02  0.39999978997E+02 0.  0.
        -12    1    3    3    0    0  0.96097679910E+01  0.33100211482E+02 -0.12954106665E+02  0.36820925035E+02  0.00000000000E+00 0.  1.
         11    1    4    4    0    0  0.30226929615E+01 -0.23161585328E+02  0.54702667624E+01  0.23989988045E+02  0.51100000000E-03 0. -1.
        -11    1    4    4    0    0  0.68293243519E+01 -0.41907544152E+01 -0.15551974254E+01  0.81621524713E+01  0.51100000000E-03 0.  1.
        -12    1    4    4    0    0 -0.19461785304E+02 -0.57478717381E+01  0.90390373277E+01  0.22214934449E+02  0.00000000000E+00 0.  1.
</event>
<event>
 8    1  0.2558382E-006  0.9118800E+02  0.7816164E-02  0.1184000E+00
        -11   -1    0    0    0    0  0.00000000000E+00  0.00000000000E+00  0.45593999997E+02  0.45594000000E+02  0.51100000000E-03 0. -1.
         11   -1    0    0    0    0 -0.00000000000E+00 -0.00000000000E+00 -0.45593999997E+02  0.45594000000E+02  0.51100000000E-03 0.  1.
         23    2    1    2    0    0  0.00000000000E+00  0.35527136788E-14 -0.35527136788E-14  0.91188000000E+02  0.91188000000E+02 0.  0.
    9900012    2    3    3    0    0  0.63907211372E+01  0.23580756991E+02 -0.27547881237E+02  0.54367093200E+02  0.40000020568E+02 0.  0.
         12    1    3    3    0    0 -0.63907211372E+01 -0.23580756991E+02  0.27547881237E+02  0.36820906800E+02  0.00000000000E+00 0. -1.
         11    1    4    4    0    0  0.11628961597E+02  0.21963769012E+02 -0.17250368206E+01  0.24912158665E+02  0.51100000000E-03 0. -1.
        -11    1    4    4    0    0  0.29009092856E+01 -0.25051388857E+01 -0.14034446097E+02  0.14548425105E+02  0.51100000000E-03 0.  1.
        -12    1    4    4    0    0 -0.81391497454E+01  0.41221268652E+01 -0.11788398319E+02  0.14906509431E+02  0.00000000000E+00 0.  1.
</event>
<event>
 8    1  0.2558382E-006  0.9118800E+02  0.7816164E-02  0.1184000E+00
        -11   -1    0    0    0    0  0.00000000000E+00  0.00000000000E+00  0.45593999997E+02  0.45594000000E+02  0.51100000000E-03 0. -1.
         11   -1    0    0    0    0 -0.00000000000E+00 -0.00000000000E+00 -0.45593999997E+02  0.45594000000E+02  0.51100000000E-03 0.  1.
         23    2    1    2    0    0 -0.17763568394E-14  0.00000000000E+00  0.71054273576E-14  0.91188000000E+02  0.91188000000E+02 0.  0.
    9900012    2    3    3    0    0 -0.93923860426E+01 -0.17797880533E+02  0.30835014065E+02  0.54367088015E+02  0.40000008747E+02 0.  0.
        -12    1    3    3    0    0  0.93923860426E+01  0.17797880533E+02 -0.30835014065E+02  0.36820911985E+02  0.00000000000E+00 0.  1.
         11    1    4    4    0    0 -0.78962627823E+01 -0.22295068704E+02  0.30779957471E+02  0.38817867492E+02  0.51100000000E-03 0. -1.
        -11    1    4    4    0    0  0.16288942520E+01 -0.26302346956E+01 -0.52758617411E+01  0.61160566062E+01  0.51100000000E-03 0.  1.
        -12    1    4    4    0    0 -0.31250175123E+01  0.71274228671E+01  0.53309183353E+01  0.94331639165E+01  0.00000000000E+00 0.  1.
</event>
<event>
 8    1  0.2558382E-006  0.9118800E+02  0.7816164E-02  0.1184000E+00
        -11   -1    0    0    0    0  0.00000000000E+00  0.00000000000E+00  0.45593999997E+02  0.45594000000E+02  0.51100000000E-03 0. -1.
         11   -1    0    0    0    0 -0.00000000000E+00 -0.00000000000E+00 -0.45593999997E+02  0.45594000000E+02  0.51100000000E-03 0.  1.
         23    2    1    2    0    0  0.17763568394E-14  0.00000000000E+00  0.71054273576E-14  0.91188000000E+02  0.91188000000E+02 0.  0.
    9900012    2    3    3    0    0 -0.67401791681E+01  0.16430696153E+02  0.32254951345E+02  0.54367086410E+02  0.40000005089E+02 0.  0.
         12    1    3    3    0    0  0.67401791681E+01 -0.16430696153E+02 -0.32254951345E+02  0.36820913590E+02  0.00000000000E+00 0. -1.
         11    1    4    4    0    0  0.37286842498E+01  0.13722207996E+02  0.35760396950E+02  0.38483867643E+02  0.51100000000E-03 0. -1.
        -11    1    4    4    0    0 -0.50037897487E+01  0.66433724426E+01 -0.37968115968E+01  0.91426521220E+01  0.51100000000E-03 0.  1.
         12    1    4    4    0    0 -0.54650736692E+01 -0.39348842857E+01  0.29136599243E+00  0.67405666448E+01  0.00000000000E+00 0. -1.
</event>
<event>
 8    1  0.2558382E-006  0.9118800E+02  0.7816164E-02  0.1184000E+00
        -11   -1    0    0    0    0  0.00000000000E+00  0.00000000000E+00  0.45593999997E+02  0.45594000000E+02  0.51100000000E-03 0.  1.
         11   -1    0    0    0    0 -0.00000000000E+00 -0.00000000000E+00 -0.45593999997E+02  0.45594000000E+02  0.51100000000E-03 0. -1.
         23    2    1    2    0    0  0.17763568394E-14  0.35527136788E-14  0.00000000000E+00  0.91188000000E+02  0.91188000000E+02 0.  0.
    9900012    2    3    3    0    0  0.10125959931E+02  0.18960617047E+02 -0.29895493316E+02  0.54367074103E+02  0.39999977032E+02 0.  0.
        -12    1    3    3    0    0 -0.10125959931E+02 -0.18960617047E+02  0.29895493316E+02  0.36820925897E+02  0.00000000000E+00 0.  1.
         11    1    4    4    0    0 -0.10432151994E+02  0.94551005015E+01 -0.13960468763E+02  0.19827339939E+02  0.51100000000E-03 0. -1.
        -11    1    4    4    0    0  0.47445429056E+01  0.76076813954E+00  0.49659969262E+01  0.69101795402E+01  0.51100000000E-03 0.  1.
         12    1    4    4    0    0  0.15813569020E+02  0.87447484061E+01 -0.20901021479E+02  0.27629554624E+02  0.00000000000E+00 0. -1.
</event>
<event>
 8    1  0.2558382E-006  0.9118800E+02  0.7816164E-02  0.1184000E+00
        -11   -1    0    0    0    0  0.00000000000E+00  0.00000000000E+00  0.45593999997E+02  0.45594000000E+02  0.51100000000E-03 0.  1.
         11   -1    0    0    0    0 -0.00000000000E+00 -0.00000000000E+00 -0.45593999997E+02  0.45594000000E+02  0.51100000000E-03 0. -1.
         23    2    1    2    0    0 -0.35527136788E-14 -0.35527136788E-14  0.17763568394E-14  0.91188000000E+02  0.91188000000E+02 0.  0.
    9900012    2    3    3    0    0 -0.18392080578E+02 -0.31524465853E+02  0.48700016430E+01  0.54367116098E+02  0.40000072769E+02 0.  0.
         12    1    3    3    0    0  0.18392080578E+02  0.31524465853E+02 -0.48700016430E+01  0.36820883902E+02  0.00000000000E+00 0. -1.
         11    1    4    4    0    0 -0.47214830489E+01 -0.62286442405E+01 -0.39022347834E+01  0.87358942200E+01  0.51100000000E-03 0.  1.
        -11    1    4    4    0    0 -0.49874947900E+01 -0.64896082516E+01 -0.13138342356E+02  0.15479217024E+02  0.51100000000E-03 0. -1.
         12    1    4    4    0    0 -0.86831027387E+01 -0.18806213361E+02  0.21910578783E+02  0.30152004854E+02  0.00000000000E+00 0. -1.
</event>
<event>
 8    1  0.2558382E-006  0.9118800E+02  0.7816164E-02  0.1184000E+00
        -11   -1    0    0    0    0  0.00000000000E+00  0.00000000000E+00  0.45593999997E+02  0.45594000000E+02  0.51100000000E-03 0.  1.
         11   -1    0    0    0    0 -0.00000000000E+00 -0.00000000000E+00 -0.45593999997E+02  0.45594000000E+02  0.51100000000E-03 0. -1.
         23    2    1    2    0    0 -0.35527136788E-14 -0.17763568394E-14  0.71054273576E-14  0.91188000000E+02  0.91188000000E+02 0.  0.
    9900012    2    3    3    0    0  0.15313030717E+02  0.88351972631E+01 -0.32299086003E+02  0.54367074197E+02  0.39999977246E+02 0.  0.
        -12    1    3    3    0    0 -0.15313030717E+02 -0.88351972631E+01  0.32299086003E+02  0.36820925803E+02  0.00000000000E+00 0.  1.
         11    1    4    4    0    0  0.80807101914E+00 -0.55956263673E+01 -0.15707002563E+02  0.16693529974E+02  0.51100000000E-03 0. -1.
        -11    1    4    4    0    0 -0.27372156586E+01 -0.32921291841E+01  0.37216678044E+01  0.56728542757E+01  0.51100000000E-03 0.  1.
         12    1    4    4    0    0  0.17242175356E+02  0.17722952814E+02 -0.20313751244E+02  0.32000689947E+02  0.00000000000E+00 0. -1.
</event>
<event>
 8    1  0.2558382E-006  0.9118800E+02  0.7816164E-02  0.1184000E+00
        -11   -1    0    0    0    0  0.00000000000E+00  0.00000000000E+00  0.45593999997E+02  0.45594000000E+02  0.51100000000E-03 0. -1.
         11   -1    0    0    0    0 -0.00000000000E+00 -0.00000000000E+00 -0.45593999997E+02  0.45594000000E+02  0.51100000000E-03 0.  1.
         23    2    1    2    0    0  0.00000000000E+00  0.00000000000E+00 -0.22204460493E-15  0.91188000000E+02  0.91188000000E+02 0.  0.
    9900012    2    3    3    0    0 -0.35773041241E+02 -0.86846779705E+01  0.80377441083E+00  0.54367079800E+02  0.39999990019E+02 0.  0.
         12    1    3    3    0    0  0.35773041241E+02  0.86846779705E+01 -0.80377441083E+00  0.36820920200E+02  0.00000000000E+00 0. -1.
         11    1    4    4    0    0  0.13702615717E+01 -0.11810683175E+01  0.63182580150E+01  0.65721323595E+01  0.51100000000E-03 0. -1.
        -11    1    4    4    0    0 -0.40314222913E+02 -0.11895093487E+02 -0.43730419138E+01  0.42259357709E+02  0.51100000000E-03 0.  1.
        -12    1    4    4    0    0  0.31709200998E+01  0.43914838336E+01 -0.11414416904E+01  0.55355897313E+01  0.00000000000E+00 0.  1.
</event>
<event>
 8    1  0.2558382E-006  0.9118800E+02  0.7816164E-02  0.1184000E+00
        -11   -1    0    0    0    0  0.00000000000E+00  0.00000000000E+00  0.45593999997E+02  0.45594000000E+02  0.51100000000E-03 0.  1.
         11   -1    0    0    0    0 -0.00000000000E+00 -0.00000000000E+00 -0.45593999997E+02  0.45594000000E+02  0.51100000000E-03 0. -1.
         23    2    1    2    0    0  0.00000000000E+00  0.00000000000E+00  0.00000000000E+00  0.91188000000E+02  0.91188000000E+02 0.  0.
    9900012    2    3    3    0    0 -0.26406162406E+02 -0.16981879135E+02 -0.19238241746E+02  0.54367087771E+02  0.40000008191E+02 0.  0.
        -12    1    3    3    0    0  0.26406162406E+02  0.16981879135E+02  0.19238241746E+02  0.36820912229E+02  0.00000000000E+00 0.  1.
         11    1    4    4    0    0 -0.29752078668E+01 -0.69456121312E+01 -0.60757854041E+01  0.96958010636E+01  0.51100000000E-03 0. -1.
        -11    1    4    4    0    0 -0.89196051242E+01 -0.20050647655E+02 -0.15526142209E+02  0.26882130107E+02  0.51100000000E-03 0.  1.
        -12    1    4    4    0    0 -0.14511349415E+02  0.10014380651E+02  0.23636858671E+01  0.17789156600E+02  0.00000000000E+00 0.  1.
</event>
<event>
 8    1  0.2558382E-006  0.9118800E+02  0.7816164E-02  0.1184000E+00
        -11   -1    0    0    0    0  0.00000000000E+00  0.00000000000E+00  0.45593999997E+02  0.45594000000E+02  0.51100000000E-03 0. -1.
         11   -1    0    0    0    0 -0.00000000000E+00 -0.00000000000E+00 -0.45593999997E+02  0.45594000000E+02  0.51100000000E-03 0.  1.
         23    2    1    2    0    0  0.00000000000E+00  0.17763568394E-14  0.00000000000E+00  0.91188000000E+02  0.91188000000E+02 0.  0.
    9900012    2    3    3    0    0  0.20261358959E+01 -0.12349662930E+02 -0.34628922272E+02  0.54367059506E+02  0.39999943755E+02 0.  0.
         12    1    3    3    0    0 -0.20261358959E+01  0.12349662930E+02  0.34628922272E+02  0.36820940494E+02  0.00000000000E+00 0. -1.
         11    1    4    4    0    0  0.92324426787E+01 -0.51035301690E+01 -0.45681981645E+01  0.11495758032E+02  0.51100000000E-03 0. -1.
        -11    1    4    4    0    0 -0.12926740221E+02 -0.14820776379E+02 -0.25867395929E+02  0.32494279460E+02  0.51100000000E-03 0.  1.
        -12    1    4    4    0    0  0.57204334383E+01  0.75746436177E+01 -0.41933281780E+01  0.10377022013E+02  0.00000000000E+00 0.  1.
</event>
<event>
 8    1  0.2558382E-006  0.9118800E+02  0.7816164E-02  0.1184000E+00
        -11   -1    0    0    0    0  0.00000000000E+00  0.00000000000E+00  0.45593999997E+02  0.45594000000E+02  0.51100000000E-03 0.  1.
         11   -1    0    0    0    0 -0.00000000000E+00 -0.00000000000E+00 -0.45593999997E+02  0.45594000000E+02  0.51100000000E-03 0. -1.
         23    2    1    2    0    0 -0.44408920985E-15  0.17763568394E-14  0.00000000000E+00  0.91188000000E+02  0.91188000000E+02 0.  0.
    9900012    2    3    3    0    0 -0.19312049525E+01 -0.90135790515E+01  0.35648364002E+02  0.54367081816E+02  0.39999994615E+02 0.  0.
         12    1    3    3    0    0  0.19312049525E+01  0.90135790515E+01 -0.35648364002E+02  0.36820918184E+02  0.00000000000E+00 0. -1.
         11    1    4    4    0    0 -0.53611254583E+01 -0.10254277166E+02 -0.55428040590E+01  0.12830219931E+02  0.51100000000E-03 0. -1.
        -11    1    4    4    0    0  0.27713034713E+01  0.26071306780E+01  0.31212872884E+02  0.31443929259E+02  0.51100000000E-03 0.  1.
         12    1    4    4    0    0  0.65861703448E+00 -0.13664325637E+01  0.99782951772E+01  0.10092932626E+02  0.00000000000E+00 0. -1.
</event>
<event>
 8    1  0.2558382E-006  0.9118800E+02  0.7816164E-02  0.1184000E+00
        -11   -1    0    0    0    0  0.00000000000E+00  0.00000000000E+00  0.45593999997E+02  0.45594000000E+02  0.51100000000E-03 0.  1.
         11   -1    0    0    0    0 -0.00000000000E+00 -0.00000000000E+00 -0.45593999997E+02  0.45594000000E+02  0.51100000000E-03 0. -1.
         23    2    1    2    0    0 -0.35527136788E-14 -0.35527136788E-14  0.00000000000E+00  0.91188000000E+02  0.91188000000E+02 0.  0.
    9900012    2    3    3    0    0 -0.28328258072E+02 -0.15951921527E+02  0.17286354727E+02  0.54367189776E+02  0.40000240732E+02 0.  0.
         12    1    3    3    0    0  0.28328258072E+02  0.15951921527E+02 -0.17286354727E+02  0.36820810224E+02  0.00000000000E+00 0. -1.
         11    1    4    4    0    0 -0.13398247104E+02 -0.78165122088E+01  0.15378092202E+02  0.21842541258E+02  0.51100000000E-03 0. -1.
        -11    1    4    4    0    0 -0.10853718493E+02 -0.15793070179E+02  0.91395043900E+01  0.21230987061E+02  0.51100000000E-03 0.  1.
         12    1    4    4    0    0 -0.40762924753E+01  0.76576608612E+01 -0.72312418650E+01  0.11293661458E+02  0.00000000000E+00 0. -1.
</event>
<event>
 8    1  0.2558382E-006  0.9118800E+02  0.7816164E-02  0.1184000E+00
        -11   -1    0    0    0    0  0.00000000000E+00  0.00000000000E+00  0.45593999997E+02  0.45594000000E+02  0.51100000000E-03 0.  1.
         11   -1    0    0    0    0 -0.00000000000E+00 -0.00000000000E+00 -0.45593999997E+02  0.45594000000E+02  0.51100000000E-03 0. -1.
         23    2    1    2    0    0  0.00000000000E+00  0.00000000000E+00  0.35527136788E-14  0.91188000000E+02  0.91188000000E+02 0.  0.
    9900012    2    3    3    0    0  0.26331632858E+02  0.12502939747E+02 -0.22496682812E+02  0.54367093861E+02  0.40000022076E+02 0.  0.
        -12    1    3    3    0    0 -0.26331632858E+02 -0.12502939747E+02  0.22496682812E+02  0.36820906139E+02  0.00000000000E+00 0.  1.
         11    1    4    4    0    0  0.16992981878E+02 -0.44574436515E+01 -0.18798185795E+02  0.25729400041E+02  0.51100000000E-03 0. -1.
        -11    1    4    4    0    0  0.52893300179E+00  0.12764246806E+02 -0.10670175198E+02  0.16645071513E+02  0.51100000000E-03 0.  1.
         12    1    4    4    0    0  0.88097179790E+01  0.41961365927E+01  0.69716781806E+01  0.11992622308E+02  0.00000000000E+00 0. -1.
</event>
<event>
 8    1  0.2558382E-006  0.9118800E+02  0.7816164E-02  0.1184000E+00
        -11   -1    0    0    0    0  0.00000000000E+00  0.00000000000E+00  0.45593999997E+02  0.45594000000E+02  0.51100000000E-03 0. -1.
         11   -1    0    0    0    0 -0.00000000000E+00 -0.00000000000E+00 -0.45593999997E+02  0.45594000000E+02  0.51100000000E-03 0.  1.
         23    2    1    2    0    0  0.00000000000E+00  0.00000000000E+00  0.00000000000E+00  0.91188000000E+02  0.91188000000E+02 0.  0.
    9900012    2    3    3    0    0  0.18840601931E+02 -0.25646039791E+02  0.18522761107E+02  0.54367077726E+02  0.39999985292E+02 0.  0.
        -12    1    3    3    0    0 -0.18840601931E+02  0.25646039791E+02 -0.18522761107E+02  0.36820922274E+02  0.00000000000E+00 0.  1.
         11    1    4    4    0    0  0.23114054140E+02 -0.17886759019E+02 -0.13274466435E+01  0.29256755833E+02  0.51100000000E-03 0. -1.
        -11    1    4    4    0    0 -0.21040361982E+01 -0.11084576901E+02  0.16014424203E+02  0.19589706385E+02  0.51100000000E-03 0.  1.
         12    1    4    4    0    0 -0.21694160115E+01  0.33252961292E+01  0.38357835472E+01  0.55206155091E+01  0.00000000000E+00 0. -1.
</event>
<event>
 8    1  0.2558382E-006  0.9118800E+02  0.7816164E-02  0.1184000E+00
        -11   -1    0    0    0    0  0.00000000000E+00  0.00000000000E+00  0.45593999997E+02  0.45594000000E+02  0.51100000000E-03 0. -1.
         11   -1    0    0    0    0 -0.00000000000E+00 -0.00000000000E+00 -0.45593999997E+02  0.45594000000E+02  0.51100000000E-03 0.  1.
         23    2    1    2    0    0  0.00000000000E+00 -0.17763568394E-14 -0.66613381478E-15  0.91188000000E+02  0.91188000000E+02 0.  0.
    9900012    2    3    3    0    0  0.35958043406E+02 -0.77788615311E+01 -0.15126668842E+01  0.54367085652E+02  0.40000003362E+02 0.  0.
         12    1    3    3    0    0 -0.35958043406E+02  0.77788615311E+01  0.15126668842E+01  0.36820914348E+02  0.00000000000E+00 0. -1.
         11    1    4    4    0    0  0.27023489611E+02 -0.16853523293E+02  0.71022965654E+01  0.32630550944E+02  0.51100000000E-03 0. -1.
        -11    1    4    4    0    0  0.29435701716E+01 -0.43261378550E+01 -0.16317722869E+01  0.54811271790E+01  0.51100000000E-03 0.  1.
         12    1    4    4    0    0  0.59909836229E+01  0.13400799617E+02 -0.69831911628E+01  0.16255407529E+02  0.00000000000E+00 0. -1.
</event>
<event>
 8    1  0.2558382E-006  0.9118800E+02  0.7816164E-02  0.1184000E+00
        -11   -1    0    0    0    0  0.00000000000E+00  0.00000000000E+00  0.45593999997E+02  0.45594000000E+02  0.51100000000E-03 0.  1.
         11   -1    0    0    0    0 -0.00000000000E+00 -0.00000000000E+00 -0.45593999997E+02  0.45594000000E+02  0.51100000000E-03 0. -1.
         23    2    1    2    0    0 -0.17763568394E-14 -0.35527136788E-14  0.35527136788E-14  0.91188000000E+02  0.91188000000E+02 0.  0.
    9900012    2    3    3    0    0 -0.12206985396E+02 -0.25783653027E+02 -0.23280290187E+02  0.54367093343E+02  0.40000020894E+02 0.  0.
        -12    1    3    3    0    0  0.12206985396E+02  0.25783653027E+02  0.23280290187E+02  0.36820906657E+02  0.00000000000E+00 0.  1.
         11    1    4    4    0    0 -0.15644766849E+02 -0.19846975289E+02 -0.25764055627E+02  0.36089440568E+02  0.51100000000E-03 0. -1.
        -11    1    4    4    0    0  0.11027905162E+01 -0.60774654444E+01 -0.65163193058E+01  0.89785383391E+01  0.51100000000E-03 0.  1.
        -12    1    4    4    0    0  0.23349909368E+01  0.14078770576E+00  0.90000847464E+01  0.92991144361E+01  0.00000000000E+00 0.  1.
</event>
<event>
 8    1  0.2558382E-006  0.9118800E+02  0.7816164E-02  0.1184000E+00
        -11   -1    0    0    0    0  0.00000000000E+00  0.00000000000E+00  0.45593999997E+02  0.45594000000E+02  0.51100000000E-03 0.  1.
         11   -1    0    0    0    0 -0.00000000000E+00 -0.00000000000E+00 -0.45593999997E+02  0.45594000000E+02  0.51100000000E-03 0. -1.
         23    2    1    2    0    0 -0.17763568394E-14 -0.17763568394E-14  0.00000000000E+00  0.91188000000E+02  0.91188000000E+02 0.  0.
    9900012    2    3    3    0    0  0.97398636207E+01 -0.11406968872E+02  0.33627306922E+02  0.54367086743E+02  0.40000005848E+02 0.  0.
         12    1    3    3    0    0 -0.97398636207E+01  0.11406968872E+02 -0.33627306922E+02  0.36820913257E+02  0.00000000000E+00 0. -1.
         11    1    4    4    0    0  0.18265017759E+02 -0.66603794767E+01  0.60034703152E+01  0.20347313940E+02  0.51100000000E-03 0. -1.
        -11    1    4    4    0    0 -0.84867605812E+01  0.50816323828E+01  0.15843820225E+02  0.18678188681E+02  0.51100000000E-03 0.  1.
        -12    1    4    4    0    0 -0.38393556760E-01 -0.98282217785E+01  0.11780016383E+02  0.15341584122E+02  0.00000000000E+00 0.  1.
</event>
<event>
 8    1  0.2558382E-006  0.9118800E+02  0.7816164E-02  0.1184000E+00
        -11   -1    0    0    0    0  0.00000000000E+00  0.00000000000E+00  0.45593999997E+02  0.45594000000E+02  0.51100000000E-03 0.  1.
         11   -1    0    0    0    0 -0.00000000000E+00 -0.00000000000E+00 -0.45593999997E+02  0.45594000000E+02  0.51100000000E-03 0. -1.
         23    2    1    2    0    0  0.17763568394E-14  0.00000000000E+00  0.00000000000E+00  0.91188000000E+02  0.91188000000E+02 0.  0.
    9900012    2    3    3    0    0 -0.11988100287E+02  0.32860619990E+02  0.11499792705E+02  0.54367080310E+02  0.39999991182E+02 0.  0.
         12    1    3    3    0    0  0.11988100287E+02 -0.32860619990E+02 -0.11499792705E+02  0.36820919690E+02  0.00000000000E+00 0. -1.
         11    1    4    4    0    0  0.10901556296E+02  0.70485179048E+01  0.11024620920E+01  0.13028467187E+02  0.51100000000E-03 0. -1.
        -11    1    4    4    0    0 -0.59867849394E+01  0.22217580773E+01  0.10532852559E+02  0.12317417999E+02  0.51100000000E-03 0.  1.
         12    1    4    4    0    0 -0.16902871643E+02  0.23590344008E+02 -0.13552194651E+00  0.29021195123E+02  0.00000000000E+00 0. -1.
</event>
<event>
 8    1  0.2558382E-006  0.9118800E+02  0.7816164E-02  0.1184000E+00
        -11   -1    0    0    0    0  0.00000000000E+00  0.00000000000E+00  0.45593999997E+02  0.45594000000E+02  0.51100000000E-03 0.  1.
         11   -1    0    0    0    0 -0.00000000000E+00 -0.00000000000E+00 -0.45593999997E+02  0.45594000000E+02  0.51100000000E-03 0. -1.
         23    2    1    2    0    0 -0.35527136788E-14  0.00000000000E+00  0.00000000000E+00  0.91188000000E+02  0.91188000000E+02 0.  0.
    9900012    2    3    3    0    0 -0.20172807011E+02 -0.29345503551E+02 -0.93637068292E+01  0.54367085740E+02  0.40000003561E+02 0.  0.
         12    1    3    3    0    0  0.20172807011E+02  0.29345503551E+02  0.93637068292E+01  0.36820914260E+02  0.00000000000E+00 0. -1.
         11    1    4    4    0    0  0.15681350383E+01  0.61740260798E+00 -0.12231428527E+02  0.12346986578E+02  0.51100000000E-03 0. -1.
        -11    1    4    4    0    0 -0.67574870336E+01 -0.22522164915E+02  0.74651074548E+01  0.24670617606E+02  0.51100000000E-03 0.  1.
         12    1    4    4    0    0 -0.14983455016E+02 -0.74407412438E+01 -0.45973857565E+01  0.17349481556E+02  0.00000000000E+00 0. -1.
</event>
<event>
 8    1  0.2558382E-006  0.9118800E+02  0.7816164E-02  0.1184000E+00
        -11   -1    0    0    0    0  0.00000000000E+00  0.00000000000E+00  0.45593999997E+02  0.45594000000E+02  0.51100000000E-03 0. -1.
         11   -1    0    0    0    0 -0.00000000000E+00 -0.00000000000E+00 -0.45593999997E+02  0.45594000000E+02  0.51100000000E-03 0.  1.
         23    2    1    2    0    0  0.00000000000E+00  0.88817841970E-15  0.00000000000E+00  0.91188000000E+02  0.91188000000E+02 0.  0.
    9900012    2    3    3    0    0  0.32024790792E+02 -0.63729039518E+01  0.17017071973E+02  0.54367056659E+02  0.39999937265E+02 0.  0.
        -12    1    3    3    0    0 -0.32024790792E+02  0.63729039518E+01 -0.17017071973E+02  0.36820943341E+02  0.00000000000E+00 0.  1.
         11    1    4    4    0    0  0.26722679430E+01 -0.29859742177E+01 -0.30973112463E+01  0.50646219213E+01  0.51100000000E-03 0. -1.
        -11    1    4    4    0    0 -0.60438147955E+01 -0.61978408340E+01  0.34844219125E+00  0.86638525211E+01  0.51100000000E-03 0.  1.
         12    1    4    4    0    0  0.35396337644E+02  0.28109111000E+01  0.19765941028E+02  0.40638582216E+02  0.00000000000E+00 0. -1.
</event>
<event>
 8    1  0.2558382E-006  0.9118800E+02  0.7816164E-02  0.1184000E+00
        -11   -1    0    0    0    0  0.00000000000E+00  0.00000000000E+00  0.45593999997E+02  0.45594000000E+02  0.51100000000E-03 0.  1.
         11   -1    0    0    0    0 -0.00000000000E+00 -0.00000000000E+00 -0.45593999997E+02  0.45594000000E+02  0.51100000000E-03 0. -1.
         23    2    1    2    0    0 -0.88817841970E-15  0.00000000000E+00  0.00000000000E+00  0.91188000000E+02  0.91188000000E+02 0.  0.
    9900012    2    3    3    0    0  0.52962908108E+01 -0.30151168479E+02 -0.20460666287E+02  0.54367047786E+02  0.39999917038E+02 0.  0.
         12    1    3    3    0    0 -0.52962908108E+01  0.30151168479E+02  0.20460666287E+02  0.36820952214E+02  0.00000000000E+00 0. -1.
         11    1    4    4    0    0 -0.19934085920E+01  0.17643449969E+01 -0.10617681887E+02  0.10946312621E+02  0.51100000000E-03 0. -1.
        -11    1    4    4    0    0  0.30233572063E+01 -0.26379762451E+02  0.49958812461E+01  0.27018352752E+02  0.51100000000E-03 0.  1.
        -12    1    4    4    0    0  0.42663421965E+01 -0.55357510254E+01 -0.14838865646E+02  0.16402382413E+02  0.00000000000E+00 0.  1.
</event>
<event>
 8    1  0.2558382E-006  0.9118800E+02  0.7816164E-02  0.1184000E+00
        -11   -1    0    0    0    0  0.00000000000E+00  0.00000000000E+00  0.45593999997E+02  0.45594000000E+02  0.51100000000E-03 0.  1.
         11   -1    0    0    0    0 -0.00000000000E+00 -0.00000000000E+00 -0.45593999997E+02  0.45594000000E+02  0.51100000000E-03 0. -1.
         23    2    1    2    0    0  0.44408920985E-15 -0.17763568394E-14  0.00000000000E+00  0.91188000000E+02  0.91188000000E+02 0.  0.
    9900012    2    3    3    0    0 -0.21080643907E+01  0.13169416285E+02  0.34320600245E+02  0.54367067612E+02  0.39999962235E+02 0.  0.
         12    1    3    3    0    0  0.21080643907E+01 -0.13169416285E+02 -0.34320600245E+02  0.36820932388E+02  0.00000000000E+00 0. -1.
         11    1    4    4    0    0  0.96683459731E+01  0.91392191450E+01  0.20349333232E+02  0.24312498919E+02  0.51100000000E-03 0. -1.
        -11    1    4    4    0    0 -0.13791996248E+02  0.10417780076E+02  0.15463846688E+02  0.23192236996E+02  0.51100000000E-03 0.  1.
        -12    1    4    4    0    0  0.20155858844E+01 -0.63875829367E+01 -0.14925796754E+01  0.68623316969E+01  0.00000000000E+00 0.  1.
</event>
<event>
 8    1  0.2558382E-006  0.9118800E+02  0.7816164E-02  0.1184000E+00
        -11   -1    0    0    0    0  0.00000000000E+00  0.00000000000E+00  0.45593999997E+02  0.45594000000E+02  0.51100000000E-03 0. -1.
         11   -1    0    0    0    0 -0.00000000000E+00 -0.00000000000E+00 -0.45593999997E+02  0.45594000000E+02  0.51100000000E-03 0.  1.
         23    2    1    2    0    0  0.31086244690E-14 -0.17763568394E-14  0.00000000000E+00  0.91188000000E+02  0.91188000000E+02 0.  0.
    9900012    2    3    3    0    0 -0.23971023324E+01  0.90324039122E+01 -0.35615389111E+02  0.54366995647E+02  0.39999798176E+02 0.  0.
         12    1    3    3    0    0  0.23971023324E+01 -0.90324039122E+01  0.35615389111E+02  0.36821004353E+02  0.00000000000E+00 0. -1.
         11    1    4    4    0    0 -0.18176121336E+02  0.49022347005E+01 -0.13556540428E+02  0.23198773254E+02  0.51100000000E-03 0. -1.
        -11    1    4    4    0    0  0.72832321050E+01  0.24083618521E+01 -0.21094770361E+02  0.22446269480E+02  0.51100000000E-03 0.  1.
         12    1    4    4    0    0  0.84957868984E+01  0.17218073596E+01 -0.96407832209E+00  0.87219529131E+01  0.00000000000E+00 0. -1.
</event>
<event>
 8    1  0.2558382E-006  0.9118800E+02  0.7816164E-02  0.1184000E+00
        -11   -1    0    0    0    0  0.00000000000E+00  0.00000000000E+00  0.45593999997E+02  0.45594000000E+02  0.51100000000E-03 0.  1.
         11   -1    0    0    0    0 -0.00000000000E+00 -0.00000000000E+00 -0.45593999997E+02  0.45594000000E+02  0.51100000000E-03 0. -1.
         23    2    1    2    0    0 -0.17763568394E-14 -0.17763568394E-14  0.00000000000E+00  0.91188000000E+02  0.91188000000E+02 0.  0.
    9900012    2    3    3    0    0 -0.15318702076E+02 -0.13462424353E+02  0.30657445590E+02  0.54367102769E+02  0.40000042383E+02 0.  0.
         12    1    3    3    0    0  0.15318702076E+02  0.13462424353E+02 -0.30657445590E+02  0.36820897231E+02  0.00000000000E+00 0. -1.
         11    1    4    4    0    0  0.81832089701E+00 -0.22276897844E+02  0.10110922621E+02  0.24477756906E+02  0.51100000000E-03 0. -1.
        -11    1    4    4    0    0 -0.10341907142E+02  0.92308306643E+01  0.19593838568E+02  0.24001703859E+02  0.51100000000E-03 0.  1.
        -12    1    4    4    0    0 -0.57951158316E+01 -0.41635717393E+00  0.95268440131E+00  0.58876420039E+01  0.00000000000E+00 0.  1.
</event>
<event>
 8    1  0.2558382E-006  0.9118800E+02  0.7816164E-02  0.1184000E+00
        -11   -1    0    0    0    0  0.00000000000E+00  0.00000000000E+00  0.45593999997E+02  0.45594000000E+02  0.51100000000E-03 0. -1.
         11   -1    0    0    0    0 -0.00000000000E+00 -0.00000000000E+00 -0.45593999997E+02  0.45594000000E+02  0.51100000000E-03 0.  1.
         23    2    1    2    0    0  0.00000000000E+00  0.00000000000E+00 -0.17763568394E-14  0.91188000000E+02  0.91188000000E+02 0.  0.
    9900012    2    3    3    0    0 -0.31746841300E+02  0.12535310757E+02 -0.13812436453E+02  0.54367090872E+02  0.40000015260E+02 0.  0.
         12    1    3    3    0    0  0.31746841300E+02 -0.12535310757E+02  0.13812436453E+02  0.36820909128E+02  0.00000000000E+00 0. -1.
         11    1    4    4    0    0 -0.38635954498E+01 -0.14250475059E+01  0.74716408087E+01  0.85313273779E+01  0.51100000000E-03 0. -1.
        -11    1    4    4    0    0 -0.23672230805E+02  0.21147256752E+02 -0.13707313393E+02  0.34575589946E+02  0.51100000000E-03 0.  1.
        -12    1    4    4    0    0 -0.42110150452E+01 -0.71868984891E+01 -0.75767638687E+01  0.11260173548E+02  0.00000000000E+00 0.  1.
</event>
<event>
 8    1  0.2558382E-006  0.9118800E+02  0.7816164E-02  0.1184000E+00
        -11   -1    0    0    0    0  0.00000000000E+00  0.00000000000E+00  0.45593999997E+02  0.45594000000E+02  0.51100000000E-03 0.  1.
         11   -1    0    0    0    0 -0.00000000000E+00 -0.00000000000E+00 -0.45593999997E+02  0.45594000000E+02  0.51100000000E-03 0. -1.
         23    2    1    2    0    0  0.35527136788E-14  0.00000000000E+00  0.00000000000E+00  0.91188000000E+02  0.91188000000E+02 0.  0.
    9900012    2    3    3    0    0 -0.28064352276E+02 -0.85615351258E+01 -0.22245734249E+02  0.54367075994E+02  0.39999981343E+02 0.  0.
        -12    1    3    3    0    0  0.28064352276E+02  0.85615351258E+01  0.22245734249E+02  0.36820924006E+02  0.00000000000E+00 0.  1.
         11    1    4    4    0    0 -0.88936762627E+01 -0.81784117568E+01 -0.51265587144E+01  0.13124995270E+02  0.51100000000E-03 0. -1.
        -11    1    4    4    0    0 -0.13596527198E+01 -0.13546895932E+02 -0.62859091983E+00  0.13629459700E+02  0.51100000000E-03 0.  1.
        -12    1    4    4    0    0 -0.17811023294E+02  0.13163772563E+02 -0.16490584615E+02  0.27612621024E+02  0.00000000000E+00 0.  1.
</event>
<event>
 8    1  0.2558382E-006  0.9118800E+02  0.7816164E-02  0.1184000E+00
        -11   -1    0    0    0    0  0.00000000000E+00  0.00000000000E+00  0.45593999997E+02  0.45594000000E+02  0.51100000000E-03 0.  1.
         11   -1    0    0    0    0 -0.00000000000E+00 -0.00000000000E+00 -0.45593999997E+02  0.45594000000E+02  0.51100000000E-03 0. -1.
         23    2    1    2    0    0  0.17763568394E-14  0.71054273576E-14  0.35527136788E-14  0.91188000000E+02  0.91188000000E+02 0.  0.
    9900012    2    3    3    0    0 -0.10276578505E+02 -0.22099392505E+02 -0.27600507879E+02  0.54367092216E+02  0.40000018324E+02 0.  0.
        -12    1    3    3    0    0  0.10276578505E+02  0.22099392505E+02  0.27600507879E+02  0.36820907784E+02  0.00000000000E+00 0.  1.
         11    1    4    4    0    0 -0.13013544862E+02 -0.18584416937E+02 -0.17236598433E+02  0.28492687282E+02  0.51100000000E-03 0. -1.
        -11    1    4    4    0    0  0.30323839442E+01 -0.13436799998E+02 -0.57091309167E+01  0.14910973230E+02  0.51100000000E-03 0.  1.
        -12    1    4    4    0    0 -0.29541758773E+00  0.99218244299E+01 -0.46547785293E+01  0.10963431704E+02  0.00000000000E+00 0.  1.
</event>
<event>
 8    1  0.2558382E-006  0.9118800E+02  0.7816164E-02  0.1184000E+00
        -11   -1    0    0    0    0  0.00000000000E+00  0.00000000000E+00  0.45593999997E+02  0.45594000000E+02  0.51100000000E-03 0.  1.
         11   -1    0    0    0    0 -0.00000000000E+00 -0.00000000000E+00 -0.45593999997E+02  0.45594000000E+02  0.51100000000E-03 0. -1.
         23    2    1    2    0    0 -0.44408920985E-15 -0.35527136788E-14  0.35527136788E-14  0.91188000000E+02  0.91188000000E+02 0.  0.
    9900012    2    3    3    0    0 -0.18237425140E+01  0.30968285265E+02 -0.19834794367E+02  0.54367084794E+02  0.40000001405E+02 0.  0.
         12    1    3    3    0    0  0.18237425140E+01 -0.30968285265E+02  0.19834794367E+02  0.36820915206E+02  0.00000000000E+00 0. -1.
         11    1    4    4    0    0  0.16435548675E+01  0.67647931905E+01  0.80809541272E+01  0.10666092039E+02  0.51100000000E-03 0. -1.
        -11    1    4    4    0    0  0.52025054589E+01  0.45139752695E+01  0.17012978712E+01  0.70948185665E+01  0.51100000000E-03 0.  1.
         12    1    4    4    0    0 -0.86698028404E+01  0.19689516805E+02 -0.29617046366E+02  0.36606174189E+02  0.00000000000E+00 0. -1.
</event>
<event>
 8    1  0.2558382E-006  0.9118800E+02  0.7816164E-02  0.1184000E+00
        -11   -1    0    0    0    0  0.00000000000E+00  0.00000000000E+00  0.45593999997E+02  0.45594000000E+02  0.51100000000E-03 0.  1.
         11   -1    0    0    0    0 -0.00000000000E+00 -0.00000000000E+00 -0.45593999997E+02  0.45594000000E+02  0.51100000000E-03 0. -1.
         23    2    1    2    0    0  0.35527136788E-14  0.00000000000E+00  0.17763568394E-14  0.91188000000E+02  0.91188000000E+02 0.  0.
    9900012    2    3    3    0    0 -0.29419764248E+02  0.17074313546E+02 -0.14097108452E+02  0.54367038874E+02  0.39999896722E+02 0.  0.
        -12    1    3    3    0    0  0.29419764248E+02 -0.17074313546E+02  0.14097108452E+02  0.36820961126E+02  0.00000000000E+00 0.  1.
         11    1    4    4    0    0 -0.13332821932E+02  0.13149622846E+01  0.47585475210E+01  0.14217490680E+02  0.51100000000E-03 0. -1.
        -11    1    4    4    0    0 -0.97844709888E+00 -0.62554477339E+01  0.15805434683E+01  0.65258028619E+01  0.51100000000E-03 0.  1.
         12    1    4    4    0    0 -0.15108495218E+02  0.22014798996E+02 -0.20436199441E+02  0.33623745332E+02  0.00000000000E+00 0. -1.
</event>
<event>
 8    1  0.2558382E-006  0.9118800E+02  0.7816164E-02  0.1184000E+00
        -11   -1    0    0    0    0  0.00000000000E+00  0.00000000000E+00  0.45593999997E+02  0.45594000000E+02  0.51100000000E-03 0.  1.
         11   -1    0    0    0    0 -0.00000000000E+00 -0.00000000000E+00 -0.45593999997E+02  0.45594000000E+02  0.51100000000E-03 0. -1.
         23    2    1    2    0    0  0.35527136788E-14 -0.35527136788E-14  0.00000000000E+00  0.91188000000E+02  0.91188000000E+02 0.  0.
    9900012    2    3    3    0    0 -0.16246538119E+02  0.16585955265E+02 -0.28578588701E+02  0.54367086852E+02  0.40000006097E+02 0.  0.
        -12    1    3    3    0    0  0.16246538119E+02 -0.16585955265E+02  0.28578588701E+02  0.36820913148E+02  0.00000000000E+00 0.  1.
         11    1    4    4    0    0  0.20457896520E+01  0.16867858654E+02 -0.13879695269E+02  0.21939823425E+02  0.51100000000E-03 0. -1.
        -11    1    4    4    0    0 -0.16589464380E+02 -0.66455756348E+01 -0.17731666222E+02  0.25175106578E+02  0.51100000000E-03 0.  1.
        -12    1    4    4    0    0 -0.17028633908E+01  0.63636722457E+01  0.30327727902E+01  0.72521568499E+01  0.00000000000E+00 0.  1.
</event>
<event>
 8    1  0.2558382E-006  0.9118800E+02  0.7816164E-02  0.1184000E+00
        -11   -1    0    0    0    0  0.00000000000E+00  0.00000000000E+00  0.45593999997E+02  0.45594000000E+02  0.51100000000E-03 0.  1.
         11   -1    0    0    0    0 -0.00000000000E+00 -0.00000000000E+00 -0.45593999997E+02  0.45594000000E+02  0.51100000000E-03 0. -1.
         23    2    1    2    0    0  0.00000000000E+00  0.00000000000E+00  0.00000000000E+00  0.91188000000E+02  0.91188000000E+02 0.  0.
    9900012    2    3    3    0    0 -0.25904167671E+02 -0.24355019558E+02 -0.95701513432E+01  0.54367072837E+02  0.39999974147E+02 0.  0.
        -12    1    3    3    0    0  0.25904167671E+02  0.24355019558E+02  0.95701513432E+01  0.36820927163E+02  0.00000000000E+00 0.  1.
         11    1    4    4    0    0 -0.21954884949E+02 -0.26155494609E+02  0.20590192161E+01  0.34210618699E+02  0.51100000000E-03 0. -1.
        -11    1    4    4    0    0 -0.14375558011E+01 -0.68288108473E+01 -0.26859031160E+01  0.74775196475E+01  0.51100000000E-03 0.  1.
        -12    1    4    4    0    0 -0.25117269204E+01  0.86292858988E+01 -0.89432674433E+01  0.12678934490E+02  0.00000000000E+00 0.  1.
</event>
<event>
 8    1  0.2558382E-006  0.9118800E+02  0.7816164E-02  0.1184000E+00
        -11   -1    0    0    0    0  0.00000000000E+00  0.00000000000E+00  0.45593999997E+02  0.45594000000E+02  0.51100000000E-03 0. -1.
         11   -1    0    0    0    0 -0.00000000000E+00 -0.00000000000E+00 -0.45593999997E+02  0.45594000000E+02  0.51100000000E-03 0.  1.
         23    2    1    2    0    0 -0.17763568394E-14  0.00000000000E+00  0.00000000000E+00  0.91188000000E+02  0.91188000000E+02 0.  0.
    9900012    2    3    3    0    0 -0.11158137934E+02 -0.22141393411E+02 -0.27221944957E+02  0.54367087035E+02  0.40000006514E+02 0.  0.
        -12    1    3    3    0    0  0.11158137934E+02  0.22141393411E+02  0.27221944957E+02  0.36820912965E+02  0.00000000000E+00 0.  1.
         11    1    4    4    0    0 -0.20964234904E+01 -0.19352075222E+02 -0.30437143620E+01  0.19701827433E+02  0.51100000000E-03 0. -1.
        -11    1    4    4    0    0 -0.20021707173E+01 -0.12568085393E+02 -0.13554881308E+02  0.18593016580E+02  0.51100000000E-03 0.  1.
        -12    1    4    4    0    0 -0.70595437262E+01  0.97787672039E+01 -0.10623349287E+02  0.16072243021E+02  0.00000000000E+00 0.  1.
</event>
<event>
 8    1  0.2558382E-006  0.9118800E+02  0.7816164E-02  0.1184000E+00
        -11   -1    0    0    0    0  0.00000000000E+00  0.00000000000E+00  0.45593999997E+02  0.45594000000E+02  0.51100000000E-03 0. -1.
         11   -1    0    0    0    0 -0.00000000000E+00 -0.00000000000E+00 -0.45593999997E+02  0.45594000000E+02  0.51100000000E-03 0.  1.
         23    2    1    2    0    0 -0.17763568394E-14  0.35527136788E-14 -0.35527136788E-14  0.91188000000E+02  0.91188000000E+02 0.  0.
    9900012    2    3    3    0    0 -0.14710246529E+02 -0.15828117515E+02  0.29813647034E+02  0.54367160704E+02  0.40000174456E+02 0.  0.
        -12    1    3    3    0    0  0.14710246529E+02  0.15828117515E+02 -0.29813647034E+02  0.36820839296E+02  0.00000000000E+00 0.  1.
         11    1    4    4    0    0 -0.41080792253E+01  0.63855669144E+01  0.10247851766E+02  0.12754224626E+02  0.51100000000E-03 0. -1.
        -11    1    4    4    0    0 -0.10298673207E+02  0.19610749976E+01  0.12724416773E+02  0.16486942332E+02  0.51100000000E-03 0.  1.
        -12    1    4    4    0    0 -0.30349409614E+00 -0.24174759427E+02  0.68413784954E+01  0.25125993746E+02  0.00000000000E+00 0.  1.
</event>
<event>
 8    1  0.2558382E-006  0.9118800E+02  0.7816164E-02  0.1184000E+00
        -11   -1    0    0    0    0  0.00000000000E+00  0.00000000000E+00  0.45593999997E+02  0.45594000000E+02  0.51100000000E-03 0.  1.
         11   -1    0    0    0    0 -0.00000000000E+00 -0.00000000000E+00 -0.45593999997E+02  0.45594000000E+02  0.51100000000E-03 0. -1.
         23    2    1    2    0    0  0.17763568394E-14  0.00000000000E+00  0.14210854715E-13  0.91188000000E+02  0.91188000000E+02 0.  0.
    9900012    2    3    3    0    0 -0.80746408936E+01 -0.91450974470E+01 -0.34741095582E+02  0.54367131527E+02  0.40000107943E+02 0.  0.
        -12    1    3    3    0    0  0.80746408936E+01  0.91450974470E+01  0.34741095582E+02  0.36820868473E+02  0.00000000000E+00 0.  1.
         11    1    4    4    0    0 -0.64505957254E+01 -0.13260706243E+02 -0.40627415755E+02  0.43220867951E+02  0.51100000000E-03 0. -1.
        -11    1    4    4    0    0  0.32383145437E+01  0.39727200679E+00  0.13663711488E+01  0.35371565570E+01  0.51100000000E-03 0.  1.
        -12    1    4    4    0    0 -0.48623597120E+01  0.37183367890E+01  0.45199490245E+01  0.76091070192E+01  0.00000000000E+00 0.  1.
</event>
<event>
 8    1  0.2558382E-006  0.9118800E+02  0.7816164E-02  0.1184000E+00
        -11   -1    0    0    0    0  0.00000000000E+00  0.00000000000E+00  0.45593999997E+02  0.45594000000E+02  0.51100000000E-03 0. -1.
         11   -1    0    0    0    0 -0.00000000000E+00 -0.00000000000E+00 -0.45593999997E+02  0.45594000000E+02  0.51100000000E-03 0.  1.
         23    2    1    2    0    0  0.00000000000E+00  0.00000000000E+00  0.13322676296E-14  0.91188000000E+02  0.91188000000E+02 0.  0.
    9900012    2    3    3    0    0 -0.36733805198E+02  0.23621372008E+01  0.91000363282E+00  0.54367078731E+02  0.39999987583E+02 0.  0.
         12    1    3    3    0    0  0.36733805198E+02 -0.23621372008E+01 -0.91000363282E+00  0.36820921269E+02  0.00000000000E+00 0. -1.
         11    1    4    4    0    0  0.67407618957E+01 -0.57709669523E+01 -0.23508164371E+01  0.91797749799E+01  0.51100000000E-03 0. -1.
        -11    1    4    4    0    0 -0.21236540773E+02  0.28425061354E+01 -0.26165486200E+01  0.21585106719E+02  0.51100000000E-03 0.  1.
        -12    1    4    4    0    0 -0.22238026320E+02  0.52905980176E+01  0.58773686899E+01  0.23602197032E+02  0.00000000000E+00 0.  1.
</event>
<event>
 8    1  0.2558382E-006  0.9118800E+02  0.7816164E-02  0.1184000E+00
        -11   -1    0    0    0    0  0.00000000000E+00  0.00000000000E+00  0.45593999997E+02  0.45594000000E+02  0.51100000000E-03 0.  1.
         11   -1    0    0    0    0 -0.00000000000E+00 -0.00000000000E+00 -0.45593999997E+02  0.45594000000E+02  0.51100000000E-03 0. -1.
         23    2    1    2    0    0  0.17763568394E-14  0.00000000000E+00 -0.35527136788E-14  0.91188000000E+02  0.91188000000E+02 0.  0.
    9900012    2    3    3    0    0  0.13466352750E+02 -0.15408030113E+02 -0.30610854180E+02  0.54367157505E+02  0.40000167165E+02 0.  0.
        -12    1    3    3    0    0 -0.13466352750E+02  0.15408030113E+02  0.30610854180E+02  0.36820842495E+02  0.00000000000E+00 0.  1.
         11    1    4    4    0    0  0.13196542003E+02 -0.21013044862E+02 -0.20921955035E+02  0.32456509023E+02  0.51100000000E-03 0. -1.
        -11    1    4    4    0    0 -0.45537991465E+01  0.10354754602E+02 -0.10050000910E+02  0.15131442366E+02  0.51100000000E-03 0.  1.
         12    1    4    4    0    0  0.48236098935E+01 -0.47497398529E+01  0.36110176555E+00  0.67792061157E+01  0.00000000000E+00 0. -1.
</event>
<event>
 8    1  0.2558382E-006  0.9118800E+02  0.7816164E-02  0.1184000E+00
        -11   -1    0    0    0    0  0.00000000000E+00  0.00000000000E+00  0.45593999997E+02  0.45594000000E+02  0.51100000000E-03 0.  1.
         11   -1    0    0    0    0 -0.00000000000E+00 -0.00000000000E+00 -0.45593999997E+02  0.45594000000E+02  0.51100000000E-03 0. -1.
         23    2    1    2    0    0  0.35527136788E-14  0.00000000000E+00 -0.35527136788E-14  0.91188000000E+02  0.91188000000E+02 0.  0.
    9900012    2    3    3    0    0  0.26108564555E+02  0.56646512334E+01 -0.25338377928E+02  0.54367098154E+02  0.40000031862E+02 0.  0.
        -12    1    3    3    0    0 -0.26108564555E+02 -0.56646512334E+01  0.25338377928E+02  0.36820901846E+02  0.00000000000E+00 0.  1.
         11    1    4    4    0    0  0.72699590885E+01  0.15156988806E+02 -0.22414054689E+01  0.16959083512E+02  0.51100000000E-03 0. -1.
        -11    1    4    4    0    0  0.87350714475E+01 -0.24184543172E+01  0.21448861063E+01  0.93140179916E+01  0.51100000000E-03 0.  1.
         12    1    4    4    0    0  0.10103534019E+02 -0.70738832557E+01 -0.25241858565E+02  0.28093996651E+02  0.00000000000E+00 0. -1.
</event>
<event>
 8    1  0.2558382E-006  0.9118800E+02  0.7816164E-02  0.1184000E+00
        -11   -1    0    0    0    0  0.00000000000E+00  0.00000000000E+00  0.45593999997E+02  0.45594000000E+02  0.51100000000E-03 0.  1.
         11   -1    0    0    0    0 -0.00000000000E+00 -0.00000000000E+00 -0.45593999997E+02  0.45594000000E+02  0.51100000000E-03 0. -1.
         23    2    1    2    0    0 -0.35527136788E-14 -0.71054273576E-14  0.17763568394E-14  0.91188000000E+02  0.91188000000E+02 0.  0.
    9900012    2    3    3    0    0  0.13181452527E+02  0.33165098196E+02 -0.90610629102E+01  0.54367118830E+02  0.40000078997E+02 0.  0.
        -12    1    3    3    0    0 -0.13181452527E+02 -0.33165098196E+02  0.90610629102E+01  0.36820881170E+02  0.00000000000E+00 0.  1.
         11    1    4    4    0    0  0.19489041171E+02  0.12741839220E+02 -0.28815675075E+01  0.23462323501E+02  0.51100000000E-03 0. -1.
        -11    1    4    4    0    0  0.33103899103E+01  0.13189451773E-01 -0.76078756374E+01  0.82969046816E+01  0.51100000000E-03 0.  1.
        -12    1    4    4    0    0 -0.96179785543E+01  0.20410069524E+02  0.14283802348E+01  0.22607890648E+02  0.00000000000E+00 0.  1.
</event>
<event>
 8    1  0.2558382E-006  0.9118800E+02  0.7816164E-02  0.1184000E+00
        -11   -1    0    0    0    0  0.00000000000E+00  0.00000000000E+00  0.45593999997E+02  0.45594000000E+02  0.51100000000E-03 0.  1.
         11   -1    0    0    0    0 -0.00000000000E+00 -0.00000000000E+00 -0.45593999997E+02  0.45594000000E+02  0.51100000000E-03 0. -1.
         23    2    1    2    0    0  0.00000000000E+00  0.00000000000E+00  0.00000000000E+00  0.91188000000E+02  0.91188000000E+02 0.  0.
    9900012    2    3    3    0    0  0.19255491646E+02  0.10136293254E+02 -0.29702910971E+02  0.54367064113E+02  0.39999954259E+02 0.  0.
        -12    1    3    3    0    0 -0.19255491646E+02 -0.10136293254E+02  0.29702910971E+02  0.36820935887E+02  0.00000000000E+00 0.  1.
         11    1    4    4    0    0  0.15052885504E+02  0.16869469092E+02 -0.82507017104E+00  0.22624082092E+02  0.51100000000E-03 0. -1.
        -11    1    4    4    0    0  0.64016962461E+01 -0.29578825946E+01 -0.92324107112E+01  0.11617581163E+02  0.51100000000E-03 0.  1.
         12    1    4    4    0    0 -0.21990901045E+01 -0.37752932441E+01 -0.19645430088E+02  0.20125400859E+02  0.00000000000E+00 0. -1.
</event>
<event>
 8    1  0.2558382E-006  0.9118800E+02  0.7816164E-02  0.1184000E+00
        -11   -1    0    0    0    0  0.00000000000E+00  0.00000000000E+00  0.45593999997E+02  0.45594000000E+02  0.51100000000E-03 0.  1.
         11   -1    0    0    0    0 -0.00000000000E+00 -0.00000000000E+00 -0.45593999997E+02  0.45594000000E+02  0.51100000000E-03 0. -1.
         23    2    1    2    0    0 -0.35527136788E-14  0.00000000000E+00  0.35527136788E-14  0.91188000000E+02  0.91188000000E+02 0.  0.
    9900012    2    3    3    0    0 -0.22204375671E+02  0.79200329499E+01  0.28284567050E+02  0.54367109814E+02  0.40000058444E+02 0.  0.
         12    1    3    3    0    0  0.22204375671E+02 -0.79200329499E+01 -0.28284567050E+02  0.36820890186E+02  0.00000000000E+00 0. -1.
         11    1    4    4    0    0 -0.58068665825E+01  0.13024489293E+02  0.17753963425E+01  0.14370422864E+02  0.51100000000E-03 0. -1.
        -11    1    4    4    0    0 -0.10180018375E+02  0.60528450205E+01  0.15308019264E+01  0.11942071083E+02  0.51100000000E-03 0.  1.
         12    1    4    4    0    0 -0.62174907137E+01 -0.11157301364E+02  0.24978368781E+02  0.28054615867E+02  0.00000000000E+00 0. -1.
</event>
<event>
 8    1  0.2558382E-006  0.9118800E+02  0.7816164E-02  0.1184000E+00
        -11   -1    0    0    0    0  0.00000000000E+00  0.00000000000E+00  0.45593999997E+02  0.45594000000E+02  0.51100000000E-03 0.  1.
         11   -1    0    0    0    0 -0.00000000000E+00 -0.00000000000E+00 -0.45593999997E+02  0.45594000000E+02  0.51100000000E-03 0. -1.
         23    2    1    2    0    0  0.00000000000E+00  0.17208456882E-14  0.71054273576E-14  0.91188000000E+02  0.91188000000E+02 0.  0.
    9900012    2    3    3    0    0  0.89399918076E+01  0.27438788037E+00 -0.35718086648E+02  0.54367075840E+02  0.39999980992E+02 0.  0.
        -12    1    3    3    0    0 -0.89399918076E+01 -0.27438788037E+00  0.35718086648E+02  0.36820924160E+02  0.00000000000E+00 0.  1.
         11    1    4    4    0    0 -0.89976457494E+01  0.10915899247E+01 -0.11660513389E+02  0.14768776874E+02  0.51100000000E-03 0. -1.
        -11    1    4    4    0    0  0.13533530573E+02  0.52210709529E+01 -0.10425170169E+00  0.14506098729E+02  0.51100000000E-03 0.  1.
        -12    1    4    4    0    0  0.44041069844E+01 -0.60382729972E+01 -0.23953321557E+02  0.25092200237E+02  0.00000000000E+00 0.  1.
</event>
<event>
 8    1  0.2558382E-006  0.9118800E+02  0.7816164E-02  0.1184000E+00
        -11   -1    0    0    0    0  0.00000000000E+00  0.00000000000E+00  0.45593999997E+02  0.45594000000E+02  0.51100000000E-03 0.  1.
         11   -1    0    0    0    0 -0.00000000000E+00 -0.00000000000E+00 -0.45593999997E+02  0.45594000000E+02  0.51100000000E-03 0. -1.
         23    2    1    2    0    0  0.00000000000E+00  0.00000000000E+00  0.00000000000E+00  0.91188000000E+02  0.91188000000E+02 0.  0.
    9900012    2    3    3    0    0  0.26529180430E+02  0.17395368912E+02 -0.18691773029E+02  0.54367100326E+02  0.40000036812E+02 0.  0.
        -12    1    3    3    0    0 -0.26529180430E+02 -0.17395368912E+02  0.18691773029E+02  0.36820899674E+02  0.00000000000E+00 0.  1.
         11    1    4    4    0    0  0.77270150395E+01 -0.58585002662E+01 -0.66790642968E+01  0.11774493065E+02  0.51100000000E-03 0. -1.
        -11    1    4    4    0    0  0.32746377397E+01  0.24836948809E+02 -0.53218878158E+01  0.25610930648E+02  0.51100000000E-03 0.  1.
         12    1    4    4    0    0  0.15527527651E+02 -0.15830796307E+01 -0.66908209164E+01  0.16981676613E+02  0.00000000000E+00 0. -1.
</event>
<event>
 8    1  0.2558382E-006  0.9118800E+02  0.7816164E-02  0.1184000E+00
        -11   -1    0    0    0    0  0.00000000000E+00  0.00000000000E+00  0.45593999997E+02  0.45594000000E+02  0.51100000000E-03 0.  1.
         11   -1    0    0    0    0 -0.00000000000E+00 -0.00000000000E+00 -0.45593999997E+02  0.45594000000E+02  0.51100000000E-03 0. -1.
         23    2    1    2    0    0  0.88817841970E-15  0.00000000000E+00  0.71054273576E-14  0.91188000000E+02  0.91188000000E+02 0.  0.
    9900012    2    3    3    0    0  0.77581418313E+01 -0.14131990763E+02  0.33104042347E+02  0.54367088180E+02  0.40000009123E+02 0.  0.
         12    1    3    3    0    0 -0.77581418313E+01  0.14131990763E+02 -0.33104042347E+02  0.36820911820E+02  0.00000000000E+00 0. -1.
         11    1    4    4    0    0 -0.78486925703E+01  0.61966266512E+01  0.69623734921E+01  0.12185023669E+02  0.51100000000E-03 0. -1.
        -11    1    4    4    0    0  0.16370581983E+02 -0.63330387211E+01  0.20715308707E+02  0.27151930852E+02  0.51100000000E-03 0.  1.
         12    1    4    4    0    0 -0.76374758161E+00 -0.13995578693E+02  0.54263601472E+01  0.15030133658E+02  0.00000000000E+00 0. -1.
</event>
<event>
 8    1  0.2558382E-006  0.9118800E+02  0.7816164E-02  0.1184000E+00
        -11   -1    0    0    0    0  0.00000000000E+00  0.00000000000E+00  0.45593999997E+02  0.45594000000E+02  0.51100000000E-03 0.  1.
         11   -1    0    0    0    0 -0.00000000000E+00 -0.00000000000E+00 -0.45593999997E+02  0.45594000000E+02  0.51100000000E-03 0. -1.
         23    2    1    2    0    0 -0.17763568394E-14  0.44408920985E-15  0.00000000000E+00  0.91188000000E+02  0.91188000000E+02 0.  0.
    9900012    2    3    3    0    0  0.10539199873E+02 -0.34796289881E+01  0.35108341570E+02  0.54367106479E+02  0.40000050841E+02 0.  0.
         12    1    3    3    0    0 -0.10539199873E+02  0.34796289881E+01 -0.35108341570E+02  0.36820893521E+02  0.00000000000E+00 0. -1.
         11    1    4    4    0    0 -0.31190593945E+00  0.36289461658E+01  0.56371267919E+00  0.36856896010E+01  0.51100000000E-03 0. -1.
        -11    1    4    4    0    0 -0.83473480646E+01  0.69661574497E+01  0.20057515224E+02  0.22814676998E+02  0.51100000000E-03 0.  1.
         12    1    4    4    0    0  0.19198453877E+02 -0.14074732604E+02  0.14487113667E+02  0.27866739880E+02  0.00000000000E+00 0. -1.
</event>
<event>
 8    1  0.2558382E-006  0.9118800E+02  0.7816164E-02  0.1184000E+00
        -11   -1    0    0    0    0  0.00000000000E+00  0.00000000000E+00  0.45593999997E+02  0.45594000000E+02  0.51100000000E-03 0. -1.
         11   -1    0    0    0    0 -0.00000000000E+00 -0.00000000000E+00 -0.45593999997E+02  0.45594000000E+02  0.51100000000E-03 0.  1.
         23    2    1    2    0    0  0.35527136788E-14  0.00000000000E+00 -0.35527136788E-14  0.91188000000E+02  0.91188000000E+02 0.  0.
    9900012    2    3    3    0    0  0.18177886615E+02  0.19927688710E+02 -0.25064535740E+02  0.54367091661E+02  0.40000017058E+02 0.  0.
         12    1    3    3    0    0 -0.18177886615E+02 -0.19927688710E+02  0.25064535740E+02  0.36820908339E+02  0.00000000000E+00 0. -1.
         11    1    4    4    0    0  0.89101083174E+01 -0.33112323431E+01  0.39376682197E+01  0.10288805622E+02  0.51100000000E-03 0. -1.
        -11    1    4    4    0    0  0.42750119309E+01 -0.36809663160E+01 -0.67498319949E+01  0.87969012868E+01  0.51100000000E-03 0.  1.
        -12    1    4    4    0    0  0.49927663663E+01  0.26919887369E+02 -0.22252371964E+02  0.35281384752E+02  0.00000000000E+00 0.  1.
</event>
<event>
 8    1  0.2558382E-006  0.9118800E+02  0.7816164E-02  0.1184000E+00
        -11   -1    0    0    0    0  0.00000000000E+00  0.00000000000E+00  0.45593999997E+02  0.45594000000E+02  0.51100000000E-03 0.  1.
         11   -1    0    0    0    0 -0.00000000000E+00 -0.00000000000E+00 -0.45593999997E+02  0.45594000000E+02  0.51100000000E-03 0. -1.
         23    2    1    2    0    0  0.35527136788E-14  0.00000000000E+00  0.00000000000E+00  0.91188000000E+02  0.91188000000E+02 0.  0.
    9900012    2    3    3    0    0  0.24612963750E+02  0.22675443695E+02  0.15355939312E+02  0.54367100996E+02  0.40000038341E+02 0.  0.
         12    1    3    3    0    0 -0.24612963750E+02 -0.22675443695E+02 -0.15355939312E+02  0.36820899004E+02  0.00000000000E+00 0. -1.
         11    1    4    4    0    0  0.51764968491E+01 -0.72777970988E+00 -0.45441057117E+01  0.69263756695E+01  0.51100000000E-03 0. -1.
        -11    1    4    4    0    0  0.33351457259E+01  0.22587169547E+02  0.21343077239E+02  0.31254285649E+02  0.51100000000E-03 0.  1.
        -12    1    4    4    0    0  0.16101321175E+02  0.81605385760E+00 -0.14430322145E+01  0.16186439678E+02  0.00000000000E+00 0.  1.
</event>
<event>
 8    1  0.2558382E-006  0.9118800E+02  0.7816164E-02  0.1184000E+00
        -11   -1    0    0    0    0  0.00000000000E+00  0.00000000000E+00  0.45593999997E+02  0.45594000000E+02  0.51100000000E-03 0.  1.
         11   -1    0    0    0    0 -0.00000000000E+00 -0.00000000000E+00 -0.45593999997E+02  0.45594000000E+02  0.51100000000E-03 0. -1.
         23    2    1    2    0    0 -0.71054273576E-14  0.88817841970E-15  0.00000000000E+00  0.91188000000E+02  0.91188000000E+02 0.  0.
    9900012    2    3    3    0    0  0.23322644517E+02 -0.52653412159E+01 -0.28001972520E+02  0.54367081619E+02  0.39999994167E+02 0.  0.
        -12    1    3    3    0    0 -0.23322644517E+02  0.52653412159E+01  0.28001972520E+02  0.36820918381E+02  0.00000000000E+00 0.  1.
         11    1    4    4    0    0  0.23860863572E+01  0.11899876913E+01 -0.82543301689E+01  0.86742979893E+01  0.51100000000E-03 0.  1.
        -11    1    4    4    0    0  0.19747997409E+02 -0.12668399962E+01 -0.28946993437E+02  0.35064465126E+02  0.51100000000E-03 0. -1.
         12    1    4    4    0    0  0.11885607502E+01 -0.51884889110E+01  0.91993510853E+01  0.10628318504E+02  0.00000000000E+00 0. -1.
</event>
<event>
 8    1  0.2558382E-006  0.9118800E+02  0.7816164E-02  0.1184000E+00
        -11   -1    0    0    0    0  0.00000000000E+00  0.00000000000E+00  0.45593999997E+02  0.45594000000E+02  0.51100000000E-03 0.  1.
         11   -1    0    0    0    0 -0.00000000000E+00 -0.00000000000E+00 -0.45593999997E+02  0.45594000000E+02  0.51100000000E-03 0. -1.
         23    2    1    2    0    0 -0.35527136788E-14  0.00000000000E+00  0.00000000000E+00  0.91188000000E+02  0.91188000000E+02 0.  0.
    9900012    2    3    3    0    0  0.22804031391E+02 -0.11080835965E+02 -0.26701502937E+02  0.54367095170E+02  0.40000025059E+02 0.  0.
        -12    1    3    3    0    0 -0.22804031391E+02  0.11080835965E+02  0.26701502937E+02  0.36820904830E+02  0.00000000000E+00 0.  1.
         11    1    4    4    0    0 -0.32018234983E+01 -0.14976363276E+02 -0.18615703195E+02  0.24105757329E+02  0.51100000000E-03 0. -1.
        -11    1    4    4    0    0  0.89641522712E+00 -0.29521924617E+01 -0.14109348421E+01  0.33926004746E+01  0.51100000000E-03 0.  1.
         12    1    4    4    0    0  0.25109439663E+02  0.68477197729E+01 -0.66748649004E+01  0.26868737367E+02  0.00000000000E+00 0. -1.
</event>
<event>
 8    1  0.2558382E-006  0.9118800E+02  0.7816164E-02  0.1184000E+00
        -11   -1    0    0    0    0  0.00000000000E+00  0.00000000000E+00  0.45593999997E+02  0.45594000000E+02  0.51100000000E-03 0. -1.
         11   -1    0    0    0    0 -0.00000000000E+00 -0.00000000000E+00 -0.45593999997E+02  0.45594000000E+02  0.51100000000E-03 0.  1.
         23    2    1    2    0    0  0.35527136788E-14  0.00000000000E+00  0.00000000000E+00  0.91188000000E+02  0.91188000000E+02 0.  0.
    9900012    2    3    3    0    0 -0.26734945467E+02 -0.23879762082E+02 -0.84130380133E+01  0.54367088077E+02  0.40000008888E+02 0.  0.
        -12    1    3    3    0    0  0.26734945467E+02  0.23879762082E+02  0.84130380133E+01  0.36820911923E+02  0.00000000000E+00 0.  1.
         11    1    4    4    0    0 -0.98007248095E+01  0.61775425313E+01  0.21322422442E+01  0.11779757882E+02  0.51100000000E-03 0. -1.
        -11    1    4    4    0    0  0.34554231998E+01 -0.16014451631E+01 -0.62487503924E+01  0.73178861584E+01  0.51100000000E-03 0.  1.
         12    1    4    4    0    0 -0.20389643858E+02 -0.28455859451E+02 -0.42965298652E+01  0.35269444036E+02  0.00000000000E+00 0. -1.
</event>
<event>
 8    1  0.2558382E-006  0.9118800E+02  0.7816164E-02  0.1184000E+00
        -11   -1    0    0    0    0  0.00000000000E+00  0.00000000000E+00  0.45593999997E+02  0.45594000000E+02  0.51100000000E-03 0. -1.
         11   -1    0    0    0    0 -0.00000000000E+00 -0.00000000000E+00 -0.45593999997E+02  0.45594000000E+02  0.51100000000E-03 0.  1.
         23    2    1    2    0    0  0.00000000000E+00  0.14210854715E-13  0.00000000000E+00  0.91188000000E+02  0.91188000000E+02 0.  0.
    9900012    2    3    3    0    0  0.29407585114E+01 -0.35640058571E+02 -0.87704455075E+01  0.54367047406E+02  0.39999916171E+02 0.  0.
         12    1    3    3    0    0 -0.29407585114E+01  0.35640058571E+02  0.87704455075E+01  0.36820952594E+02  0.00000000000E+00 0. -1.
         11    1    4    4    0    0  0.19752306571E+01  0.40781101296E+01 -0.14049261748E+01  0.47440843369E+01  0.51100000000E-03 0. -1.
        -11    1    4    4    0    0  0.40091165756E+01 -0.10741328661E+01 -0.99421425854E+01  0.10773716934E+02  0.51100000000E-03 0.  1.
         12    1    4    4    0    0 -0.30435887213E+01 -0.38644035834E+02  0.25766232527E+01  0.38849246135E+02  0.00000000000E+00 0. -1.
</event>
<event>
 8    1  0.2558382E-006  0.9118800E+02  0.7816164E-02  0.1184000E+00
        -11   -1    0    0    0    0  0.00000000000E+00  0.00000000000E+00  0.45593999997E+02  0.45594000000E+02  0.51100000000E-03 0. -1.
         11   -1    0    0    0    0 -0.00000000000E+00 -0.00000000000E+00 -0.45593999997E+02  0.45594000000E+02  0.51100000000E-03 0.  1.
         23    2    1    2    0    0  0.00000000000E+00 -0.17763568394E-14  0.00000000000E+00  0.91188000000E+02  0.91188000000E+02 0.  0.
    9900012    2    3    3    0    0  0.35567076538E+02 -0.82903688006E+01  0.46938015072E+01  0.54367096686E+02  0.40000028514E+02 0.  0.
         12    1    3    3    0    0 -0.35567076538E+02  0.82903688006E+01 -0.46938015072E+01  0.36820903314E+02  0.00000000000E+00 0. -1.
         11    1    4    4    0    0  0.61728893172E+01  0.48165197526E+01 -0.10832320582E+02  0.13365724616E+02  0.51100000000E-03 0. -1.
        -11    1    4    4    0    0  0.79237880213E+01  0.69409807839E+00  0.13148800191E+02  0.15367470042E+02  0.51100000000E-03 0.  1.
        -12    1    4    4    0    0  0.21470399199E+02 -0.13800986632E+02  0.23773218979E+01  0.25633902028E+02  0.00000000000E+00 0.  1.
</event>
<event>
 8    1  0.2558382E-006  0.9118800E+02  0.7816164E-02  0.1184000E+00
        -11   -1    0    0    0    0  0.00000000000E+00  0.00000000000E+00  0.45593999997E+02  0.45594000000E+02  0.51100000000E-03 0.  1.
         11   -1    0    0    0    0 -0.00000000000E+00 -0.00000000000E+00 -0.45593999997E+02  0.45594000000E+02  0.51100000000E-03 0. -1.
         23    2    1    2    0    0 -0.35527136788E-14  0.00000000000E+00  0.13322676296E-14  0.91188000000E+02  0.91188000000E+02 0.  0.
    9900012    2    3    3    0    0  0.25113698087E+02  0.26842469390E+02  0.21370035642E+01  0.54367044298E+02  0.39999909087E+02 0.  0.
         12    1    3    3    0    0 -0.25113698087E+02 -0.26842469390E+02 -0.21370035642E+01  0.36820955702E+02  0.00000000000E+00 0. -1.
         11    1    4    4    0    0  0.21943848552E+02  0.10053838430E+02  0.30484965519E+01  0.24329107833E+02  0.51100000000E-03 0. -1.
        -11    1    4    4    0    0 -0.23507546546E+01  0.12911269522E+02  0.10482793913E+02  0.16796306040E+02  0.51100000000E-03 0.  1.
        -12    1    4    4    0    0  0.55206041894E+01  0.38773614382E+01 -0.11394286901E+02  0.13241630425E+02  0.00000000000E+00 0.  1.
</event>
<event>
 8    1  0.2558382E-006  0.9118800E+02  0.7816164E-02  0.1184000E+00
        -11   -1    0    0    0    0  0.00000000000E+00  0.00000000000E+00  0.45593999997E+02  0.45594000000E+02  0.51100000000E-03 0.  1.
         11   -1    0    0    0    0 -0.00000000000E+00 -0.00000000000E+00 -0.45593999997E+02  0.45594000000E+02  0.51100000000E-03 0. -1.
         23    2    1    2    0    0  0.00000000000E+00  0.00000000000E+00  0.71054273576E-14  0.91188000000E+02  0.91188000000E+02 0.  0.
    9900012    2    3    3    0    0  0.14301900102E+02 -0.19431562995E+02  0.27814556801E+02  0.54367088048E+02  0.40000008823E+02 0.  0.
         12    1    3    3    0    0 -0.14301900102E+02  0.19431562995E+02 -0.27814556801E+02  0.36820911952E+02  0.00000000000E+00 0. -1.
         11    1    4    4    0    0 -0.32259305281E+00 -0.92467028627E+01 -0.34808571997E+01  0.98854411745E+01  0.51100000000E-03 0. -1.
        -11    1    4    4    0    0  0.20210616377E+02 -0.66190973738E+01  0.12769558739E+02  0.24806110035E+02  0.51100000000E-03 0.  1.
         12    1    4    4    0    0 -0.55861232229E+01 -0.35657627582E+01  0.18525855262E+02  0.19675536839E+02  0.00000000000E+00 0. -1.
</event>
<event>
 8    1  0.2558382E-006  0.9118800E+02  0.7816164E-02  0.1184000E+00
        -11   -1    0    0    0    0  0.00000000000E+00  0.00000000000E+00  0.45593999997E+02  0.45594000000E+02  0.51100000000E-03 0. -1.
         11   -1    0    0    0    0 -0.00000000000E+00 -0.00000000000E+00 -0.45593999997E+02  0.45594000000E+02  0.51100000000E-03 0.  1.
         23    2    1    2    0    0  0.00000000000E+00  0.17763568394E-14  0.00000000000E+00  0.91188000000E+02  0.91188000000E+02 0.  0.
    9900012    2    3    3    0    0 -0.35598937261E+02 -0.87405400344E+01  0.34783513130E+01  0.54367077930E+02  0.39999985757E+02 0.  0.
        -12    1    3    3    0    0  0.35598937261E+02  0.87405400344E+01 -0.34783513130E+01  0.36820922070E+02  0.00000000000E+00 0.  1.
         11    1    4    4    0    0  0.10076223319E+01 -0.47194265183E+00  0.24449609236E+00  0.11392151819E+01  0.51100000000E-03 0. -1.
        -11    1    4    4    0    0 -0.22870889785E+01 -0.16855228018E+02 -0.30947357040E+01  0.17288923532E+02  0.51100000000E-03 0.  1.
         12    1    4    4    0    0 -0.34319470615E+02  0.85866306355E+01  0.63285909246E+01  0.35938939217E+02  0.00000000000E+00 0. -1.
</event>
<event>
 8    1  0.2558382E-006  0.9118800E+02  0.7816164E-02  0.1184000E+00
        -11   -1    0    0    0    0  0.00000000000E+00  0.00000000000E+00  0.45593999997E+02  0.45594000000E+02  0.51100000000E-03 0.  1.
         11   -1    0    0    0    0 -0.00000000000E+00 -0.00000000000E+00 -0.45593999997E+02  0.45594000000E+02  0.51100000000E-03 0. -1.
         23    2    1    2    0    0  0.35527136788E-14 -0.35527136788E-14  0.17763568394E-14  0.91188000000E+02  0.91188000000E+02 0.  0.
    9900012    2    3    3    0    0 -0.30606849934E+02  0.16058338308E+02 -0.12693697524E+02  0.54367089515E+02  0.40000012168E+02 0.  0.
        -12    1    3    3    0    0  0.30606849934E+02 -0.16058338308E+02  0.12693697524E+02  0.36820910485E+02  0.00000000000E+00 0.  1.
         11    1    4    4    0    0 -0.11002460318E+02  0.22032336632E+01  0.54666826531E+01  0.12481706258E+02  0.51100000000E-03 0. -1.
        -11    1    4    4    0    0 -0.16374148387E+02 -0.32064405951E+01  0.10175786212E+00  0.16685453294E+02  0.51100000000E-03 0.  1.
         12    1    4    4    0    0 -0.32302412284E+01  0.17061545240E+02 -0.18262138039E+02  0.25199929963E+02  0.00000000000E+00 0. -1.
</event>
<event>
 8    1  0.2558382E-006  0.9118800E+02  0.7816164E-02  0.1184000E+00
        -11   -1    0    0    0    0  0.00000000000E+00  0.00000000000E+00  0.45593999997E+02  0.45594000000E+02  0.51100000000E-03 0. -1.
         11   -1    0    0    0    0 -0.00000000000E+00 -0.00000000000E+00 -0.45593999997E+02  0.45594000000E+02  0.51100000000E-03 0.  1.
         23    2    1    2    0    0  0.00000000000E+00  0.88817841970E-15  0.00000000000E+00  0.91188000000E+02  0.91188000000E+02 0.  0.
    9900012    2    3    3    0    0 -0.36462687450E+02  0.43320251485E+01 -0.27360425421E+01  0.54367082755E+02  0.39999996757E+02 0.  0.
        -12    1    3    3    0    0  0.36462687450E+02 -0.43320251485E+01  0.27360425421E+01  0.36820917245E+02  0.00000000000E+00 0.  1.
         11    1    4    4    0    0 -0.10554593316E+02  0.49540740152E+01  0.65031205032E+01  0.13350388233E+02  0.51100000000E-03 0. -1.
        -11    1    4    4    0    0 -0.12728347982E+02 -0.11969634833E+02  0.53958989776E+01  0.18286572298E+02  0.51100000000E-03 0.  1.
        -12    1    4    4    0    0 -0.13179746152E+02  0.11347585967E+02 -0.14635062023E+02  0.22730122224E+02  0.00000000000E+00 0.  1.
</event>
<event>
 8    1  0.2558382E-006  0.9118800E+02  0.7816164E-02  0.1184000E+00
        -11   -1    0    0    0    0  0.00000000000E+00  0.00000000000E+00  0.45593999997E+02  0.45594000000E+02  0.51100000000E-03 0.  1.
         11   -1    0    0    0    0 -0.00000000000E+00 -0.00000000000E+00 -0.45593999997E+02  0.45594000000E+02  0.51100000000E-03 0. -1.
         23    2    1    2    0    0  0.00000000000E+00 -0.17763568394E-14 -0.35527136788E-14  0.91188000000E+02  0.91188000000E+02 0.  0.
    9900012    2    3    3    0    0  0.32047472715E+02  0.14909205208E+02  0.10317658222E+02  0.54367095902E+02  0.40000026729E+02 0.  0.
         12    1    3    3    0    0 -0.32047472715E+02 -0.14909205208E+02 -0.10317658222E+02  0.36820904098E+02  0.00000000000E+00 0. -1.
         11    1    4    4    0    0  0.11702630227E+02  0.13326775299E+02 -0.85243092247E+01  0.19677864267E+02  0.51100000000E-03 0. -1.
        -11    1    4    4    0    0  0.83402429139E+01  0.68521056234E+01 -0.10719979652E+01  0.10847127880E+02  0.51100000000E-03 0.  1.
        -12    1    4    4    0    0  0.12004599574E+02 -0.52696757138E+01  0.19913965412E+02  0.23842103756E+02  0.00000000000E+00 0.  1.
</event>
<event>
 8    1  0.2558382E-006  0.9118800E+02  0.7816164E-02  0.1184000E+00
        -11   -1    0    0    0    0  0.00000000000E+00  0.00000000000E+00  0.45593999997E+02  0.45594000000E+02  0.51100000000E-03 0. -1.
         11   -1    0    0    0    0 -0.00000000000E+00 -0.00000000000E+00 -0.45593999997E+02  0.45594000000E+02  0.51100000000E-03 0.  1.
         23    2    1    2    0    0  0.00000000000E+00  0.71054273576E-14  0.00000000000E+00  0.91188000000E+02  0.91188000000E+02 0.  0.
    9900012    2    3    3    0    0  0.11353727761E+02 -0.20006782896E+02 -0.28750684396E+02  0.54367077291E+02  0.39999984300E+02 0.  0.
         12    1    3    3    0    0 -0.11353727761E+02  0.20006782896E+02  0.28750684396E+02  0.36820922709E+02  0.00000000000E+00 0. -1.
         11    1    4    4    0    0  0.20552647944E+01  0.21431225489E+01 -0.16101951360E+02  0.16373451851E+02  0.51100000000E-03 0. -1.
        -11    1    4    4    0    0  0.14017068573E+02 -0.14988151739E+02 -0.18485450600E+02  0.27619463935E+02  0.51100000000E-03 0.  1.
         12    1    4    4    0    0 -0.47186056068E+01 -0.71617537060E+01  0.58367175640E+01  0.10374161505E+02  0.00000000000E+00 0. -1.
</event>
<event>
 8    1  0.2558382E-006  0.9118800E+02  0.7816164E-02  0.1184000E+00
        -11   -1    0    0    0    0  0.00000000000E+00  0.00000000000E+00  0.45593999997E+02  0.45594000000E+02  0.51100000000E-03 0.  1.
         11   -1    0    0    0    0 -0.00000000000E+00 -0.00000000000E+00 -0.45593999997E+02  0.45594000000E+02  0.51100000000E-03 0. -1.
         23    2    1    2    0    0 -0.26645352591E-14 -0.35527136788E-14  0.00000000000E+00  0.91188000000E+02  0.91188000000E+02 0.  0.
    9900012    2    3    3    0    0  0.34508292766E+01  0.29135506980E+02 -0.22248438956E+02  0.54367095263E+02  0.40000025271E+02 0.  0.
         12    1    3    3    0    0 -0.34508292766E+01 -0.29135506980E+02  0.22248438956E+02  0.36820904737E+02  0.00000000000E+00 0. -1.
         11    1    4    4    0    0  0.79609327601E+01  0.17607190130E+02 -0.11929098556E+02  0.22708874637E+02  0.51100000000E-03 0. -1.
        -11    1    4    4    0    0 -0.51963102429E+01  0.18196313034E+02  0.50035782246E+00  0.18930340895E+02  0.51100000000E-03 0.  1.
        -12    1    4    4    0    0  0.68620675940E+00 -0.66679961842E+01 -0.10819698222E+02  0.12727879731E+02  0.00000000000E+00 0.  1.
</event>
<event>
 8    1  0.2558382E-006  0.9118800E+02  0.7816164E-02  0.1184000E+00
        -11   -1    0    0    0    0  0.00000000000E+00  0.00000000000E+00  0.45593999997E+02  0.45594000000E+02  0.51100000000E-03 0.  1.
         11   -1    0    0    0    0 -0.00000000000E+00 -0.00000000000E+00 -0.45593999997E+02  0.45594000000E+02  0.51100000000E-03 0. -1.
         23    2    1    2    0    0  0.00000000000E+00  0.00000000000E+00 -0.44408920985E-15  0.91188000000E+02  0.91188000000E+02 0.  0.
    9900012    2    3    3    0    0  0.33400559291E+02 -0.15129093485E+02 -0.33605215891E+01  0.54367082901E+02  0.39999997090E+02 0.  0.
        -12    1    3    3    0    0 -0.33400559291E+02  0.15129093485E+02  0.33605215891E+01  0.36820917099E+02  0.00000000000E+00 0.  1.
         11    1    4    4    0    0 -0.60659313802E+00 -0.61706954680E+01  0.24699470720E+01  0.66742847252E+01  0.51100000000E-03 0. -1.
        -11    1    4    4    0    0 -0.52815652847E+01  0.23623696388E+01 -0.34500549788E+01  0.67363641369E+01  0.51100000000E-03 0.  1.
        -12    1    4    4    0    0  0.39288717714E+02 -0.11320767656E+02 -0.23804136823E+01  0.40956434039E+02  0.00000000000E+00 0.  1.
</event>
<event>
 8    1  0.2558382E-006  0.9118800E+02  0.7816164E-02  0.1184000E+00
        -11   -1    0    0    0    0  0.00000000000E+00  0.00000000000E+00  0.45593999997E+02  0.45594000000E+02  0.51100000000E-03 0.  1.
         11   -1    0    0    0    0 -0.00000000000E+00 -0.00000000000E+00 -0.45593999997E+02  0.45594000000E+02  0.51100000000E-03 0. -1.
         23    2    1    2    0    0  0.00000000000E+00 -0.17763568394E-14  0.00000000000E+00  0.91188000000E+02  0.91188000000E+02 0.  0.
    9900012    2    3    3    0    0  0.34166730602E+02 -0.13279460304E+02 -0.34737288724E+01  0.54367131756E+02  0.40000108464E+02 0.  0.
         12    1    3    3    0    0 -0.34166730602E+02  0.13279460304E+02  0.34737288724E+01  0.36820868244E+02  0.00000000000E+00 0. -1.
         11    1    4    4    0    0 -0.73254618313E+01 -0.35117984336E+01  0.44789407163E+00  0.81360757519E+01  0.51100000000E-03 0. -1.
        -11    1    4    4    0    0  0.11506889582E+02  0.50241545137E+01 -0.22351589521E+01  0.12753296524E+02  0.51100000000E-03 0.  1.
        -12    1    4    4    0    0  0.29985302851E+02 -0.14791816384E+02 -0.16864639919E+01  0.33477759480E+02  0.00000000000E+00 0.  1.
</event>
<event>
 8    1  0.2558382E-006  0.9118800E+02  0.7816164E-02  0.1184000E+00
        -11   -1    0    0    0    0  0.00000000000E+00  0.00000000000E+00  0.45593999997E+02  0.45594000000E+02  0.51100000000E-03 0.  1.
         11   -1    0    0    0    0 -0.00000000000E+00 -0.00000000000E+00 -0.45593999997E+02  0.45594000000E+02  0.51100000000E-03 0. -1.
         23    2    1    2    0    0  0.17763568394E-14  0.00000000000E+00  0.00000000000E+00  0.91188000000E+02  0.91188000000E+02 0.  0.
    9900012    2    3    3    0    0  0.67508422765E+01 -0.22432593133E+02  0.28407473959E+02  0.54367086339E+02  0.40000004927E+02 0.  0.
         12    1    3    3    0    0 -0.67508422765E+01  0.22432593133E+02 -0.28407473959E+02  0.36820913661E+02  0.00000000000E+00 0. -1.
         11    1    4    4    0    0 -0.14180906467E+01 -0.13052508025E+02 -0.52405184351E+01  0.14136547689E+02  0.51100000000E-03 0. -1.
        -11    1    4    4    0    0  0.11631457077E+02 -0.10617215926E+02  0.16968213372E+02  0.23150298768E+02  0.51100000000E-03 0.  1.
         12    1    4    4    0    0 -0.34625241544E+01  0.12371308186E+01  0.16679779022E+02  0.17080239881E+02  0.00000000000E+00 0. -1.
</event>
<event>
 8    1  0.2558382E-006  0.9118800E+02  0.7816164E-02  0.1184000E+00
        -11   -1    0    0    0    0  0.00000000000E+00  0.00000000000E+00  0.45593999997E+02  0.45594000000E+02  0.51100000000E-03 0. -1.
         11   -1    0    0    0    0 -0.00000000000E+00 -0.00000000000E+00 -0.45593999997E+02  0.45594000000E+02  0.51100000000E-03 0.  1.
         23    2    1    2    0    0 -0.17763568394E-14  0.17763568394E-14 -0.71054273576E-14  0.91188000000E+02  0.91188000000E+02 0.  0.
    9900012    2    3    3    0    0  0.99980596618E+01 -0.13164249062E+02 -0.32901530462E+02  0.54367226555E+02  0.40000324576E+02 0.  0.
         12    1    3    3    0    0 -0.99980596618E+01  0.13164249062E+02  0.32901530462E+02  0.36820773445E+02  0.00000000000E+00 0. -1.
         11    1    4    4    0    0  0.11951570752E+02 -0.39121685448E+01 -0.10827024087E+02  0.16594262774E+02  0.51100000000E-03 0. -1.
        -11    1    4    4    0    0 -0.40806174759E+01 -0.19309629226E+02 -0.18010609097E+02  0.26718818464E+02  0.51100000000E-03 0.  1.
         12    1    4    4    0    0  0.21271063853E+01  0.10057548709E+02 -0.40638972785E+01  0.11054145317E+02  0.00000000000E+00 0. -1.
</event>
<event>
 8    1  0.2558382E-006  0.9118800E+02  0.7816164E-02  0.1184000E+00
        -11   -1    0    0    0    0  0.00000000000E+00  0.00000000000E+00  0.45593999997E+02  0.45594000000E+02  0.51100000000E-03 0. -1.
         11   -1    0    0    0    0 -0.00000000000E+00 -0.00000000000E+00 -0.45593999997E+02  0.45594000000E+02  0.51100000000E-03 0.  1.
         23    2    1    2    0    0  0.17763568394E-14  0.44408920985E-15  0.71054273576E-14  0.91188000000E+02  0.91188000000E+02 0.  0.
    9900012    2    3    3    0    0  0.10771704754E+02  0.14912898182E+01  0.35178506682E+02  0.54367069797E+02  0.39999967216E+02 0.  0.
        -12    1    3    3    0    0 -0.10771704754E+02 -0.14912898182E+01 -0.35178506682E+02  0.36820930203E+02  0.00000000000E+00 0.  1.
         11    1    4    4    0    0  0.50451334896E+01 -0.52223924637E+01 -0.23584662665E+01  0.76347310604E+01  0.51100000000E-03 0.  1.
        -11    1    4    4    0    0 -0.61934312044E+01 -0.58248233477E+01  0.49511395744E+01  0.98387468949E+01  0.51100000000E-03 0. -1.
         12    1    4    4    0    0  0.11920002469E+02  0.12538505630E+02  0.32585833374E+02  0.36893591842E+02  0.00000000000E+00 0. -1.
</event>
<event>
 8    1  0.2558382E-006  0.9118800E+02  0.7816164E-02  0.1184000E+00
        -11   -1    0    0    0    0  0.00000000000E+00  0.00000000000E+00  0.45593999997E+02  0.45594000000E+02  0.51100000000E-03 0.  1.
         11   -1    0    0    0    0 -0.00000000000E+00 -0.00000000000E+00 -0.45593999997E+02  0.45594000000E+02  0.51100000000E-03 0. -1.
         23    2    1    2    0    0  0.00000000000E+00  0.35527136788E-14  0.00000000000E+00  0.91188000000E+02  0.91188000000E+02 0.  0.
    9900012    2    3    3    0    0  0.30656538028E+02  0.18691178207E+02 -0.81606795272E+01  0.54367079900E+02  0.39999990249E+02 0.  0.
        -12    1    3    3    0    0 -0.30656538028E+02 -0.18691178207E+02  0.81606795272E+01  0.36820920100E+02  0.00000000000E+00 0.  1.
         11    1    4    4    0    0  0.12409655142E+02 -0.68625621825E+01 -0.31954074483E+01  0.14536331363E+02  0.51100000000E-03 0. -1.
        -11    1    4    4    0    0  0.19941122429E+00  0.13283327967E+01 -0.92255793289E+01  0.93228508017E+01  0.51100000000E-03 0.  1.
        -12    1    4    4    0    0  0.18047471661E+02  0.24225407593E+02  0.42603072500E+01  0.30507897736E+02  0.00000000000E+00 0.  1.
</event>
<event>
 8    1  0.2558382E-006  0.9118800E+02  0.7816164E-02  0.1184000E+00
        -11   -1    0    0    0    0  0.00000000000E+00  0.00000000000E+00  0.45593999997E+02  0.45594000000E+02  0.51100000000E-03 0.  1.
         11   -1    0    0    0    0 -0.00000000000E+00 -0.00000000000E+00 -0.45593999997E+02  0.45594000000E+02  0.51100000000E-03 0. -1.
         23    2    1    2    0    0  0.17763568394E-14  0.00000000000E+00  0.00000000000E+00  0.91188000000E+02  0.91188000000E+02 0.  0.
    9900012    2    3    3    0    0  0.13663948908E+02 -0.34126919950E+02  0.21049366365E+01  0.54367069495E+02  0.39999966527E+02 0.  0.
        -12    1    3    3    0    0 -0.13663948908E+02  0.34126919950E+02 -0.21049366365E+01  0.36820930505E+02  0.00000000000E+00 0.  1.
         11    1    4    4    0    0  0.21977042405E+01  0.63530113286E+01  0.59674049986E+01  0.89889142586E+01  0.51100000000E-03 0.  1.
        -11    1    4    4    0    0  0.14813943793E+02 -0.36464631267E+02 -0.89967232013E+00  0.39369171628E+02  0.51100000000E-03 0. -1.
         12    1    4    4    0    0 -0.33476991256E+01 -0.40153000114E+01 -0.29627960419E+01  0.60089836082E+01  0.00000000000E+00 0. -1.
</event>
<event>
 8    1  0.2558382E-006  0.9118800E+02  0.7816164E-02  0.1184000E+00
        -11   -1    0    0    0    0  0.00000000000E+00  0.00000000000E+00  0.45593999997E+02  0.45594000000E+02  0.51100000000E-03 0.  1.
         11   -1    0    0    0    0 -0.00000000000E+00 -0.00000000000E+00 -0.45593999997E+02  0.45594000000E+02  0.51100000000E-03 0. -1.
         23    2    1    2    0    0  0.71054273576E-14  0.17763568394E-14  0.17763568394E-14  0.91188000000E+02  0.91188000000E+02 0.  0.
    9900012    2    3    3    0    0 -0.33922637722E+02 -0.10038905547E+02 -0.10210560792E+02  0.54367074885E+02  0.39999978815E+02 0.  0.
        -12    1    3    3    0    0  0.33922637722E+02  0.10038905547E+02  0.10210560792E+02  0.36820925115E+02  0.00000000000E+00 0.  1.
         11    1    4    4    0    0 -0.17312009143E+02  0.70381524362E+01 -0.56742292173E+01  0.19530441054E+02  0.51100000000E-03 0. -1.
        -11    1    4    4    0    0 -0.12757289186E+02 -0.19644166485E+02  0.52553416034E+01  0.24005422719E+02  0.51100000000E-03 0.  1.
        -12    1    4    4    0    0 -0.38533393925E+01  0.25671085011E+01 -0.97916731783E+01  0.10831211112E+02  0.00000000000E+00 0.  1.
</event>
<event>
 8    1  0.2558382E-006  0.9118800E+02  0.7816164E-02  0.1184000E+00
        -11   -1    0    0    0    0  0.00000000000E+00  0.00000000000E+00  0.45593999997E+02  0.45594000000E+02  0.51100000000E-03 0.  1.
         11   -1    0    0    0    0 -0.00000000000E+00 -0.00000000000E+00 -0.45593999997E+02  0.45594000000E+02  0.51100000000E-03 0. -1.
         23    2    1    2    0    0 -0.71054273576E-14  0.00000000000E+00  0.00000000000E+00  0.91188000000E+02  0.91188000000E+02 0.  0.
    9900012    2    3    3    0    0 -0.33959731584E+02  0.94768937120E+01 -0.10616241439E+02  0.54367089284E+02  0.40000011641E+02 0.  0.
        -12    1    3    3    0    0  0.33959731584E+02 -0.94768937120E+01  0.10616241439E+02  0.36820910716E+02  0.00000000000E+00 0.  1.
         11    1    4    4    0    0 -0.38909216459E+02  0.11976871156E+02 -0.14732015114E+02  0.43294397302E+02  0.51100000000E-03 0. -1.
        -11    1    4    4    0    0  0.55091929478E+01  0.28641074685E+00  0.56047240163E+01  0.78642335680E+01  0.51100000000E-03 0.  1.
        -12    1    4    4    0    0 -0.55970807253E+00 -0.27863881912E+01 -0.14889503410E+01  0.32084584143E+01  0.00000000000E+00 0.  1.
</event>
<event>
 8    1  0.2558382E-006  0.9118800E+02  0.7816164E-02  0.1184000E+00
        -11   -1    0    0    0    0  0.00000000000E+00  0.00000000000E+00  0.45593999997E+02  0.45594000000E+02  0.51100000000E-03 0.  1.
         11   -1    0    0    0    0 -0.00000000000E+00 -0.00000000000E+00 -0.45593999997E+02  0.45594000000E+02  0.51100000000E-03 0. -1.
         23    2    1    2    0    0 -0.35527136788E-14 -0.35527136788E-14  0.00000000000E+00  0.91188000000E+02  0.91188000000E+02 0.  0.
    9900012    2    3    3    0    0  0.28331900316E+02  0.17166363044E+02 -0.16074798686E+02  0.54367085448E+02  0.40000002895E+02 0.  0.
        -12    1    3    3    0    0 -0.28331900316E+02 -0.17166363044E+02  0.16074798686E+02  0.36820914552E+02  0.00000000000E+00 0.  1.
         11    1    4    4    0    0  0.77948990817E+01 -0.72971398669E+01 -0.11033008499E+02  0.15353695930E+02  0.51100000000E-03 0. -1.
        -11    1    4    4    0    0  0.23762941217E+02  0.15616027862E+02 -0.72420034355E+01  0.29342534238E+02  0.51100000000E-03 0.  1.
        -12    1    4    4    0    0 -0.32259399828E+01  0.88474750481E+01  0.22002132480E+01  0.96708552795E+01  0.00000000000E+00 0.  1.
</event>
<event>
 8    1  0.2558382E-006  0.9118800E+02  0.7816164E-02  0.1184000E+00
        -11   -1    0    0    0    0  0.00000000000E+00  0.00000000000E+00  0.45593999997E+02  0.45594000000E+02  0.51100000000E-03 0.  1.
         11   -1    0    0    0    0 -0.00000000000E+00 -0.00000000000E+00 -0.45593999997E+02  0.45594000000E+02  0.51100000000E-03 0. -1.
         23    2    1    2    0    0 -0.35527136788E-14  0.00000000000E+00  0.00000000000E+00  0.91188000000E+02  0.91188000000E+02 0.  0.
    9900012    2    3    3    0    0  0.14702218696E+02 -0.75608185048E+01  0.32900740027E+02  0.54367083317E+02  0.39999998039E+02 0.  0.
         12    1    3    3    0    0 -0.14702218696E+02  0.75608185048E+01 -0.32900740027E+02  0.36820916683E+02  0.00000000000E+00 0. -1.
         11    1    4    4    0    0  0.64736260374E+01 -0.45796297508E+01 -0.40671656171E+01  0.89119402570E+01  0.51100000000E-03 0. -1.
        -11    1    4    4    0    0 -0.55098183044E+01  0.51904983353E+01  0.34461357147E+01  0.83171643210E+01  0.51100000000E-03 0.  1.
        -12    1    4    4    0    0  0.13738410963E+02 -0.81716870894E+01  0.33521769929E+02  0.37137978739E+02  0.00000000000E+00 0.  1.
</event>
<event>
 8    1  0.2558382E-006  0.9118800E+02  0.7816164E-02  0.1184000E+00
        -11   -1    0    0    0    0  0.00000000000E+00  0.00000000000E+00  0.45593999997E+02  0.45594000000E+02  0.51100000000E-03 0.  1.
         11   -1    0    0    0    0 -0.00000000000E+00 -0.00000000000E+00 -0.45593999997E+02  0.45594000000E+02  0.51100000000E-03 0. -1.
         23    2    1    2    0    0  0.00000000000E+00 -0.35527136788E-14  0.00000000000E+00  0.91188000000E+02  0.91188000000E+02 0.  0.
    9900012    2    3    3    0    0 -0.19280487349E+02  0.26990241598E+02 -0.15986605166E+02  0.54367056521E+02  0.39999936951E+02 0.  0.
        -12    1    3    3    0    0  0.19280487349E+02 -0.26990241598E+02  0.15986605166E+02  0.36820943479E+02  0.00000000000E+00 0.  1.
         11    1    4    4    0    0 -0.70224807074E+01  0.44165351287E+01  0.35149741339E+01  0.90097758714E+01  0.51100000000E-03 0. -1.
        -11    1    4    4    0    0  0.63439548029E+01  0.20420290069E+02 -0.58058395503E+01  0.22157206101E+02  0.51100000000E-03 0.  1.
         12    1    4    4    0    0 -0.18601961444E+02  0.21534164006E+01 -0.13695739750E+02  0.23200074549E+02  0.00000000000E+00 0. -1.
</event>
<event>
 8    1  0.2558382E-006  0.9118800E+02  0.7816164E-02  0.1184000E+00
        -11   -1    0    0    0    0  0.00000000000E+00  0.00000000000E+00  0.45593999997E+02  0.45594000000E+02  0.51100000000E-03 0.  1.
         11   -1    0    0    0    0 -0.00000000000E+00 -0.00000000000E+00 -0.45593999997E+02  0.45594000000E+02  0.51100000000E-03 0. -1.
         23    2    1    2    0    0 -0.35527136788E-14  0.35527136788E-14 -0.53290705182E-14  0.91188000000E+02  0.91188000000E+02 0.  0.
    9900012    2    3    3    0    0 -0.28993361252E+02  0.18816140478E+02 -0.12693215094E+02  0.54367084088E+02  0.39999999796E+02 0.  0.
         12    1    3    3    0    0  0.28993361252E+02 -0.18816140478E+02  0.12693215094E+02  0.36820915912E+02  0.00000000000E+00 0. -1.
         11    1    4    4    0    0 -0.93507576846E+01  0.25479097410E+01 -0.19174238978E+02  0.21484411883E+02  0.51100000000E-03 0. -1.
        -11    1    4    4    0    0 -0.18684229377E+02  0.20528259647E+02  0.46367310145E+01  0.28142657058E+02  0.51100000000E-03 0.  1.
        -12    1    4    4    0    0 -0.95837419059E+00 -0.42600289106E+01  0.18442928686E+01  0.47400151469E+01  0.00000000000E+00 0.  1.
</event>
<event>
 8    1  0.2558382E-006  0.9118800E+02  0.7816164E-02  0.1184000E+00
        -11   -1    0    0    0    0  0.00000000000E+00  0.00000000000E+00  0.45593999997E+02  0.45594000000E+02  0.51100000000E-03 0.  1.
         11   -1    0    0    0    0 -0.00000000000E+00 -0.00000000000E+00 -0.45593999997E+02  0.45594000000E+02  0.51100000000E-03 0. -1.
         23    2    1    2    0    0  0.71054273576E-14  0.00000000000E+00  0.00000000000E+00  0.91188000000E+02  0.91188000000E+02 0.  0.
    9900012    2    3    3    0    0  0.35405809893E+02  0.43645361790E+01  0.91200657582E+01  0.54366862732E+02  0.39999495168E+02 0.  0.
        -12    1    3    3    0    0 -0.35405809893E+02 -0.43645361790E+01 -0.91200657582E+01  0.36821137268E+02  0.00000000000E+00 0.  1.
         11    1    4    4    0    0  0.30713040459E+01  0.35933991678E+01  0.10516022844E+02  0.11529621106E+02  0.51100000000E-03 0. -1.
        -11    1    4    4    0    0  0.16719331095E+02 -0.41855766103E+01  0.12551577281E+02  0.21321284585E+02  0.51100000000E-03 0.  1.
         12    1    4    4    0    0  0.15615174752E+02  0.49567136215E+01 -0.13947534368E+02  0.21515957041E+02  0.00000000000E+00 0. -1.
</event>
<event>
 8    1  0.2558382E-006  0.9118800E+02  0.7816164E-02  0.1184000E+00
        -11   -1    0    0    0    0  0.00000000000E+00  0.00000000000E+00  0.45593999997E+02  0.45594000000E+02  0.51100000000E-03 0.  1.
         11   -1    0    0    0    0 -0.00000000000E+00 -0.00000000000E+00 -0.45593999997E+02  0.45594000000E+02  0.51100000000E-03 0. -1.
         23    2    1    2    0    0  0.35527136788E-14  0.00000000000E+00  0.00000000000E+00  0.91188000000E+02  0.91188000000E+02 0.  0.
    9900012    2    3    3    0    0  0.22488943451E+02  0.26999528035E+02 -0.11003140631E+02  0.54366862112E+02  0.39999493753E+02 0.  0.
        -12    1    3    3    0    0 -0.22488943451E+02 -0.26999528035E+02  0.11003140631E+02  0.36821137888E+02  0.00000000000E+00 0.  1.
         11    1    4    4    0    0  0.16461429539E+02  0.17052600325E+02 -0.10395268334E+01  0.23724469575E+02  0.51100000000E-03 0. -1.
        -11    1    4    4    0    0  0.12972725444E+02 -0.11179639281E+01 -0.11647740731E+02  0.17470298029E+02  0.51100000000E-03 0.  1.
        -12    1    4    4    0    0 -0.69452115327E+01  0.11064891638E+02  0.16841269341E+01  0.13172094508E+02  0.00000000000E+00 0.  1.
</event>
<event>
 8    1  0.2558382E-006  0.9118800E+02  0.7816164E-02  0.1184000E+00
        -11   -1    0    0    0    0  0.00000000000E+00  0.00000000000E+00  0.45593999997E+02  0.45594000000E+02  0.51100000000E-03 0. -1.
         11   -1    0    0    0    0 -0.00000000000E+00 -0.00000000000E+00 -0.45593999997E+02  0.45594000000E+02  0.51100000000E-03 0.  1.
         23    2    1    2    0    0  0.53290705182E-14  0.35527136788E-14  0.00000000000E+00  0.91188000000E+02  0.91188000000E+02 0.  0.
    9900012    2    3    3    0    0  0.13352849613E+02 -0.20425935929E+02  0.27572833440E+02  0.54367101107E+02  0.40000038594E+02 0.  0.
        -12    1    3    3    0    0 -0.13352849613E+02  0.20425935929E+02 -0.27572833440E+02  0.36820898893E+02  0.00000000000E+00 0.  1.
         11    1    4    4    0    0  0.24449248005E+02 -0.76330570056E+01  0.18731049179E+02  0.31731395980E+02  0.51100000000E-03 0. -1.
        -11    1    4    4    0    0 -0.12020774250E+02 -0.53621099217E+01  0.41587618967E+01  0.13803859502E+02  0.51100000000E-03 0.  1.
        -12    1    4    4    0    0  0.92437585778E+00 -0.74307690018E+01  0.46830223647E+01  0.88318456255E+01  0.00000000000E+00 0.  1.
</event>
<event>
 8    1  0.2558382E-006  0.9118800E+02  0.7816164E-02  0.1184000E+00
        -11   -1    0    0    0    0  0.00000000000E+00  0.00000000000E+00  0.45593999997E+02  0.45594000000E+02  0.51100000000E-03 0.  1.
         11   -1    0    0    0    0 -0.00000000000E+00 -0.00000000000E+00 -0.45593999997E+02  0.45594000000E+02  0.51100000000E-03 0. -1.
         23    2    1    2    0    0  0.00000000000E+00  0.00000000000E+00  0.00000000000E+00  0.91188000000E+02  0.91188000000E+02 0.  0.
    9900012    2    3    3    0    0 -0.33976997854E+01 -0.31018144276E+02  0.19547630776E+02  0.54367088725E+02  0.40000010366E+02 0.  0.
         12    1    3    3    0    0  0.33976997854E+01  0.31018144276E+02 -0.19547630776E+02  0.36820911275E+02  0.00000000000E+00 0. -1.
         11    1    4    4    0    0 -0.37453070797E+01  0.16182254034E+01  0.11969416146E+02  0.12645667310E+02  0.51100000000E-03 0. -1.
        -11    1    4    4    0    0  0.48099039468E+01 -0.87333693847E+01  0.13415397028E+02  0.16714658072E+02  0.51100000000E-03 0.  1.
         12    1    4    4    0    0 -0.44622966524E+01 -0.23903000295E+02 -0.58371823978E+01  0.25006763342E+02  0.00000000000E+00 0. -1.
</event>
<event>
 8    1  0.2558382E-006  0.9118800E+02  0.7816164E-02  0.1184000E+00
        -11   -1    0    0    0    0  0.00000000000E+00  0.00000000000E+00  0.45593999997E+02  0.45594000000E+02  0.51100000000E-03 0. -1.
         11   -1    0    0    0    0 -0.00000000000E+00 -0.00000000000E+00 -0.45593999997E+02  0.45594000000E+02  0.51100000000E-03 0.  1.
         23    2    1    2    0    0  0.00000000000E+00  0.00000000000E+00  0.00000000000E+00  0.91188000000E+02  0.91188000000E+02 0.  0.
    9900012    2    3    3    0    0  0.19007423699E+02 -0.30665924806E+02  0.73551119743E+01  0.54367098707E+02  0.40000033122E+02 0.  0.
         12    1    3    3    0    0 -0.19007423699E+02  0.30665924806E+02 -0.73551119743E+01  0.36820901293E+02  0.00000000000E+00 0. -1.
         11    1    4    4    0    0  0.14871661732E+02 -0.22285998486E+02  0.50695607756E+00  0.26797183731E+02  0.51100000000E-03 0. -1.
        -11    1    4    4    0    0 -0.35225756854E+01 -0.14777717109E+02  0.85716171223E+01  0.17443109894E+02  0.51100000000E-03 0.  1.
         12    1    4    4    0    0  0.76583376523E+01  0.63977907887E+01 -0.17234612256E+01  0.10126805082E+02  0.00000000000E+00 0. -1.
</event>
<event>
 8    1  0.2558382E-006  0.9118800E+02  0.7816164E-02  0.1184000E+00
        -11   -1    0    0    0    0  0.00000000000E+00  0.00000000000E+00  0.45593999997E+02  0.45594000000E+02  0.51100000000E-03 0. -1.
         11   -1    0    0    0    0 -0.00000000000E+00 -0.00000000000E+00 -0.45593999997E+02  0.45594000000E+02  0.51100000000E-03 0.  1.
         23    2    1    2    0    0 -0.17763568394E-14  0.00000000000E+00  0.00000000000E+00  0.91188000000E+02  0.91188000000E+02 0.  0.
    9900012    2    3    3    0    0  0.12054314501E+02  0.25531493085E+02  0.23635092246E+02  0.54367065429E+02  0.39999957257E+02 0.  0.
        -12    1    3    3    0    0 -0.12054314501E+02 -0.25531493085E+02 -0.23635092246E+02  0.36820934571E+02  0.00000000000E+00 0.  1.
         11    1    4    4    0    0  0.14452771047E+01  0.20512959700E+02  0.29521470103E+02  0.35977597736E+02  0.51100000000E-03 0. -1.
        -11    1    4    4    0    0  0.97895990217E+01 -0.22243783159E+01 -0.43454978467E+01  0.10939262301E+02  0.51100000000E-03 0.  1.
         12    1    4    4    0    0  0.81943837491E+00  0.72429117013E+01 -0.15408800108E+01  0.74502053911E+01  0.00000000000E+00 0. -1.
</event>
<event>
 8    1  0.2558382E-006  0.9118800E+02  0.7816164E-02  0.1184000E+00
        -11   -1    0    0    0    0  0.00000000000E+00  0.00000000000E+00  0.45593999997E+02  0.45594000000E+02  0.51100000000E-03 0.  1.
         11   -1    0    0    0    0 -0.00000000000E+00 -0.00000000000E+00 -0.45593999997E+02  0.45594000000E+02  0.51100000000E-03 0. -1.
         23    2    1    2    0    0 -0.35527136788E-14  0.00000000000E+00 -0.35527136788E-14  0.91188000000E+02  0.91188000000E+02 0.  0.
    9900012    2    3    3    0    0  0.29980480121E+02 -0.10616382963E+02 -0.18553907263E+02  0.54367024317E+02  0.39999863536E+02 0.  0.
        -12    1    3    3    0    0 -0.29980480121E+02  0.10616382963E+02  0.18553907263E+02  0.36820975683E+02  0.00000000000E+00 0.  1.
         11    1    4    4    0    0  0.20976311866E+02 -0.11181740555E+02 -0.24991391236E+02  0.34490674356E+02  0.51100000000E-03 0. -1.
        -11    1    4    4    0    0  0.34218066958E+01 -0.79139452422E+01  0.23881974489E+01  0.89466629352E+01  0.51100000000E-03 0.  1.
        -12    1    4    4    0    0  0.55823615589E+01  0.84793028343E+01  0.40492865243E+01  0.10929687026E+02  0.00000000000E+00 0.  1.
</event>
<event>
 8    1  0.2558382E-006  0.9118800E+02  0.7816164E-02  0.1184000E+00
        -11   -1    0    0    0    0  0.00000000000E+00  0.00000000000E+00  0.45593999997E+02  0.45594000000E+02  0.51100000000E-03 0. -1.
         11   -1    0    0    0    0 -0.00000000000E+00 -0.00000000000E+00 -0.45593999997E+02  0.45594000000E+02  0.51100000000E-03 0.  1.
         23    2    1    2    0    0  0.00000000000E+00  0.17763568394E-14  0.44408920985E-15  0.91188000000E+02  0.91188000000E+02 0.  0.
    9900012    2    3    3    0    0  0.35461627238E+02 -0.92564527546E+01  0.35454236079E+01  0.54367096256E+02  0.40000027535E+02 0.  0.
        -12    1    3    3    0    0 -0.35461627238E+02  0.92564527546E+01 -0.35454236079E+01  0.36820903744E+02  0.00000000000E+00 0.  1.
         11    1    4    4    0    0  0.26279789929E+02 -0.13649424169E+02 -0.41420609686E+01  0.29901351277E+02  0.51100000000E-03 0. -1.
        -11    1    4    4    0    0  0.64931291964E+01 -0.66483266194E+01 -0.20315376968E+01  0.95125243376E+01  0.51100000000E-03 0.  1.
        -12    1    4    4    0    0  0.26887081122E+01  0.11041298034E+02  0.97190222732E+01  0.14953220641E+02  0.00000000000E+00 0.  1.
</event>
<event>
 8    1  0.2558382E-006  0.9118800E+02  0.7816164E-02  0.1184000E+00
        -11   -1    0    0    0    0  0.00000000000E+00  0.00000000000E+00  0.45593999997E+02  0.45594000000E+02  0.51100000000E-03 0. -1.
         11   -1    0    0    0    0 -0.00000000000E+00 -0.00000000000E+00 -0.45593999997E+02  0.45594000000E+02  0.51100000000E-03 0.  1.
         23    2    1    2    0    0  0.88817841970E-15  0.00000000000E+00  0.17763568394E-14  0.91188000000E+02  0.91188000000E+02 0.  0.
    9900012    2    3    3    0    0 -0.66315743527E+01  0.32612725769E+02  0.15754750893E+02  0.54367084257E+02  0.40000000180E+02 0.  0.
        -12    1    3    3    0    0  0.66315743527E+01 -0.32612725769E+02 -0.15754750893E+02  0.36820915743E+02  0.00000000000E+00 0.  1.
         11    1    4    4    0    0 -0.23702171000E+01  0.29994583541E+02  0.94510116359E+01  0.31537510874E+02  0.51100000000E-03 0. -1.
        -11    1    4    4    0    0 -0.47840493448E+01  0.29019590183E+01 -0.73084188575E+01  0.92044272356E+01  0.51100000000E-03 0.  1.
        -12    1    4    4    0    0  0.52269209205E+00 -0.28381679049E+00  0.13612158115E+02  0.13625146147E+02  0.00000000000E+00 0.  1.
</event>
<event>
 8    1  0.2558382E-006  0.9118800E+02  0.7816164E-02  0.1184000E+00
        -11   -1    0    0    0    0  0.00000000000E+00  0.00000000000E+00  0.45593999997E+02  0.45594000000E+02  0.51100000000E-03 0. -1.
         11   -1    0    0    0    0 -0.00000000000E+00 -0.00000000000E+00 -0.45593999997E+02  0.45594000000E+02  0.51100000000E-03 0.  1.
         23    2    1    2    0    0  0.17763568394E-14 -0.35527136788E-14 -0.35527136788E-14  0.91188000000E+02  0.91188000000E+02 0.  0.
    9900012    2    3    3    0    0 -0.11088651054E+01 -0.29821036365E+02 -0.21569357126E+02  0.54367340601E+02  0.40000584564E+02 0.  0.
         12    1    3    3    0    0  0.11088651054E+01  0.29821036365E+02  0.21569357126E+02  0.36820659399E+02  0.00000000000E+00 0. -1.
         11    1    4    4    0    0 -0.11344709073E+02 -0.24093307019E+02 -0.16978054211E+01  0.26684684945E+02  0.51100000000E-03 0. -1.
        -11    1    4    4    0    0  0.60357982384E+01 -0.45645340351E+01 -0.23793510900E+00  0.75711587428E+01  0.51100000000E-03 0.  1.
         12    1    4    4    0    0  0.42000457295E+01 -0.11631953109E+01 -0.19633616596E+02  0.20111496914E+02  0.00000000000E+00 0. -1.
</event>
<event>
 8    1  0.2558382E-006  0.9118800E+02  0.7816164E-02  0.1184000E+00
        -11   -1    0    0    0    0  0.00000000000E+00  0.00000000000E+00  0.45593999997E+02  0.45594000000E+02  0.51100000000E-03 0. -1.
         11   -1    0    0    0    0 -0.00000000000E+00 -0.00000000000E+00 -0.45593999997E+02  0.45594000000E+02  0.51100000000E-03 0.  1.
         23    2    1    2    0    0  0.35527136788E-14  0.00000000000E+00  0.00000000000E+00  0.91188000000E+02  0.91188000000E+02 0.  0.
    9900012    2    3    3    0    0 -0.27342245673E+02 -0.18387846988E+02  0.16433737038E+02  0.54367095227E+02  0.40000025188E+02 0.  0.
         12    1    3    3    0    0  0.27342245673E+02  0.18387846988E+02 -0.16433737038E+02  0.36820904773E+02  0.00000000000E+00 0. -1.
         11    1    4    4    0    0 -0.19013853304E+02  0.20611056143E+01 -0.13830483521E+01  0.19175181794E+02  0.51100000000E-03 0. -1.
        -11    1    4    4    0    0 -0.70024121219E+01 -0.16186483820E+02  0.85975747323E+00  0.17657157674E+02  0.51100000000E-03 0.  1.
        -12    1    4    4    0    0 -0.13259802468E+01 -0.42624687832E+01  0.16957027917E+02  0.17534755759E+02  0.00000000000E+00 0.  1.
</event>
<event>
 8    1  0.2558382E-006  0.9118800E+02  0.7816164E-02  0.1184000E+00
        -11   -1    0    0    0    0  0.00000000000E+00  0.00000000000E+00  0.45593999997E+02  0.45594000000E+02  0.51100000000E-03 0. -1.
         11   -1    0    0    0    0 -0.00000000000E+00 -0.00000000000E+00 -0.45593999997E+02  0.45594000000E+02  0.51100000000E-03 0.  1.
         23    2    1    2    0    0  0.00000000000E+00 -0.17763568394E-14  0.00000000000E+00  0.91188000000E+02  0.91188000000E+02 0.  0.
    9900012    2    3    3    0    0  0.27494597357E+01 -0.10734938337E+02 -0.35113827451E+02  0.54367091426E+02  0.40000016524E+02 0.  0.
         12    1    3    3    0    0 -0.27494597357E+01  0.10734938337E+02  0.35113827451E+02  0.36820908574E+02  0.00000000000E+00 0. -1.
         11    1    4    4    0    0  0.19073915845E+01 -0.90834757105E+01 -0.13127853639E+02  0.16077568693E+02  0.51100000000E-03 0. -1.
        -11    1    4    4    0    0  0.32299269755E+01 -0.15683072174E+02 -0.65701890472E+01  0.17307760267E+02  0.51100000000E-03 0.  1.
         12    1    4    4    0    0 -0.23878588243E+01  0.14031609548E+02 -0.15415784765E+02  0.20981762466E+02  0.00000000000E+00 0. -1.
</event>
<event>
 8    1  0.2558382E-006  0.9118800E+02  0.7816164E-02  0.1184000E+00
        -11   -1    0    0    0    0  0.00000000000E+00  0.00000000000E+00  0.45593999997E+02  0.45594000000E+02  0.51100000000E-03 0. -1.
         11   -1    0    0    0    0 -0.00000000000E+00 -0.00000000000E+00 -0.45593999997E+02  0.45594000000E+02  0.51100000000E-03 0.  1.
         23    2    1    2    0    0 -0.35527136788E-14 -0.35527136788E-14  0.00000000000E+00  0.91188000000E+02  0.91188000000E+02 0.  0.
    9900012    2    3    3    0    0  0.27596470776E+02  0.23748080212E+02  0.55003769478E+01  0.54366937283E+02  0.39999665123E+02 0.  0.
        -12    1    3    3    0    0 -0.27596470776E+02 -0.23748080212E+02 -0.55003769478E+01  0.36821062717E+02  0.00000000000E+00 0.  1.
         11    1    4    4    0    0  0.10203873116E+02  0.85091623071E+01  0.33699304415E+00  0.13290539278E+02  0.51100000000E-03 0. -1.
        -11    1    4    4    0    0  0.71772623281E+01 -0.10178890358E+02 -0.23419055786E+01  0.12673098495E+02  0.51100000000E-03 0.  1.
        -12    1    4    4    0    0  0.10215335332E+02  0.25417808263E+02  0.75052894823E+01  0.28403299510E+02  0.00000000000E+00 0.  1.
</event>
<event>
 8    1  0.2558382E-006  0.9118800E+02  0.7816164E-02  0.1184000E+00
        -11   -1    0    0    0    0  0.00000000000E+00  0.00000000000E+00  0.45593999997E+02  0.45594000000E+02  0.51100000000E-03 0.  1.
         11   -1    0    0    0    0 -0.00000000000E+00 -0.00000000000E+00 -0.45593999997E+02  0.45594000000E+02  0.51100000000E-03 0. -1.
         23    2    1    2    0    0 -0.35527136788E-14  0.00000000000E+00 -0.17763568394E-14  0.91188000000E+02  0.91188000000E+02 0.  0.
    9900012    2    3    3    0    0  0.26213520965E+02 -0.22225020667E+02  0.13216759060E+02  0.54367042040E+02  0.39999903938E+02 0.  0.
         12    1    3    3    0    0 -0.26213520965E+02  0.22225020667E+02 -0.13216759060E+02  0.36820957960E+02  0.00000000000E+00 0. -1.
         11    1    4    4    0    0  0.14361141818E+02 -0.49702452606E+01  0.33088978055E+01  0.15552959115E+02  0.51100000000E-03 0. -1.
        -11    1    4    4    0    0 -0.57084302708E+01 -0.69785868304E+01  0.15305640401E+02  0.17763712412E+02  0.51100000000E-03 0.  1.
        -12    1    4    4    0    0  0.17560809418E+02 -0.10276188576E+02 -0.53977791456E+01  0.21050370514E+02  0.00000000000E+00 0.  1.
</event>
<event>
 8    1  0.2558382E-006  0.9118800E+02  0.7816164E-02  0.1184000E+00
        -11   -1    0    0    0    0  0.00000000000E+00  0.00000000000E+00  0.45593999997E+02  0.45594000000E+02  0.51100000000E-03 0.  1.
         11   -1    0    0    0    0 -0.00000000000E+00 -0.00000000000E+00 -0.45593999997E+02  0.45594000000E+02  0.51100000000E-03 0. -1.
         23    2    1    2    0    0  0.17763568394E-14  0.00000000000E+00  0.00000000000E+00  0.91188000000E+02  0.91188000000E+02 0.  0.
    9900012    2    3    3    0    0  0.12023895439E+02 -0.51220577466E+01 -0.34423387033E+02  0.54367094091E+02  0.40000022600E+02 0.  0.
        -12    1    3    3    0    0 -0.12023895439E+02  0.51220577466E+01  0.34423387033E+02  0.36820905909E+02  0.00000000000E+00 0.  1.
         11    1    4    4    0    0  0.16903424351E+02 -0.75407876089E+01 -0.25712973151E+02  0.31681954187E+02  0.51100000000E-03 0. -1.
        -11    1    4    4    0    0 -0.51941607386E+01 -0.14003929340E+01 -0.14655710760E+02  0.15611862935E+02  0.51100000000E-03 0.  1.
        -12    1    4    4    0    0  0.31463182628E+00  0.38191227963E+01  0.59452968783E+01  0.70732769697E+01  0.00000000000E+00 0.  1.
</event>
<event>
 8    1  0.2558382E-006  0.9118800E+02  0.7816164E-02  0.1184000E+00
        -11   -1    0    0    0    0  0.00000000000E+00  0.00000000000E+00  0.45593999997E+02  0.45594000000E+02  0.51100000000E-03 0.  1.
         11   -1    0    0    0    0 -0.00000000000E+00 -0.00000000000E+00 -0.45593999997E+02  0.45594000000E+02  0.51100000000E-03 0. -1.
         23    2    1    2    0    0  0.00000000000E+00  0.17763568394E-14  0.00000000000E+00  0.91188000000E+02  0.91188000000E+02 0.  0.
    9900012    2    3    3    0    0 -0.34083893572E+02 -0.11067096551E+02 -0.84609443444E+01  0.54367081947E+02  0.39999994914E+02 0.  0.
         12    1    3    3    0    0  0.34083893572E+02  0.11067096551E+02  0.84609443444E+01  0.36820918053E+02  0.00000000000E+00 0. -1.
         11    1    4    4    0    0 -0.16397471555E+02 -0.15526121242E+02 -0.20394783447E+02  0.30428353658E+02  0.51100000000E-03 0. -1.
        -11    1    4    4    0    0 -0.45669966393E+01  0.30882242671E+01  0.87941313698E+01  0.10379370609E+02  0.51100000000E-03 0.  1.
         12    1    4    4    0    0 -0.13119425378E+02  0.13708004241E+01  0.31397077326E+01  0.13559357680E+02  0.00000000000E+00 0. -1.
</event>
<event>
 8    1  0.2558382E-006  0.9118800E+02  0.7816164E-02  0.1184000E+00
        -11   -1    0    0    0    0  0.00000000000E+00  0.00000000000E+00  0.45593999997E+02  0.45594000000E+02  0.51100000000E-03 0.  1.
         11   -1    0    0    0    0 -0.00000000000E+00 -0.00000000000E+00 -0.45593999997E+02  0.45594000000E+02  0.51100000000E-03 0. -1.
         23    2    1    2    0    0  0.00000000000E+00  0.00000000000E+00 -0.35527136788E-14  0.91188000000E+02  0.91188000000E+02 0.  0.
    9900012    2    3    3    0    0 -0.28167681521E+02  0.17249843088E+02  0.16272827627E+02  0.54367078124E+02  0.39999986198E+02 0.  0.
         12    1    3    3    0    0  0.28167681521E+02 -0.17249843088E+02 -0.16272827627E+02  0.36820921876E+02  0.00000000000E+00 0. -1.
         11    1    4    4    0    0 -0.20637377803E+02 -0.17976389800E+01  0.19876460430E+02  0.28708997683E+02  0.51100000000E-03 0. -1.
        -11    1    4    4    0    0 -0.60933786099E+01  0.11964515998E+02  0.50841700229E+01  0.14357147733E+02  0.51100000000E-03 0.  1.
         12    1    4    4    0    0 -0.14369251085E+01  0.70829660704E+01 -0.86878028257E+01  0.11300932708E+02  0.00000000000E+00 0. -1.
</event>
<event>
 8    1  0.2558382E-006  0.9118800E+02  0.7816164E-02  0.1184000E+00
        -11   -1    0    0    0    0  0.00000000000E+00  0.00000000000E+00  0.45593999997E+02  0.45594000000E+02  0.51100000000E-03 0. -1.
         11   -1    0    0    0    0 -0.00000000000E+00 -0.00000000000E+00 -0.45593999997E+02  0.45594000000E+02  0.51100000000E-03 0.  1.
         23    2    1    2    0    0  0.00000000000E+00  0.00000000000E+00  0.00000000000E+00  0.91188000000E+02  0.91188000000E+02 0.  0.
    9900012    2    3    3    0    0  0.45342758360E+01  0.66939603126E+01  0.35922292540E+02  0.54367083888E+02  0.39999999339E+02 0.  0.
        -12    1    3    3    0    0 -0.45342758360E+01 -0.66939603126E+01 -0.35922292540E+02  0.36820916112E+02  0.00000000000E+00 0.  1.
         11    1    4    4    0    0  0.48846041364E+01  0.10050064857E+02  0.13436673712E+02  0.17475908042E+02  0.51100000000E-03 0.  1.
        -11    1    4    4    0    0 -0.26363804528E+01 -0.63004344730E+01 -0.54315361167E+01  0.87262570034E+01  0.51100000000E-03 0. -1.
         12    1    4    4    0    0  0.22860521524E+01  0.29443299289E+01  0.27917154945E+02  0.28164918842E+02  0.00000000000E+00 0. -1.
</event>
<event>
 8    1  0.2558382E-006  0.9118800E+02  0.7816164E-02  0.1184000E+00
        -11   -1    0    0    0    0  0.00000000000E+00  0.00000000000E+00  0.45593999997E+02  0.45594000000E+02  0.51100000000E-03 0. -1.
         11   -1    0    0    0    0 -0.00000000000E+00 -0.00000000000E+00 -0.45593999997E+02  0.45594000000E+02  0.51100000000E-03 0.  1.
         23    2    1    2    0    0  0.00000000000E+00  0.35527136788E-14  0.00000000000E+00  0.91188000000E+02  0.91188000000E+02 0.  0.
    9900012    2    3    3    0    0  0.16475704647E+02 -0.17802136653E+02  0.27702353613E+02  0.54367009943E+02  0.39999830767E+02 0.  0.
        -12    1    3    3    0    0 -0.16475704647E+02  0.17802136653E+02 -0.27702353613E+02  0.36820990057E+02  0.00000000000E+00 0.  1.
         11    1    4    4    0    0  0.23100456254E+00 -0.26286519687E+02  0.10916091093E+02  0.28463933765E+02  0.51100000000E-03 0. -1.
        -11    1    4    4    0    0  0.15142345405E+02  0.48898729161E+01  0.12781463834E+02  0.20409980390E+02  0.51100000000E-03 0.  1.
         12    1    4    4    0    0  0.11023546795E+01  0.35945101175E+01  0.40047986867E+01  0.54930957888E+01  0.00000000000E+00 0. -1.
</event>
<event>
 8    1  0.2558382E-006  0.9118800E+02  0.7816164E-02  0.1184000E+00
        -11   -1    0    0    0    0  0.00000000000E+00  0.00000000000E+00  0.45593999997E+02  0.45594000000E+02  0.51100000000E-03 0. -1.
         11   -1    0    0    0    0 -0.00000000000E+00 -0.00000000000E+00 -0.45593999997E+02  0.45594000000E+02  0.51100000000E-03 0.  1.
         23    2    1    2    0    0  0.00000000000E+00  0.00000000000E+00  0.00000000000E+00  0.91188000000E+02  0.91188000000E+02 0.  0.
    9900012    2    3    3    0    0 -0.23244145359E+02  0.19097044490E+02  0.21231809980E+02  0.54367120641E+02  0.40000083125E+02 0.  0.
        -12    1    3    3    0    0  0.23244145359E+02 -0.19097044490E+02 -0.21231809980E+02  0.36820879359E+02  0.00000000000E+00 0.  1.
         11    1    4    4    0    0 -0.31836077081E+02  0.44056345665E+01  0.15984453433E+02  0.35894960255E+02  0.51100000000E-03 0. -1.
        -11    1    4    4    0    0  0.46072729831E+01  0.96691975150E+01  0.94709354752E+00  0.10752549994E+02  0.51100000000E-03 0.  1.
         12    1    4    4    0    0  0.39846587388E+01  0.50222124088E+01  0.43002629993E+01  0.77196103922E+01  0.00000000000E+00 0. -1.
</event>
<event>
 8    1  0.2558382E-006  0.9118800E+02  0.7816164E-02  0.1184000E+00
        -11   -1    0    0    0    0  0.00000000000E+00  0.00000000000E+00  0.45593999997E+02  0.45594000000E+02  0.51100000000E-03 0. -1.
         11   -1    0    0    0    0 -0.00000000000E+00 -0.00000000000E+00 -0.45593999997E+02  0.45594000000E+02  0.51100000000E-03 0.  1.
         23    2    1    2    0    0 -0.35527136788E-14  0.00000000000E+00  0.35527136788E-14  0.91188000000E+02  0.91188000000E+02 0.  0.
    9900012    2    3    3    0    0 -0.30435765187E+02 -0.89484454554E+01  0.18691424498E+02  0.54367084363E+02  0.40000000423E+02 0.  0.
        -12    1    3    3    0    0  0.30435765187E+02  0.89484454554E+01 -0.18691424498E+02  0.36820915637E+02  0.00000000000E+00 0.  1.
         11    1    4    4    0    0 -0.18675537843E+02 -0.76079288563E+01  0.28157084927E+02  0.34633476970E+02  0.51100000000E-03 0. -1.
        -11    1    4    4    0    0 -0.91706780914E+01 -0.59537662324E+01 -0.94369844761E+01  0.14443176426E+02  0.51100000000E-03 0.  1.
        -12    1    4    4    0    0 -0.25895492523E+01  0.46132496333E+01 -0.28675953145E-01  0.52904309673E+01  0.00000000000E+00 0.  1.
</event>
<event>
 8    1  0.2558382E-006  0.9118800E+02  0.7816164E-02  0.1184000E+00
        -11   -1    0    0    0    0  0.00000000000E+00  0.00000000000E+00  0.45593999997E+02  0.45594000000E+02  0.51100000000E-03 0. -1.
         11   -1    0    0    0    0 -0.00000000000E+00 -0.00000000000E+00 -0.45593999997E+02  0.45594000000E+02  0.51100000000E-03 0.  1.
         23    2    1    2    0    0 -0.35527136788E-14  0.00000000000E+00  0.00000000000E+00  0.91188000000E+02  0.91188000000E+02 0.  0.
    9900012    2    3    3    0    0  0.12599727228E+02  0.34462935034E+02  0.30542346240E+01  0.54367144951E+02  0.40000138545E+02 0.  0.
         12    1    3    3    0    0 -0.12599727228E+02 -0.34462935034E+02 -0.30542346240E+01  0.36820855049E+02  0.00000000000E+00 0. -1.
         11    1    4    4    0    0  0.11226098034E+01  0.92176397210E+01  0.55046814697E+01  0.10794751185E+02  0.51100000000E-03 0. -1.
        -11    1    4    4    0    0  0.94463132462E+01  0.28077829128E+01  0.12956771618E+02  0.16278648895E+02  0.51100000000E-03 0.  1.
         12    1    4    4    0    0  0.20308041780E+01  0.22437512400E+02 -0.15407218463E+02  0.27293744872E+02  0.00000000000E+00 0. -1.
</event>
<event>
 8    1  0.2558382E-006  0.9118800E+02  0.7816164E-02  0.1184000E+00
        -11   -1    0    0    0    0  0.00000000000E+00  0.00000000000E+00  0.45593999997E+02  0.45594000000E+02  0.51100000000E-03 0. -1.
         11   -1    0    0    0    0 -0.00000000000E+00 -0.00000000000E+00 -0.45593999997E+02  0.45594000000E+02  0.51100000000E-03 0.  1.
         23    2    1    2    0    0  0.26645352591E-14  0.00000000000E+00  0.00000000000E+00  0.91188000000E+02  0.91188000000E+02 0.  0.
    9900012    2    3    3    0    0 -0.43074380913E+01 -0.22068441902E+02 -0.29158338439E+02  0.54367097629E+02  0.40000030665E+02 0.  0.
         12    1    3    3    0    0  0.43074380913E+01  0.22068441902E+02  0.29158338439E+02  0.36820902371E+02  0.00000000000E+00 0. -1.
         11    1    4    4    0    0 -0.12458298315E+02 -0.42520745038E+01 -0.35951836731E+01  0.13646049992E+02  0.51100000000E-03 0. -1.
        -11    1    4    4    0    0  0.55153556854E+01 -0.16968041730E+02 -0.30341473646E+02  0.35198559797E+02  0.51100000000E-03 0.  1.
        -12    1    4    4    0    0  0.26355045382E+01 -0.84832566841E+00  0.47783188809E+01  0.55224878395E+01  0.00000000000E+00 0.  1.
</event>
<event>
 8    1  0.2558382E-006  0.9118800E+02  0.7816164E-02  0.1184000E+00
        -11   -1    0    0    0    0  0.00000000000E+00  0.00000000000E+00  0.45593999997E+02  0.45594000000E+02  0.51100000000E-03 0. -1.
         11   -1    0    0    0    0 -0.00000000000E+00 -0.00000000000E+00 -0.45593999997E+02  0.45594000000E+02  0.51100000000E-03 0.  1.
         23    2    1    2    0    0  0.00000000000E+00  0.00000000000E+00 -0.17763568394E-14  0.91188000000E+02  0.91188000000E+02 0.  0.
    9900012    2    3    3    0    0 -0.19709655702E+02 -0.27300362560E+02  0.14899648788E+02  0.54367083963E+02  0.39999999511E+02 0.  0.
        -12    1    3    3    0    0  0.19709655702E+02  0.27300362560E+02 -0.14899648788E+02  0.36820916037E+02  0.00000000000E+00 0.  1.
         11    1    4    4    0    0 -0.60916461962E+01 -0.10065425345E+02  0.16863431281E+01  0.11885482496E+02  0.51100000000E-03 0. -1.
        -11    1    4    4    0    0 -0.10693883684E+02 -0.70743246820E+01  0.24104403612E+02  0.27302518047E+02  0.51100000000E-03 0.  1.
        -12    1    4    4    0    0 -0.29241258226E+01 -0.10160612533E+02 -0.10891097953E+02  0.15179083420E+02  0.00000000000E+00 0.  1.
</event>
<event>
 8    1  0.2558382E-006  0.9118800E+02  0.7816164E-02  0.1184000E+00
        -11   -1    0    0    0    0  0.00000000000E+00  0.00000000000E+00  0.45593999997E+02  0.45594000000E+02  0.51100000000E-03 0.  1.
         11   -1    0    0    0    0 -0.00000000000E+00 -0.00000000000E+00 -0.45593999997E+02  0.45594000000E+02  0.51100000000E-03 0. -1.
         23    2    1    2    0    0  0.35527136788E-14  0.00000000000E+00  0.35527136788E-14  0.91188000000E+02  0.91188000000E+02 0.  0.
    9900012    2    3    3    0    0 -0.25776620187E+02 -0.43315894338E+01 -0.25934218825E+02  0.54367074953E+02  0.39999978969E+02 0.  0.
        -12    1    3    3    0    0  0.25776620187E+02  0.43315894338E+01  0.25934218825E+02  0.36820925047E+02  0.00000000000E+00 0.  1.
         11    1    4    4    0    0 -0.22533808770E+02  0.11640379406E+02 -0.13757283309E+02  0.28853662068E+02  0.51100000000E-03 0. -1.
        -11    1    4    4    0    0 -0.18264901671E+01 -0.40845859612E+01 -0.12766065924E+02  0.13527466438E+02  0.51100000000E-03 0.  1.
        -12    1    4    4    0    0 -0.14163212493E+01 -0.11887382879E+02  0.58913040690E+00  0.11985946447E+02  0.00000000000E+00 0.  1.
</event>
<event>
 8    1  0.2558382E-006  0.9118800E+02  0.7816164E-02  0.1184000E+00
        -11   -1    0    0    0    0  0.00000000000E+00  0.00000000000E+00  0.45593999997E+02  0.45594000000E+02  0.51100000000E-03 0.  1.
         11   -1    0    0    0    0 -0.00000000000E+00 -0.00000000000E+00 -0.45593999997E+02  0.45594000000E+02  0.51100000000E-03 0. -1.
         23    2    1    2    0    0 -0.71054273576E-14 -0.44408920985E-15  0.00000000000E+00  0.91188000000E+02  0.91188000000E+02 0.  0.
    9900012    2    3    3    0    0  0.30742865273E+02 -0.23393337698E+01  0.20129093664E+02  0.54367127395E+02  0.40000098522E+02 0.  0.
         12    1    3    3    0    0 -0.30742865273E+02  0.23393337698E+01 -0.20129093664E+02  0.36820872605E+02  0.00000000000E+00 0. -1.
         11    1    4    4    0    0  0.28847200352E+01 -0.45993775606E+01  0.20339512953E+02  0.21051642954E+02  0.51100000000E-03 0. -1.
        -11    1    4    4    0    0  0.52987214248E+01 -0.30530050679E+01  0.67577853455E+01  0.91139975707E+01  0.51100000000E-03 0.  1.
         12    1    4    4    0    0  0.22559423813E+02  0.53130488587E+01 -0.69682046341E+01  0.24201486871E+02  0.00000000000E+00 0. -1.
</event>
<event>
 8    1  0.2558382E-006  0.9118800E+02  0.7816164E-02  0.1184000E+00
        -11   -1    0    0    0    0  0.00000000000E+00  0.00000000000E+00  0.45593999997E+02  0.45594000000E+02  0.51100000000E-03 0.  1.
         11   -1    0    0    0    0 -0.00000000000E+00 -0.00000000000E+00 -0.45593999997E+02  0.45594000000E+02  0.51100000000E-03 0. -1.
         23    2    1    2    0    0  0.00000000000E+00  0.35527136788E-14 -0.44408920985E-15  0.91188000000E+02  0.91188000000E+02 0.  0.
    9900012    2    3    3    0    0  0.25754362261E+02 -0.26115192674E+02  0.32381873300E+01  0.54367131990E+02  0.40000108997E+02 0.  0.
         12    1    3    3    0    0 -0.25754362261E+02  0.26115192674E+02 -0.32381873300E+01  0.36820868010E+02  0.00000000000E+00 0. -1.
         11    1    4    4    0    0  0.16028640768E+02 -0.13423228275E+02  0.11901562084E+02  0.24057172787E+02  0.51100000000E-03 0. -1.
        -11    1    4    4    0    0  0.56428482702E+01  0.54797049982E+01  0.29049450507E+01  0.83849632960E+01  0.51100000000E-03 0.  1.
         12    1    4    4    0    0  0.40828732227E+01 -0.18171669397E+02 -0.11568319805E+02  0.21924995907E+02  0.00000000000E+00 0. -1.
</event>
<event>
 8    1  0.2558382E-006  0.9118800E+02  0.7816164E-02  0.1184000E+00
        -11   -1    0    0    0    0  0.00000000000E+00  0.00000000000E+00  0.45593999997E+02  0.45594000000E+02  0.51100000000E-03 0.  1.
         11   -1    0    0    0    0 -0.00000000000E+00 -0.00000000000E+00 -0.45593999997E+02  0.45594000000E+02  0.51100000000E-03 0. -1.
         23    2    1    2    0    0 -0.13322676296E-14 -0.35527136788E-14  0.00000000000E+00  0.91188000000E+02  0.91188000000E+02 0.  0.
    9900012    2    3    3    0    0  0.32178478736E+01  0.31052408896E+02  0.19523657736E+02  0.54367084006E+02  0.39999999609E+02 0.  0.
         12    1    3    3    0    0 -0.32178478736E+01 -0.31052408896E+02 -0.19523657736E+02  0.36820915994E+02  0.00000000000E+00 0. -1.
         11    1    4    4    0    0  0.12804245029E+02  0.12384298437E+02  0.34132553677E+01  0.18137526044E+02  0.51100000000E-03 0. -1.
        -11    1    4    4    0    0 -0.17346745216E+02  0.15818626123E+02  0.15070907926E+02  0.27897504691E+02  0.51100000000E-03 0.  1.
        -12    1    4    4    0    0  0.77603480613E+01  0.28494843362E+01  0.10394944430E+01  0.83320532711E+01  0.00000000000E+00 0.  1.
</event>
<event>
 8    1  0.2558382E-006  0.9118800E+02  0.7816164E-02  0.1184000E+00
        -11   -1    0    0    0    0  0.00000000000E+00  0.00000000000E+00  0.45593999997E+02  0.45594000000E+02  0.51100000000E-03 0.  1.
         11   -1    0    0    0    0 -0.00000000000E+00 -0.00000000000E+00 -0.45593999997E+02  0.45594000000E+02  0.51100000000E-03 0. -1.
         23    2    1    2    0    0  0.35527136788E-14 -0.35527136788E-14 -0.35527136788E-14  0.91188000000E+02  0.91188000000E+02 0.  0.
    9900012    2    3    3    0    0  0.13574811171E+02 -0.12507463307E+02  0.31860148146E+02  0.54367066055E+02  0.39999958687E+02 0.  0.
         12    1    3    3    0    0 -0.13574811171E+02  0.12507463307E+02 -0.31860148146E+02  0.36820933945E+02  0.00000000000E+00 0. -1.
         11    1    4    4    0    0 -0.17740879986E+01  0.11576077956E+02  0.95364303409E+00  0.11749995930E+02  0.51100000000E-03 0. -1.
        -11    1    4    4    0    0  0.26989689486E+01 -0.92688285264E+01  0.12703375506E+02  0.15955292700E+02  0.51100000000E-03 0.  1.
         12    1    4    4    0    0  0.12649930221E+02 -0.14814712736E+02  0.18203129606E+02  0.26661777426E+02  0.00000000000E+00 0. -1.
</event>
<event>
 8    1  0.2558382E-006  0.9118800E+02  0.7816164E-02  0.1184000E+00
        -11   -1    0    0    0    0  0.00000000000E+00  0.00000000000E+00  0.45593999997E+02  0.45594000000E+02  0.51100000000E-03 0. -1.
         11   -1    0    0    0    0 -0.00000000000E+00 -0.00000000000E+00 -0.45593999997E+02  0.45594000000E+02  0.51100000000E-03 0.  1.
         23    2    1    2    0    0 -0.71054273576E-14 -0.53290705182E-14  0.00000000000E+00  0.91188000000E+02  0.91188000000E+02 0.  0.
    9900012    2    3    3    0    0  0.31074476222E+02  0.14813456212E+02  0.13065940114E+02  0.54367077299E+02  0.39999984320E+02 0.  0.
         12    1    3    3    0    0 -0.31074476222E+02 -0.14813456212E+02 -0.13065940114E+02  0.36820922701E+02  0.00000000000E+00 0. -1.
         11    1    4    4    0    0  0.54710637657E+01  0.12924002407E+02  0.13055665141E+02  0.19168014229E+02  0.51100000000E-03 0. -1.
        -11    1    4    4    0    0  0.83629017707E+01 -0.27132874840E+01  0.11122345087E+02  0.14177680188E+02  0.51100000000E-03 0.  1.
        -12    1    4    4    0    0  0.17240510686E+02  0.46027412891E+01 -0.11112070114E+02  0.21021382883E+02  0.00000000000E+00 0.  1.
</event>
<event>
 8    1  0.2558382E-006  0.9118800E+02  0.7816164E-02  0.1184000E+00
        -11   -1    0    0    0    0  0.00000000000E+00  0.00000000000E+00  0.45593999997E+02  0.45594000000E+02  0.51100000000E-03 0.  1.
         11   -1    0    0    0    0 -0.00000000000E+00 -0.00000000000E+00 -0.45593999997E+02  0.45594000000E+02  0.51100000000E-03 0. -1.
         23    2    1    2    0    0 -0.35527136788E-14  0.00000000000E+00  0.00000000000E+00  0.91188000000E+02  0.91188000000E+02 0.  0.
    9900012    2    3    3    0    0  0.20883641430E+02  0.25419172167E+02 -0.16538395813E+02  0.54367091143E+02  0.40000015878E+02 0.  0.
         12    1    3    3    0    0 -0.20883641430E+02 -0.25419172167E+02  0.16538395813E+02  0.36820908857E+02  0.00000000000E+00 0. -1.
         11    1    4    4    0    0  0.20646809097E+01 -0.90957575205E+01 -0.10608355406E+02  0.14125612086E+02  0.51100000000E-03 0. -1.
        -11    1    4    4    0    0  0.18078465408E+02  0.28577478221E+02 -0.52141657601E+01  0.34215357631E+02  0.51100000000E-03 0.  1.
         12    1    4    4    0    0  0.74049511254E+00  0.59374514660E+01 -0.71587464705E+00  0.60261214254E+01  0.00000000000E+00 0. -1.
</event>
<event>
 8    1  0.2558382E-006  0.9118800E+02  0.7816164E-02  0.1184000E+00
        -11   -1    0    0    0    0  0.00000000000E+00  0.00000000000E+00  0.45593999997E+02  0.45594000000E+02  0.51100000000E-03 0.  1.
         11   -1    0    0    0    0 -0.00000000000E+00 -0.00000000000E+00 -0.45593999997E+02  0.45594000000E+02  0.51100000000E-03 0. -1.
         23    2    1    2    0    0 -0.71054273576E-14  0.00000000000E+00  0.71054273576E-14  0.91188000000E+02  0.91188000000E+02 0.  0.
    9900012    2    3    3    0    0  0.28356846237E+02  0.13872420437E+01 -0.23446676894E+02  0.54367057232E+02  0.39999938571E+02 0.  0.
        -12    1    3    3    0    0 -0.28356846237E+02 -0.13872420437E+01  0.23446676894E+02  0.36820942768E+02  0.00000000000E+00 0.  1.
         11    1    4    4    0    0 -0.30237039360E+01  0.16376313175E+01 -0.76198611525E+01  0.83598388782E+01  0.51100000000E-03 0. -1.
        -11    1    4    4    0    0  0.83287105748E+01  0.44934055944E+01  0.80918799734E+01  0.12451370826E+02  0.51100000000E-03 0.  1.
         12    1    4    4    0    0  0.23051839598E+02 -0.47437948682E+01 -0.23918695715E+02  0.33555847528E+02  0.00000000000E+00 0. -1.
</event>
<event>
 8    1  0.2558382E-006  0.9118800E+02  0.7816164E-02  0.1184000E+00
        -11   -1    0    0    0    0  0.00000000000E+00  0.00000000000E+00  0.45593999997E+02  0.45594000000E+02  0.51100000000E-03 0.  1.
         11   -1    0    0    0    0 -0.00000000000E+00 -0.00000000000E+00 -0.45593999997E+02  0.45594000000E+02  0.51100000000E-03 0. -1.
         23    2    1    2    0    0 -0.88817841970E-15  0.00000000000E+00  0.10658141036E-13  0.91188000000E+02  0.91188000000E+02 0.  0.
    9900012    2    3    3    0    0 -0.69894093793E+01 -0.17657097574E+02  0.31546068210E+02  0.54367090754E+02  0.40000014991E+02 0.  0.
         12    1    3    3    0    0  0.69894093793E+01  0.17657097574E+02 -0.31546068210E+02  0.36820909246E+02  0.00000000000E+00 0. -1.
         11    1    4    4    0    0 -0.91256592859E+00 -0.15619614381E+02 -0.87823377946E+00  0.15670878241E+02  0.51100000000E-03 0. -1.
        -11    1    4    4    0    0  0.55823390376E+01 -0.61126452996E+01  0.17229300652E+02  0.19114804286E+02  0.51100000000E-03 0.  1.
         12    1    4    4    0    0 -0.11659182488E+02  0.40751621067E+01  0.15195001338E+02  0.19581408227E+02  0.00000000000E+00 0. -1.
</event>
<event>
 8    1  0.2558382E-006  0.9118800E+02  0.7816164E-02  0.1184000E+00
        -11   -1    0    0    0    0  0.00000000000E+00  0.00000000000E+00  0.45593999997E+02  0.45594000000E+02  0.51100000000E-03 0.  1.
         11   -1    0    0    0    0 -0.00000000000E+00 -0.00000000000E+00 -0.45593999997E+02  0.45594000000E+02  0.51100000000E-03 0. -1.
         23    2    1    2    0    0  0.00000000000E+00  0.00000000000E+00  0.88817841970E-15  0.91188000000E+02  0.91188000000E+02 0.  0.
    9900012    2    3    3    0    0  0.34648280620E+02 -0.11044750336E+02 -0.57695981270E+01  0.54367107528E+02  0.40000053232E+02 0.  0.
        -12    1    3    3    0    0 -0.34648280620E+02  0.11044750336E+02  0.57695981270E+01  0.36820892472E+02  0.00000000000E+00 0.  1.
         11    1    4    4    0    0  0.74463324014E+01 -0.75154504443E+01  0.60757488195E+01  0.12200187933E+02  0.51100000000E-03 0. -1.
        -11    1    4    4    0    0  0.14329486993E+02  0.12444031848E+02 -0.11047391991E+01  0.19010748935E+02  0.51100000000E-03 0.  1.
         12    1    4    4    0    0  0.12872461225E+02 -0.15973331740E+02 -0.10740607747E+02  0.23156170660E+02  0.00000000000E+00 0. -1.
</event>
<event>
 8    1  0.2558382E-006  0.9118800E+02  0.7816164E-02  0.1184000E+00
        -11   -1    0    0    0    0  0.00000000000E+00  0.00000000000E+00  0.45593999997E+02  0.45594000000E+02  0.51100000000E-03 0. -1.
         11   -1    0    0    0    0 -0.00000000000E+00 -0.00000000000E+00 -0.45593999997E+02  0.45594000000E+02  0.51100000000E-03 0.  1.
         23    2    1    2    0    0  0.35527136788E-14  0.00000000000E+00  0.00000000000E+00  0.91188000000E+02  0.91188000000E+02 0.  0.
    9900012    2    3    3    0    0 -0.21857145982E+02  0.13302290514E+02  0.26478156577E+02  0.54367101869E+02  0.40000040332E+02 0.  0.
        -12    1    3    3    0    0  0.21857145982E+02 -0.13302290514E+02 -0.26478156577E+02  0.36820898131E+02  0.00000000000E+00 0.  1.
         11    1    4    4    0    0 -0.15471687402E+02  0.15793229424E+02 -0.21980639253E+01  0.22217801241E+02  0.51100000000E-03 0. -1.
        -11    1    4    4    0    0  0.29267248978E+01  0.74964113687E+00  0.17888901506E+01  0.35110979328E+01  0.51100000000E-03 0.  1.
         12    1    4    4    0    0 -0.93121834783E+01 -0.32405800472E+01  0.26887330352E+02  0.28638202696E+02  0.00000000000E+00 0. -1.
</event>
<event>
 8    1  0.2558382E-006  0.9118800E+02  0.7816164E-02  0.1184000E+00
        -11   -1    0    0    0    0  0.00000000000E+00  0.00000000000E+00  0.45593999997E+02  0.45594000000E+02  0.51100000000E-03 0. -1.
         11   -1    0    0    0    0 -0.00000000000E+00 -0.00000000000E+00 -0.45593999997E+02  0.45594000000E+02  0.51100000000E-03 0.  1.
         23    2    1    2    0    0  0.35527136788E-14  0.00000000000E+00 -0.17763568394E-14  0.91188000000E+02  0.91188000000E+02 0.  0.
    9900012    2    3    3    0    0  0.19722382620E+02 -0.30251453532E+02 -0.71873184694E+01  0.54367077092E+02  0.39999983847E+02 0.  0.
        -12    1    3    3    0    0 -0.19722382620E+02  0.30251453532E+02  0.71873184694E+01  0.36820922908E+02  0.00000000000E+00 0.  1.
         11    1    4    4    0    0  0.87860591861E+01  0.56587328698E+01  0.41922102798E+01  0.11260138587E+02  0.51100000000E-03 0. -1.
        -11    1    4    4    0    0  0.92389744158E+01 -0.83153419305E+01 -0.90231336802E+01  0.15359703817E+02  0.51100000000E-03 0.  1.
         12    1    4    4    0    0  0.16973490176E+01 -0.27594844472E+02 -0.23563950690E+01  0.27747234688E+02  0.00000000000E+00 0. -1.
</event>
<event>
 8    1  0.2558382E-006  0.9118800E+02  0.7816164E-02  0.1184000E+00
        -11   -1    0    0    0    0  0.00000000000E+00  0.00000000000E+00  0.45593999997E+02  0.45594000000E+02  0.51100000000E-03 0.  1.
         11   -1    0    0    0    0 -0.00000000000E+00 -0.00000000000E+00 -0.45593999997E+02  0.45594000000E+02  0.51100000000E-03 0. -1.
         23    2    1    2    0    0 -0.88817841970E-15  0.00000000000E+00 -0.17763568394E-14  0.91188000000E+02  0.91188000000E+02 0.  0.
    9900012    2    3    3    0    0 -0.47699838000E+01 -0.33991688337E+02 -0.13326511574E+02  0.54367034067E+02  0.39999885763E+02 0.  0.
        -12    1    3    3    0    0  0.47699838000E+01  0.33991688337E+02  0.13326511574E+02  0.36820965933E+02  0.00000000000E+00 0.  1.
         11    1    4    4    0    0 -0.56505934510E+01 -0.17150495269E+02  0.20348623358E+01  0.18171663636E+02  0.51100000000E-03 0. -1.
        -11    1    4    4    0    0 -0.85167615473E+01 -0.20770558097E+02 -0.12088152461E+02  0.25496563319E+02  0.51100000000E-03 0.  1.
        -12    1    4    4    0    0  0.93973711982E+01  0.39293650282E+01 -0.32732214491E+01  0.10698807112E+02  0.00000000000E+00 0.  1.
</event>
<event>
 8    1  0.2558382E-006  0.9118800E+02  0.7816164E-02  0.1184000E+00
        -11   -1    0    0    0    0  0.00000000000E+00  0.00000000000E+00  0.45593999997E+02  0.45594000000E+02  0.51100000000E-03 0. -1.
         11   -1    0    0    0    0 -0.00000000000E+00 -0.00000000000E+00 -0.45593999997E+02  0.45594000000E+02  0.51100000000E-03 0.  1.
         23    2    1    2    0    0  0.00000000000E+00  0.00000000000E+00  0.00000000000E+00  0.91188000000E+02  0.91188000000E+02 0.  0.
    9900012    2    3    3    0    0 -0.34616440580E+02 -0.57447008621E+01  0.11157516685E+02  0.54366949974E+02  0.39999694054E+02 0.  0.
        -12    1    3    3    0    0  0.34616440580E+02  0.57447008621E+01 -0.11157516685E+02  0.36821050026E+02  0.00000000000E+00 0.  1.
         11    1    4    4    0    0 -0.48113448316E+01 -0.14107764155E+00  0.63527095526E+01  0.79703112179E+01  0.51100000000E-03 0. -1.
        -11    1    4    4    0    0  0.11220139226E+01 -0.17164265819E+01  0.13802136078E+02  0.13953637377E+02  0.51100000000E-03 0.  1.
        -12    1    4    4    0    0 -0.30927109671E+02 -0.38871966387E+01 -0.89973289457E+01  0.32443001379E+02  0.00000000000E+00 0.  1.
</event>
<event>
 8    1  0.2558382E-006  0.9118800E+02  0.7816164E-02  0.1184000E+00
        -11   -1    0    0    0    0  0.00000000000E+00  0.00000000000E+00  0.45593999997E+02  0.45594000000E+02  0.51100000000E-03 0.  1.
         11   -1    0    0    0    0 -0.00000000000E+00 -0.00000000000E+00 -0.45593999997E+02  0.45594000000E+02  0.51100000000E-03 0. -1.
         23    2    1    2    0    0  0.00000000000E+00  0.00000000000E+00  0.00000000000E+00  0.91188000000E+02  0.91188000000E+02 0.  0.
    9900012    2    3    3    0    0  0.34431864163E+02 -0.70166607760E+01  0.10999708821E+02  0.54367076704E+02  0.39999982963E+02 0.  0.
         12    1    3    3    0    0 -0.34431864163E+02  0.70166607760E+01 -0.10999708821E+02  0.36820923296E+02  0.00000000000E+00 0. -1.
         11    1    4    4    0    0  0.39900253317E+01  0.34715036337E+01  0.17690385767E+02  0.18464056664E+02  0.51100000000E-03 0. -1.
        -11    1    4    4    0    0  0.19634096296E+02 -0.73313696203E+01  0.28422689422E+01  0.21150064087E+02  0.51100000000E-03 0.  1.
        -12    1    4    4    0    0  0.10807742536E+02 -0.31567947894E+01 -0.95329458886E+01  0.14752955954E+02  0.00000000000E+00 0.  1.
</event>
<event>
 8    1  0.2558382E-006  0.9118800E+02  0.7816164E-02  0.1184000E+00
        -11   -1    0    0    0    0  0.00000000000E+00  0.00000000000E+00  0.45593999997E+02  0.45594000000E+02  0.51100000000E-03 0. -1.
         11   -1    0    0    0    0 -0.00000000000E+00 -0.00000000000E+00 -0.45593999997E+02  0.45594000000E+02  0.51100000000E-03 0.  1.
         23    2    1    2    0    0  0.00000000000E+00  0.00000000000E+00  0.00000000000E+00  0.91188000000E+02  0.91188000000E+02 0.  0.
    9900012    2    3    3    0    0  0.32645609903E+02  0.11607555354E+01 -0.16990991785E+02  0.54367122754E+02  0.40000087942E+02 0.  0.
        -12    1    3    3    0    0 -0.32645609903E+02 -0.11607555354E+01  0.16990991785E+02  0.36820877246E+02  0.00000000000E+00 0.  1.
         11    1    4    4    0    0  0.26191636305E+02  0.29821531149E+01  0.45255768000E+01  0.26746511831E+02  0.51100000000E-03 0. -1.
        -11    1    4    4    0    0  0.56973404146E+01  0.54645904241E+01 -0.17655699294E+02  0.19340247003E+02  0.51100000000E-03 0.  1.
        -12    1    4    4    0    0  0.75663318373E+00 -0.72859880036E+01 -0.38608692903E+01  0.82803639195E+01  0.00000000000E+00 0.  1.
</event>
<event>
 8    1  0.2558382E-006  0.9118800E+02  0.7816164E-02  0.1184000E+00
        -11   -1    0    0    0    0  0.00000000000E+00  0.00000000000E+00  0.45593999997E+02  0.45594000000E+02  0.51100000000E-03 0.  1.
         11   -1    0    0    0    0 -0.00000000000E+00 -0.00000000000E+00 -0.45593999997E+02  0.45594000000E+02  0.51100000000E-03 0. -1.
         23    2    1    2    0    0  0.35527136788E-14  0.00000000000E+00  0.35527136788E-14  0.91188000000E+02  0.91188000000E+02 0.  0.
    9900012    2    3    3    0    0 -0.25122827000E+02  0.10135291038E+02 -0.24937915351E+02  0.54367079548E+02  0.39999989446E+02 0.  0.
        -12    1    3    3    0    0  0.25122827000E+02 -0.10135291038E+02  0.24937915351E+02  0.36820920452E+02  0.00000000000E+00 0.  1.
         11    1    4    4    0    0 -0.90869307735E+01  0.15188495920E+01 -0.25514758050E+02  0.27127146801E+02  0.51100000000E-03 0. -1.
        -11    1    4    4    0    0  0.48070389488E+01  0.63620376268E+00 -0.62555489419E+00  0.48891408110E+01  0.51100000000E-03 0.  1.
        -12    1    4    4    0    0 -0.20842935175E+02  0.79802376830E+01  0.12023975936E+01  0.22350791936E+02  0.00000000000E+00 0.  1.
</event>
<event>
 8    1  0.2558382E-006  0.9118800E+02  0.7816164E-02  0.1184000E+00
        -11   -1    0    0    0    0  0.00000000000E+00  0.00000000000E+00  0.45593999997E+02  0.45594000000E+02  0.51100000000E-03 0. -1.
         11   -1    0    0    0    0 -0.00000000000E+00 -0.00000000000E+00 -0.45593999997E+02  0.45594000000E+02  0.51100000000E-03 0.  1.
         23    2    1    2    0    0 -0.35527136788E-14  0.00000000000E+00 -0.88817841970E-15  0.91188000000E+02  0.91188000000E+02 0.  0.
    9900012    2    3    3    0    0  0.28397897032E+02 -0.22782860416E+02  0.55027475437E+01  0.54367088616E+02  0.40000010119E+02 0.  0.
        -12    1    3    3    0    0 -0.28397897032E+02  0.22782860416E+02 -0.55027475437E+01  0.36820911384E+02  0.00000000000E+00 0.  1.
         11    1    4    4    0    0 -0.97265014149E+00  0.27087847871E+01  0.34550754435E+01  0.44967888434E+01  0.51100000000E-03 0. -1.
        -11    1    4    4    0    0 -0.88432845529E+00 -0.10160299367E+02 -0.96021737119E+01  0.14007692897E+02  0.51100000000E-03 0.  1.
        -12    1    4    4    0    0  0.30254875629E+02 -0.15331345836E+02  0.11649845812E+02  0.35862606876E+02  0.00000000000E+00 0.  1.
</event>
<event>
 8    1  0.2558382E-006  0.9118800E+02  0.7816164E-02  0.1184000E+00
        -11   -1    0    0    0    0  0.00000000000E+00  0.00000000000E+00  0.45593999997E+02  0.45594000000E+02  0.51100000000E-03 0. -1.
         11   -1    0    0    0    0 -0.00000000000E+00 -0.00000000000E+00 -0.45593999997E+02  0.45594000000E+02  0.51100000000E-03 0.  1.
         23    2    1    2    0    0  0.35527136788E-14  0.88817841970E-15  0.00000000000E+00  0.91188000000E+02  0.91188000000E+02 0.  0.
    9900012    2    3    3    0    0 -0.25455720340E+02 -0.57650705932E+01 -0.25972101659E+02  0.54367084727E+02  0.40000001252E+02 0.  0.
         12    1    3    3    0    0  0.25455720340E+02  0.57650705932E+01  0.25972101659E+02  0.36820915273E+02  0.00000000000E+00 0. -1.
         11    1    4    4    0    0 -0.82201770412E+01  0.11618934938E+02 -0.72141318040E+01  0.15956649323E+02  0.51100000000E-03 0. -1.
        -11    1    4    4    0    0 -0.57293265341E+01 -0.14338006758E+02 -0.21232807464E+02  0.26253299476E+02  0.51100000000E-03 0.  1.
         12    1    4    4    0    0 -0.11506216765E+02 -0.30459987733E+01  0.24748376099E+01  0.12157135927E+02  0.00000000000E+00 0. -1.
</event>
<event>
 8    1  0.2558382E-006  0.9118800E+02  0.7816164E-02  0.1184000E+00
        -11   -1    0    0    0    0  0.00000000000E+00  0.00000000000E+00  0.45593999997E+02  0.45594000000E+02  0.51100000000E-03 0.  1.
         11   -1    0    0    0    0 -0.00000000000E+00 -0.00000000000E+00 -0.45593999997E+02  0.45594000000E+02  0.51100000000E-03 0. -1.
         23    2    1    2    0    0  0.00000000000E+00  0.35527136788E-14  0.00000000000E+00  0.91188000000E+02  0.91188000000E+02 0.  0.
    9900012    2    3    3    0    0 -0.19497655442E+02  0.29955024897E+02  0.88497423122E+01  0.54367081715E+02  0.39999994386E+02 0.  0.
         12    1    3    3    0    0  0.19497655442E+02 -0.29955024897E+02 -0.88497423122E+01  0.36820918285E+02  0.00000000000E+00 0. -1.
         11    1    4    4    0    0  0.44609675364E+01 -0.64798873293E+01  0.36221110468E+00  0.78753011566E+01  0.51100000000E-03 0. -1.
        -11    1    4    4    0    0 -0.15520981180E+02  0.27585493365E+02  0.78910352273E-01  0.31652275244E+02  0.51100000000E-03 0.  1.
        -12    1    4    4    0    0 -0.84376417983E+01  0.88494188617E+01  0.84086208552E+01  0.14839505315E+02  0.00000000000E+00 0.  1.
</event>
<event>
 8    1  0.2558382E-006  0.9118800E+02  0.7816164E-02  0.1184000E+00
        -11   -1    0    0    0    0  0.00000000000E+00  0.00000000000E+00  0.45593999997E+02  0.45594000000E+02  0.51100000000E-03 0.  1.
         11   -1    0    0    0    0 -0.00000000000E+00 -0.00000000000E+00 -0.45593999997E+02  0.45594000000E+02  0.51100000000E-03 0. -1.
         23    2    1    2    0    0  0.00000000000E+00  0.00000000000E+00  0.00000000000E+00  0.91188000000E+02  0.91188000000E+02 0.  0.
    9900012    2    3    3    0    0  0.32282847038E+02 -0.17505543476E+02 -0.26746555313E+01  0.54367081387E+02  0.39999993638E+02 0.  0.
        -12    1    3    3    0    0 -0.32282847038E+02  0.17505543476E+02  0.26746555313E+01  0.36820918613E+02  0.00000000000E+00 0.  1.
         11    1    4    4    0    0  0.21246303254E+02 -0.14992511304E+02  0.63050922424E+01  0.26756961442E+02  0.51100000000E-03 0.  1.
        -11    1    4    4    0    0 -0.32000509629E+01 -0.89084049688E+01 -0.72182916798E+01  0.11903938016E+02  0.51100000000E-03 0. -1.
         12    1    4    4    0    0  0.14236594748E+02  0.63953727971E+01 -0.17614560939E+01  0.15706181929E+02  0.00000000000E+00 0. -1.
</event>
<event>
 8    1  0.2558382E-006  0.9118800E+02  0.7816164E-02  0.1184000E+00
        -11   -1    0    0    0    0  0.00000000000E+00  0.00000000000E+00  0.45593999997E+02  0.45594000000E+02  0.51100000000E-03 0.  1.
         11   -1    0    0    0    0 -0.00000000000E+00 -0.00000000000E+00 -0.45593999997E+02  0.45594000000E+02  0.51100000000E-03 0. -1.
         23    2    1    2    0    0  0.00000000000E+00  0.00000000000E+00  0.17763568394E-14  0.91188000000E+02  0.91188000000E+02 0.  0.
    9900012    2    3    3    0    0  0.13027447661E+02  0.32898195767E+02 -0.10187000537E+02  0.54367073107E+02  0.39999974763E+02 0.  0.
         12    1    3    3    0    0 -0.13027447661E+02 -0.32898195767E+02  0.10187000537E+02  0.36820926893E+02  0.00000000000E+00 0. -1.
         11    1    4    4    0    0 -0.21887480428E+01  0.11987063222E+02 -0.92903003201E+01  0.15322858186E+02  0.51100000000E-03 0. -1.
        -11    1    4    4    0    0  0.48659075146E+01  0.21194964256E+02 -0.11179411516E+02  0.24451642232E+02  0.51100000000E-03 0.  1.
         12    1    4    4    0    0  0.10350288189E+02 -0.28383171084E+00  0.10282711299E+02  0.14592572689E+02  0.00000000000E+00 0. -1.
</event>
<event>
 8    1  0.2558382E-006  0.9118800E+02  0.7816164E-02  0.1184000E+00
        -11   -1    0    0    0    0  0.00000000000E+00  0.00000000000E+00  0.45593999997E+02  0.45594000000E+02  0.51100000000E-03 0.  1.
         11   -1    0    0    0    0 -0.00000000000E+00 -0.00000000000E+00 -0.45593999997E+02  0.45594000000E+02  0.51100000000E-03 0. -1.
         23    2    1    2    0    0  0.00000000000E+00  0.35527136788E-14  0.00000000000E+00  0.91188000000E+02  0.91188000000E+02 0.  0.
    9900012    2    3    3    0    0  0.23143517008E+02  0.22675149735E+02 -0.17492761484E+02  0.54367061672E+02  0.39999948694E+02 0.  0.
        -12    1    3    3    0    0 -0.23143517008E+02 -0.22675149735E+02  0.17492761484E+02  0.36820938328E+02  0.00000000000E+00 0.  1.
         11    1    4    4    0    0  0.19722709430E+02  0.91778354516E+01 -0.20150655064E+02  0.29652433806E+02  0.51100000000E-03 0. -1.
        -11    1    4    4    0    0  0.11477863713E+02  0.84576223987E+01  0.46658186513E+01  0.15001419800E+02  0.51100000000E-03 0.  1.
         12    1    4    4    0    0 -0.80570561347E+01  0.50396918852E+01 -0.20079250705E+01  0.97132080666E+01  0.00000000000E+00 0. -1.
</event>
<event>
 8    1  0.2558382E-006  0.9118800E+02  0.7816164E-02  0.1184000E+00
        -11   -1    0    0    0    0  0.00000000000E+00  0.00000000000E+00  0.45593999997E+02  0.45594000000E+02  0.51100000000E-03 0.  1.
         11   -1    0    0    0    0 -0.00000000000E+00 -0.00000000000E+00 -0.45593999997E+02  0.45594000000E+02  0.51100000000E-03 0. -1.
         23    2    1    2    0    0  0.00000000000E+00  0.00000000000E+00 -0.35527136788E-14  0.91188000000E+02  0.91188000000E+02 0.  0.
    9900012    2    3    3    0    0  0.23105672544E+02  0.21151562057E+02  0.19352433261E+02  0.54367117959E+02  0.40000077011E+02 0.  0.
         12    1    3    3    0    0 -0.23105672544E+02 -0.21151562057E+02 -0.19352433261E+02  0.36820882041E+02  0.00000000000E+00 0. -1.
         11    1    4    4    0    0  0.14924637561E+02 -0.19561525170E+01  0.66053907516E+01  0.16437838247E+02  0.51100000000E-03 0. -1.
        -11    1    4    4    0    0  0.17160581244E+02  0.16525262179E+02  0.49384298417E+01  0.24330185537E+02  0.51100000000E-03 0.  1.
         12    1    4    4    0    0 -0.89795462606E+01  0.65824523949E+01  0.78086126675E+01  0.13599094175E+02  0.00000000000E+00 0. -1.
</event>
<event>
 8    1  0.2558382E-006  0.9118800E+02  0.7816164E-02  0.1184000E+00
        -11   -1    0    0    0    0  0.00000000000E+00  0.00000000000E+00  0.45593999997E+02  0.45594000000E+02  0.51100000000E-03 0. -1.
         11   -1    0    0    0    0 -0.00000000000E+00 -0.00000000000E+00 -0.45593999997E+02  0.45594000000E+02  0.51100000000E-03 0.  1.
         23    2    1    2    0    0  0.00000000000E+00 -0.17763568394E-14  0.71054273576E-14  0.91188000000E+02  0.91188000000E+02 0.  0.
    9900012    2    3    3    0    0  0.12278303814E+02 -0.11650229646E+02 -0.32699982731E+02  0.54367170760E+02  0.40000197381E+02 0.  0.
         12    1    3    3    0    0 -0.12278303814E+02  0.11650229646E+02  0.32699982731E+02  0.36820829240E+02  0.00000000000E+00 0. -1.
         11    1    4    4    0    0  0.11740255530E+02  0.80838893146E+01 -0.78793440315E+01  0.16287017191E+02  0.51100000000E-03 0. -1.
        -11    1    4    4    0    0  0.37758734406E+01  0.11351852569E+00 -0.15429921418E+02  0.15885609271E+02  0.51100000000E-03 0.  1.
        -12    1    4    4    0    0 -0.32378251563E+01 -0.19847637486E+02 -0.93907172814E+01  0.22194544298E+02  0.00000000000E+00 0.  1.
</event>
<event>
 8    1  0.2558382E-006  0.9118800E+02  0.7816164E-02  0.1184000E+00
        -11   -1    0    0    0    0  0.00000000000E+00  0.00000000000E+00  0.45593999997E+02  0.45594000000E+02  0.51100000000E-03 0. -1.
         11   -1    0    0    0    0 -0.00000000000E+00 -0.00000000000E+00 -0.45593999997E+02  0.45594000000E+02  0.51100000000E-03 0.  1.
         23    2    1    2    0    0  0.35527136788E-14  0.35527136788E-14 -0.35527136788E-14  0.91188000000E+02  0.91188000000E+02 0.  0.
    9900012    2    3    3    0    0  0.15795730479E+02  0.21751025151E+02 -0.25162838040E+02  0.54367073685E+02  0.39999976080E+02 0.  0.
         12    1    3    3    0    0 -0.15795730479E+02 -0.21751025151E+02  0.25162838040E+02  0.36820926315E+02  0.00000000000E+00 0. -1.
         11    1    4    4    0    0 -0.33745070159E+01 -0.20287847794E+00  0.99031451117E+00  0.35226666560E+01  0.51100000000E-03 0. -1.
        -11    1    4    4    0    0  0.61015006277E+01  0.19552322589E+02  0.11134388050E+01  0.20512468763E+02  0.51100000000E-03 0.  1.
        -12    1    4    4    0    0  0.13068736867E+02  0.24015810404E+01 -0.27266591356E+02  0.30331938266E+02  0.00000000000E+00 0.  1.
</event>
<event>
 8    1  0.2558382E-006  0.9118800E+02  0.7816164E-02  0.1184000E+00
        -11   -1    0    0    0    0  0.00000000000E+00  0.00000000000E+00  0.45593999997E+02  0.45594000000E+02  0.51100000000E-03 0. -1.
         11   -1    0    0    0    0 -0.00000000000E+00 -0.00000000000E+00 -0.45593999997E+02  0.45594000000E+02  0.51100000000E-03 0.  1.
         23    2    1    2    0    0  0.35527136788E-14  0.88817841970E-15  0.00000000000E+00  0.91188000000E+02  0.91188000000E+02 0.  0.
    9900012    2    3    3    0    0  0.30669557424E+02  0.51825436059E+01 -0.19705298220E+02  0.54367091690E+02  0.40000017126E+02 0.  0.
         12    1    3    3    0    0 -0.30669557424E+02 -0.51825436059E+01  0.19705298220E+02  0.36820908310E+02  0.00000000000E+00 0. -1.
         11    1    4    4    0    0  0.20415325468E+02  0.14342137895E+02  0.38715894284E+01  0.25248200695E+02  0.51100000000E-03 0. -1.
        -11    1    4    4    0    0  0.44366132983E+01 -0.44058457492E+01 -0.24839355831E+01  0.67279231986E+01  0.51100000000E-03 0.  1.
        -12    1    4    4    0    0  0.58176186576E+01 -0.47537485395E+01 -0.21092952066E+02  0.22390967797E+02  0.00000000000E+00 0.  1.
</event>
<event>
 8    1  0.2558382E-006  0.9118800E+02  0.7816164E-02  0.1184000E+00
        -11   -1    0    0    0    0  0.00000000000E+00  0.00000000000E+00  0.45593999997E+02  0.45594000000E+02  0.51100000000E-03 0.  1.
         11   -1    0    0    0    0 -0.00000000000E+00 -0.00000000000E+00 -0.45593999997E+02  0.45594000000E+02  0.51100000000E-03 0. -1.
         23    2    1    2    0    0  0.17763568394E-14  0.00000000000E+00  0.35527136788E-14  0.91188000000E+02  0.91188000000E+02 0.  0.
    9900012    2    3    3    0    0 -0.66730830046E+01  0.34178732666E+02  0.11960945192E+02  0.54367081851E+02  0.39999994696E+02 0.  0.
         12    1    3    3    0    0  0.66730830046E+01 -0.34178732666E+02 -0.11960945192E+02  0.36820918149E+02  0.00000000000E+00 0. -1.
         11    1    4    4    0    0  0.10155964303E+02  0.14665792099E+02  0.57169977195E+01  0.18732675516E+02  0.51100000000E-03 0. -1.
        -11    1    4    4    0    0 -0.17062788168E+02  0.61580410839E+01 -0.42700516433E+01  0.18635813675E+02  0.51100000000E-03 0.  1.
        -12    1    4    4    0    0  0.23374085989E+00  0.13354899484E+02  0.10513999115E+02  0.16998592660E+02  0.00000000000E+00 0.  1.
</event>
<event>
 8    1  0.2558382E-006  0.9118800E+02  0.7816164E-02  0.1184000E+00
        -11   -1    0    0    0    0  0.00000000000E+00  0.00000000000E+00  0.45593999997E+02  0.45594000000E+02  0.51100000000E-03 0. -1.
         11   -1    0    0    0    0 -0.00000000000E+00 -0.00000000000E+00 -0.45593999997E+02  0.45594000000E+02  0.51100000000E-03 0.  1.
         23    2    1    2    0    0  0.00000000000E+00  0.00000000000E+00  0.00000000000E+00  0.91188000000E+02  0.91188000000E+02 0.  0.
    9900012    2    3    3    0    0 -0.72492576131E+01  0.13052349987E+02  0.33658054600E+02  0.54367079105E+02  0.39999988435E+02 0.  0.
        -12    1    3    3    0    0  0.72492576131E+01 -0.13052349987E+02 -0.33658054600E+02  0.36820920895E+02  0.00000000000E+00 0.  1.
         11    1    4    4    0    0 -0.10095185115E+02  0.11644910388E+02  0.97814605922E+01  0.18253593401E+02  0.51100000000E-03 0. -1.
        -11    1    4    4    0    0  0.33849988850E+01  0.10992978387E+02  0.12941093990E+01  0.11574908668E+02  0.51100000000E-03 0.  1.
         12    1    4    4    0    0 -0.53907138339E+00 -0.95855387892E+01  0.22582484609E+02  0.24538577036E+02  0.00000000000E+00 0. -1.
</event>
<event>
 8    1  0.2558382E-006  0.9118800E+02  0.7816164E-02  0.1184000E+00
        -11   -1    0    0    0    0  0.00000000000E+00  0.00000000000E+00  0.45593999997E+02  0.45594000000E+02  0.51100000000E-03 0.  1.
         11   -1    0    0    0    0 -0.00000000000E+00 -0.00000000000E+00 -0.45593999997E+02  0.45594000000E+02  0.51100000000E-03 0. -1.
         23    2    1    2    0    0  0.00000000000E+00  0.00000000000E+00  0.00000000000E+00  0.91188000000E+02  0.91188000000E+02 0.  0.
    9900012    2    3    3    0    0  0.31784555042E+02 -0.17553065052E+02  0.61165246586E+01  0.54367083310E+02  0.39999998022E+02 0.  0.
        -12    1    3    3    0    0 -0.31784555042E+02  0.17553065052E+02 -0.61165246586E+01  0.36820916690E+02  0.00000000000E+00 0.  1.
         11    1    4    4    0    0  0.20519868085E+02 -0.11912238338E+02  0.85969189428E+01  0.25236351243E+02  0.51100000000E-03 0. -1.
        -11    1    4    4    0    0  0.99909280535E+01  0.81390842956E+01 -0.68818129661E+01  0.14608993343E+02  0.51100000000E-03 0.  1.
         12    1    4    4    0    0  0.12737589037E+01 -0.13779911009E+02  0.44014186819E+01  0.14521738725E+02  0.00000000000E+00 0. -1.
</event>
<event>
 8    1  0.2558382E-006  0.9118800E+02  0.7816164E-02  0.1184000E+00
        -11   -1    0    0    0    0  0.00000000000E+00  0.00000000000E+00  0.45593999997E+02  0.45594000000E+02  0.51100000000E-03 0.  1.
         11   -1    0    0    0    0 -0.00000000000E+00 -0.00000000000E+00 -0.45593999997E+02  0.45594000000E+02  0.51100000000E-03 0. -1.
         23    2    1    2    0    0  0.00000000000E+00 -0.35527136788E-14  0.00000000000E+00  0.91188000000E+02  0.91188000000E+02 0.  0.
    9900012    2    3    3    0    0  0.95996641328E+01 -0.23499882413E+02  0.26671722717E+02  0.54367098089E+02  0.40000031713E+02 0.  0.
         12    1    3    3    0    0 -0.95996641328E+01  0.23499882413E+02 -0.26671722717E+02  0.36820901911E+02  0.00000000000E+00 0. -1.
         11    1    4    4    0    0  0.11950101591E+02  0.41263795258E+01  0.17792950686E+02  0.21827071045E+02  0.51100000000E-03 0. -1.
        -11    1    4    4    0    0 -0.66358850245E+01 -0.24921761315E+02  0.52809439329E+01  0.26325226042E+02  0.51100000000E-03 0.  1.
         12    1    4    4    0    0  0.42854475665E+01 -0.27045006239E+01  0.35978280980E+01  0.62148010018E+01  0.00000000000E+00 0. -1.
</event>
<event>
 8    1  0.2558382E-006  0.9118800E+02  0.7816164E-02  0.1184000E+00
        -11   -1    0    0    0    0  0.00000000000E+00  0.00000000000E+00  0.45593999997E+02  0.45594000000E+02  0.51100000000E-03 0. -1.
         11   -1    0    0    0    0 -0.00000000000E+00 -0.00000000000E+00 -0.45593999997E+02  0.45594000000E+02  0.51100000000E-03 0.  1.
         23    2    1    2    0    0 -0.35527136788E-14  0.17763568394E-14  0.00000000000E+00  0.91188000000E+02  0.91188000000E+02 0.  0.
    9900012    2    3    3    0    0 -0.15427591854E+02  0.91955071665E+01  0.32143636939E+02  0.54367063861E+02  0.39999953684E+02 0.  0.
        -12    1    3    3    0    0  0.15427591854E+02 -0.91955071665E+01 -0.32143636939E+02  0.36820936139E+02  0.00000000000E+00 0.  1.
         11    1    4    4    0    0 -0.24075483170E+02 -0.20625442652E+01  0.17633240224E+02  0.29913444131E+02  0.51100000000E-03 0. -1.
        -11    1    4    4    0    0 -0.51153727682E+00  0.10292899783E+02  0.92445344505E+01  0.13844380585E+02  0.51100000000E-03 0.  1.
        -12    1    4    4    0    0  0.91594285925E+01  0.96515164877E+00  0.52658622648E+01  0.10609239145E+02  0.00000000000E+00 0.  1.
</event>
<event>
 8    1  0.2558382E-006  0.9118800E+02  0.7816164E-02  0.1184000E+00
        -11   -1    0    0    0    0  0.00000000000E+00  0.00000000000E+00  0.45593999997E+02  0.45594000000E+02  0.51100000000E-03 0. -1.
         11   -1    0    0    0    0 -0.00000000000E+00 -0.00000000000E+00 -0.45593999997E+02  0.45594000000E+02  0.51100000000E-03 0.  1.
         23    2    1    2    0    0 -0.35527136788E-14  0.00000000000E+00  0.00000000000E+00  0.91188000000E+02  0.91188000000E+02 0.  0.
    9900012    2    3    3    0    0 -0.31979754057E+02  0.84990234523E+01  0.16150609181E+02  0.54367078690E+02  0.39999987489E+02 0.  0.
        -12    1    3    3    0    0  0.31979754057E+02 -0.84990234523E+01 -0.16150609181E+02  0.36820921310E+02  0.00000000000E+00 0.  1.
         11    1    4    4    0    0 -0.28810195122E+02 -0.10292988066E+01  0.13265320044E+02  0.31734138008E+02  0.51100000000E-03 0. -1.
        -11    1    4    4    0    0 -0.94041234289E+01  0.86182055347E+01  0.75234383842E+01  0.14809224473E+02  0.51100000000E-03 0.  1.
        -12    1    4    4    0    0  0.62345644936E+01  0.91011672427E+00 -0.46381492473E+01  0.78237162089E+01  0.00000000000E+00 0.  1.
</event>
<event>
 8    1  0.2558382E-006  0.9118800E+02  0.7816164E-02  0.1184000E+00
        -11   -1    0    0    0    0  0.00000000000E+00  0.00000000000E+00  0.45593999997E+02  0.45594000000E+02  0.51100000000E-03 0. -1.
         11   -1    0    0    0    0 -0.00000000000E+00 -0.00000000000E+00 -0.45593999997E+02  0.45594000000E+02  0.51100000000E-03 0.  1.
         23    2    1    2    0    0  0.00000000000E+00  0.00000000000E+00  0.00000000000E+00  0.91188000000E+02  0.91188000000E+02 0.  0.
    9900012    2    3    3    0    0 -0.16023931965E+02  0.31658625878E+02  0.98359651594E+01  0.54367065754E+02  0.39999958000E+02 0.  0.
         12    1    3    3    0    0  0.16023931965E+02 -0.31658625878E+02 -0.98359651594E+01  0.36820934246E+02  0.00000000000E+00 0. -1.
         11    1    4    4    0    0  0.18735148231E+01  0.13478306128E+02  0.16143388650E+02  0.21113592571E+02  0.51100000000E-03 0. -1.
        -11    1    4    4    0    0 -0.13249928390E+02  0.22606309270E+02 -0.56184534102E+01  0.26798746988E+02  0.51100000000E-03 0.  1.
        -12    1    4    4    0    0 -0.46475183976E+01 -0.44259895200E+01 -0.68897008042E+00  0.64547261955E+01  0.00000000000E+00 0.  1.
</event>
<event>
 8    1  0.2558382E-006  0.9118800E+02  0.7816164E-02  0.1184000E+00
        -11   -1    0    0    0    0  0.00000000000E+00  0.00000000000E+00  0.45593999997E+02  0.45594000000E+02  0.51100000000E-03 0. -1.
         11   -1    0    0    0    0 -0.00000000000E+00 -0.00000000000E+00 -0.45593999997E+02  0.45594000000E+02  0.51100000000E-03 0.  1.
         23    2    1    2    0    0 -0.88817841970E-15  0.00000000000E+00  0.35527136788E-14  0.91188000000E+02  0.91188000000E+02 0.  0.
    9900012    2    3    3    0    0  0.37502684643E+01  0.23335171740E+02 -0.28234429971E+02  0.54367112050E+02  0.40000063539E+02 0.  0.
         12    1    3    3    0    0 -0.37502684643E+01 -0.23335171740E+02  0.28234429971E+02  0.36820887950E+02  0.00000000000E+00 0. -1.
         11    1    4    4    0    0 -0.20589982517E+01 -0.62015151663E+01 -0.87501826103E+00  0.65927172984E+01  0.51100000000E-03 0. -1.
        -11    1    4    4    0    0  0.82333572352E+01  0.29934227478E+02 -0.30677612384E+02  0.43645870915E+02  0.51100000000E-03 0.  1.
        -12    1    4    4    0    0 -0.24240905192E+01 -0.39754057136E+00  0.33182006746E+01  0.41285238365E+01  0.00000000000E+00 0.  1.
</event>
<event>
 8    1  0.2558382E-006  0.9118800E+02  0.7816164E-02  0.1184000E+00
        -11   -1    0    0    0    0  0.00000000000E+00  0.00000000000E+00  0.45593999997E+02  0.45594000000E+02  0.51100000000E-03 0. -1.
         11   -1    0    0    0    0 -0.00000000000E+00 -0.00000000000E+00 -0.45593999997E+02  0.45594000000E+02  0.51100000000E-03 0.  1.
         23    2    1    2    0    0  0.00000000000E+00 -0.88817841970E-15 -0.35527136788E-14  0.91188000000E+02  0.91188000000E+02 0.  0.
    9900012    2    3    3    0    0 -0.22334564209E+02  0.72867605937E+01  0.28352213853E+02  0.54367113689E+02  0.40000067276E+02 0.  0.
        -12    1    3    3    0    0  0.22334564209E+02 -0.72867605937E+01 -0.28352213853E+02  0.36820886311E+02  0.00000000000E+00 0.  1.
         11    1    4    4    0    0  0.38826452380E+01 -0.39923469225E+01  0.13324590666E+02  0.14441554095E+02  0.51100000000E-03 0. -1.
        -11    1    4    4    0    0 -0.59814315478E+00  0.10448435719E+02  0.84802184888E+01  0.13470029328E+02  0.51100000000E-03 0.  1.
        -12    1    4    4    0    0 -0.25619066293E+02  0.83067179673E+00  0.65474046982E+01  0.26455530265E+02  0.00000000000E+00 0.  1.
</event>
<event>
 8    1  0.2558382E-006  0.9118800E+02  0.7816164E-02  0.1184000E+00
        -11   -1    0    0    0    0  0.00000000000E+00  0.00000000000E+00  0.45593999997E+02  0.45594000000E+02  0.51100000000E-03 0. -1.
         11   -1    0    0    0    0 -0.00000000000E+00 -0.00000000000E+00 -0.45593999997E+02  0.45594000000E+02  0.51100000000E-03 0.  1.
         23    2    1    2    0    0  0.00000000000E+00  0.17763568394E-14  0.00000000000E+00  0.91188000000E+02  0.91188000000E+02 0.  0.
    9900012    2    3    3    0    0  0.11117765594E+02  0.11811704870E+02 -0.33055328764E+02  0.54367138475E+02  0.40000123781E+02 0.  0.
        -12    1    3    3    0    0 -0.11117765594E+02 -0.11811704870E+02  0.33055328764E+02  0.36820861525E+02  0.00000000000E+00 0.  1.
         11    1    4    4    0    0  0.61832131186E+01  0.10147886043E+01 -0.12831751266E+02  0.14279907605E+02  0.51100000000E-03 0. -1.
        -11    1    4    4    0    0 -0.10904341232E+01  0.21876530455E+02 -0.14259676432E+02  0.26136373190E+02  0.51100000000E-03 0.  1.
         12    1    4    4    0    0  0.60249865986E+01 -0.11079614189E+02 -0.59639010658E+01  0.13950857680E+02  0.00000000000E+00 0. -1.
</event>
<event>
 8    1  0.2558382E-006  0.9118800E+02  0.7816164E-02  0.1184000E+00
        -11   -1    0    0    0    0  0.00000000000E+00  0.00000000000E+00  0.45593999997E+02  0.45594000000E+02  0.51100000000E-03 0. -1.
         11   -1    0    0    0    0 -0.00000000000E+00 -0.00000000000E+00 -0.45593999997E+02  0.45594000000E+02  0.51100000000E-03 0.  1.
         23    2    1    2    0    0  0.00000000000E+00  0.00000000000E+00  0.00000000000E+00  0.91188000000E+02  0.91188000000E+02 0.  0.
    9900012    2    3    3    0    0 -0.10887319747E+02 -0.27039947274E+02  0.22496375440E+02  0.54367090345E+02  0.40000014060E+02 0.  0.
        -12    1    3    3    0    0  0.10887319747E+02  0.27039947274E+02 -0.22496375440E+02  0.36820909655E+02  0.00000000000E+00 0.  1.
         11    1    4    4    0    0 -0.44671604622E+01 -0.16553347287E+02 -0.11781930382E+01  0.17185952639E+02  0.51100000000E-03 0. -1.
        -11    1    4    4    0    0 -0.11971760603E+02 -0.34772901279E+01  0.25195687836E+02  0.28111159427E+02  0.51100000000E-03 0.  1.
        -12    1    4    4    0    0  0.55516013179E+01 -0.70093098587E+01 -0.15211193572E+01  0.90699782793E+01  0.00000000000E+00 0.  1.
</event>
<event>
 8    1  0.2558382E-006  0.9118800E+02  0.7816164E-02  0.1184000E+00
        -11   -1    0    0    0    0  0.00000000000E+00  0.00000000000E+00  0.45593999997E+02  0.45594000000E+02  0.51100000000E-03 0. -1.
         11   -1    0    0    0    0 -0.00000000000E+00 -0.00000000000E+00 -0.45593999997E+02  0.45594000000E+02  0.51100000000E-03 0.  1.
         23    2    1    2    0    0  0.35527136788E-14  0.00000000000E+00 -0.35527136788E-14  0.91188000000E+02  0.91188000000E+02 0.  0.
    9900012    2    3    3    0    0  0.19196970636E+02  0.97763464720E+01 -0.29860998072E+02  0.54367084234E+02  0.40000000129E+02 0.  0.
         12    1    3    3    0    0 -0.19196970636E+02 -0.97763464720E+01  0.29860998072E+02  0.36820915766E+02  0.00000000000E+00 0. -1.
         11    1    4    4    0    0 -0.43155232665E+01  0.13114138356E+02 -0.51811342169E+01  0.14746135694E+02  0.51100000000E-03 0. -1.
        -11    1    4    4    0    0  0.19669565748E+02 -0.76226311783E+01 -0.90303068950E+01  0.22946519685E+02  0.51100000000E-03 0.  1.
        -12    1    4    4    0    0  0.38429281546E+01  0.42848392948E+01 -0.15649556961E+02  0.16674428855E+02  0.00000000000E+00 0.  1.
</event>
<event>
 8    1  0.2558382E-006  0.9118800E+02  0.7816164E-02  0.1184000E+00
        -11   -1    0    0    0    0  0.00000000000E+00  0.00000000000E+00  0.45593999997E+02  0.45594000000E+02  0.51100000000E-03 0.  1.
         11   -1    0    0    0    0 -0.00000000000E+00 -0.00000000000E+00 -0.45593999997E+02  0.45594000000E+02  0.51100000000E-03 0. -1.
         23    2    1    2    0    0  0.00000000000E+00 -0.71054273576E-14  0.26645352591E-14  0.91188000000E+02  0.91188000000E+02 0.  0.
    9900012    2    3    3    0    0 -0.13351992851E+02 -0.33655223469E+02  0.66955398130E+01  0.54367081581E+02  0.39999994081E+02 0.  0.
         12    1    3    3    0    0  0.13351992851E+02  0.33655223469E+02 -0.66955398130E+01  0.36820918419E+02  0.00000000000E+00 0. -1.
         11    1    4    4    0    0  0.85760102717E+00 -0.26432977097E+02 -0.18314693628E+01  0.26510225160E+02  0.51100000000E-03 0. -1.
        -11    1    4    4    0    0  0.25600024511E+01  0.11738544420E+01 -0.42968726617E+01  0.51375735258E+01  0.51100000000E-03 0.  1.
        -12    1    4    4    0    0 -0.16769596329E+02 -0.83961008137E+01  0.12823881838E+02  0.22719282896E+02  0.00000000000E+00 0.  1.
</event>
<event>
 8    1  0.2558382E-006  0.9118800E+02  0.7816164E-02  0.1184000E+00
        -11   -1    0    0    0    0  0.00000000000E+00  0.00000000000E+00  0.45593999997E+02  0.45594000000E+02  0.51100000000E-03 0.  1.
         11   -1    0    0    0    0 -0.00000000000E+00 -0.00000000000E+00 -0.45593999997E+02  0.45594000000E+02  0.51100000000E-03 0. -1.
         23    2    1    2    0    0  0.00000000000E+00 -0.35527136788E-14 -0.88817841970E-15  0.91188000000E+02  0.91188000000E+02 0.  0.
    9900012    2    3    3    0    0  0.29429843971E+02 -0.21916661024E+02 -0.30535274150E+01  0.54367085070E+02  0.40000002034E+02 0.  0.
        -12    1    3    3    0    0 -0.29429843971E+02  0.21916661024E+02  0.30535274150E+01  0.36820914930E+02  0.00000000000E+00 0.  1.
         11    1    4    4    0    0 -0.68395961673E+01 -0.44522867474E+00 -0.89337009317E+01  0.11260076239E+02  0.51100000000E-03 0. -1.
        -11    1    4    4    0    0  0.16721221509E+02 -0.61132791503E+01  0.33821541361E+01  0.18122096942E+02  0.51100000000E-03 0.  1.
         12    1    4    4    0    0  0.19548218630E+02 -0.15358153199E+02  0.24980193805E+01  0.24984911889E+02  0.00000000000E+00 0. -1.
</event>
<event>
 8    1  0.2558382E-006  0.9118800E+02  0.7816164E-02  0.1184000E+00
        -11   -1    0    0    0    0  0.00000000000E+00  0.00000000000E+00  0.45593999997E+02  0.45594000000E+02  0.51100000000E-03 0.  1.
         11   -1    0    0    0    0 -0.00000000000E+00 -0.00000000000E+00 -0.45593999997E+02  0.45594000000E+02  0.51100000000E-03 0. -1.
         23    2    1    2    0    0  0.35527136788E-14  0.00000000000E+00  0.00000000000E+00  0.91188000000E+02  0.91188000000E+02 0.  0.
    9900012    2    3    3    0    0 -0.14541241809E+02  0.89769863113E+01  0.32615111678E+02  0.54367088735E+02  0.40000010390E+02 0.  0.
         12    1    3    3    0    0  0.14541241809E+02 -0.89769863113E+01 -0.32615111678E+02  0.36820911265E+02  0.00000000000E+00 0. -1.
         11    1    4    4    0    0 -0.18635909198E+02  0.10075913265E+02  0.18190141535E+02  0.27923151489E+02  0.51100000000E-03 0. -1.
        -11    1    4    4    0    0  0.52135560323E+01 -0.10757562143E+02  0.51842826191E+01  0.13030084278E+02  0.51100000000E-03 0.  1.
        -12    1    4    4    0    0 -0.11188886430E+01  0.96586351897E+01  0.92406875238E+01  0.13413852968E+02  0.00000000000E+00 0.  1.
</event>
<event>
 8    1  0.2558382E-006  0.9118800E+02  0.7816164E-02  0.1184000E+00
        -11   -1    0    0    0    0  0.00000000000E+00  0.00000000000E+00  0.45593999997E+02  0.45594000000E+02  0.51100000000E-03 0.  1.
         11   -1    0    0    0    0 -0.00000000000E+00 -0.00000000000E+00 -0.45593999997E+02  0.45594000000E+02  0.51100000000E-03 0. -1.
         23    2    1    2    0    0  0.26645352591E-14  0.17763568394E-14  0.71054273576E-14  0.91188000000E+02  0.91188000000E+02 0.  0.
    9900012    2    3    3    0    0  0.56829491763E+01  0.50390873528E+01  0.36029060404E+02  0.54367061578E+02  0.39999948479E+02 0.  0.
         12    1    3    3    0    0 -0.56829491763E+01 -0.50390873528E+01 -0.36029060404E+02  0.36820938422E+02  0.00000000000E+00 0. -1.
         11    1    4    4    0    0 -0.58292461158E+01 -0.32787978613E+00  0.83427873929E+01  0.10182814796E+02  0.51100000000E-03 0. -1.
        -11    1    4    4    0    0  0.15697310434E+02  0.15502761884E+02  0.24037426410E+02  0.32627274627E+02  0.51100000000E-03 0.  1.
         12    1    4    4    0    0 -0.41851151415E+01 -0.10135794745E+02  0.36488466011E+01  0.11556972155E+02  0.00000000000E+00 0. -1.
</event>
<event>
 8    1  0.2558382E-006  0.9118800E+02  0.7816164E-02  0.1184000E+00
        -11   -1    0    0    0    0  0.00000000000E+00  0.00000000000E+00  0.45593999997E+02  0.45594000000E+02  0.51100000000E-03 0.  1.
         11   -1    0    0    0    0 -0.00000000000E+00 -0.00000000000E+00 -0.45593999997E+02  0.45594000000E+02  0.51100000000E-03 0. -1.
         23    2    1    2    0    0  0.00000000000E+00  0.00000000000E+00  0.00000000000E+00  0.91188000000E+02  0.91188000000E+02 0.  0.
    9900012    2    3    3    0    0 -0.12205475094E+02  0.31337979667E+02 -0.14991232084E+02  0.54367087039E+02  0.40000006523E+02 0.  0.
         12    1    3    3    0    0  0.12205475094E+02 -0.31337979667E+02  0.14991232084E+02  0.36820912961E+02  0.00000000000E+00 0. -1.
         11    1    4    4    0    0  0.28957817969E+01  0.17243204188E+02 -0.24104650085E+01  0.17650042060E+02  0.51100000000E-03 0. -1.
        -11    1    4    4    0    0 -0.20181048977E+02  0.12038044947E+02 -0.55936632523E+00  0.23505364385E+02  0.51100000000E-03 0.  1.
        -12    1    4    4    0    0  0.50797920855E+01  0.20567305311E+01 -0.12021400750E+02  0.13211680594E+02  0.00000000000E+00 0.  1.
</event>
<event>
 8    1  0.2558382E-006  0.9118800E+02  0.7816164E-02  0.1184000E+00
        -11   -1    0    0    0    0  0.00000000000E+00  0.00000000000E+00  0.45593999997E+02  0.45594000000E+02  0.51100000000E-03 0. -1.
         11   -1    0    0    0    0 -0.00000000000E+00 -0.00000000000E+00 -0.45593999997E+02  0.45594000000E+02  0.51100000000E-03 0.  1.
         23    2    1    2    0    0  0.00000000000E+00 -0.71054273576E-14 -0.35527136788E-14  0.91188000000E+02  0.91188000000E+02 0.  0.
    9900012    2    3    3    0    0  0.12282084590E+02  0.25709960197E+02  0.23322243344E+02  0.54367099824E+02  0.40000035669E+02 0.  0.
        -12    1    3    3    0    0 -0.12282084590E+02 -0.25709960197E+02 -0.23322243344E+02  0.36820900176E+02  0.00000000000E+00 0.  1.
         11    1    4    4    0    0  0.90447060466E+01  0.19121023605E+02  0.57447987822E+01  0.21918552974E+02  0.51100000000E-03 0. -1.
        -11    1    4    4    0    0  0.12751010422E+02  0.10448751916E+02  0.76747740507E+01  0.18184247039E+02  0.51100000000E-03 0.  1.
        -12    1    4    4    0    0 -0.95136318785E+01 -0.38598153243E+01  0.99026705107E+01  0.14264299811E+02  0.00000000000E+00 0.  1.
</event>
<event>
 8    1  0.2558382E-006  0.9118800E+02  0.7816164E-02  0.1184000E+00
        -11   -1    0    0    0    0  0.00000000000E+00  0.00000000000E+00  0.45593999997E+02  0.45594000000E+02  0.51100000000E-03 0.  1.
         11   -1    0    0    0    0 -0.00000000000E+00 -0.00000000000E+00 -0.45593999997E+02  0.45594000000E+02  0.51100000000E-03 0. -1.
         23    2    1    2    0    0  0.00000000000E+00  0.35527136788E-14 -0.17763568394E-14  0.91188000000E+02  0.91188000000E+02 0.  0.
    9900012    2    3    3    0    0  0.24990863650E+02 -0.24107352057E+02  0.12250419338E+02  0.54367075743E+02  0.39999980770E+02 0.  0.
         12    1    3    3    0    0 -0.24990863650E+02  0.24107352057E+02 -0.12250419338E+02  0.36820924257E+02  0.00000000000E+00 0. -1.
         11    1    4    4    0    0  0.13531510712E+02  0.57965068719E+01  0.17916844014E+01  0.14829410215E+02  0.51100000000E-03 0. -1.
        -11    1    4    4    0    0  0.16637615157E+02 -0.25258593029E+02  0.11776320052E+02  0.32457487181E+02  0.51100000000E-03 0.  1.
        -12    1    4    4    0    0 -0.51782622182E+01 -0.46452659005E+01 -0.13175851150E+01  0.70801783468E+01  0.00000000000E+00 0.  1.
</event>
<event>
 8    1  0.2558382E-006  0.9118800E+02  0.7816164E-02  0.1184000E+00
        -11   -1    0    0    0    0  0.00000000000E+00  0.00000000000E+00  0.45593999997E+02  0.45594000000E+02  0.51100000000E-03 0. -1.
         11   -1    0    0    0    0 -0.00000000000E+00 -0.00000000000E+00 -0.45593999997E+02  0.45594000000E+02  0.51100000000E-03 0.  1.
         23    2    1    2    0    0 -0.35527136788E-14  0.35527136788E-14  0.00000000000E+00  0.91188000000E+02  0.91188000000E+02 0.  0.
    9900012    2    3    3    0    0  0.26424572265E+02 -0.24485535038E+02 -0.76145173815E+01  0.54367077681E+02  0.39999985189E+02 0.  0.
        -12    1    3    3    0    0 -0.26424572265E+02  0.24485535038E+02  0.76145173815E+01  0.36820922319E+02  0.00000000000E+00 0.  1.
         11    1    4    4    0    0  0.19142768992E+02 -0.21835557290E+02 -0.54046204809E+01  0.29537215334E+02  0.51100000000E-03 0. -1.
        -11    1    4    4    0    0  0.10407103065E+01 -0.11155567168E+01 -0.12556930943E+02  0.12649271114E+02  0.51100000000E-03 0.  1.
        -12    1    4    4    0    0  0.62410929663E+01 -0.15344210310E+01  0.10347034043E+02  0.12180591234E+02  0.00000000000E+00 0.  1.
</event>
<event>
 8    1  0.2558382E-006  0.9118800E+02  0.7816164E-02  0.1184000E+00
        -11   -1    0    0    0    0  0.00000000000E+00  0.00000000000E+00  0.45593999997E+02  0.45594000000E+02  0.51100000000E-03 0.  1.
         11   -1    0    0    0    0 -0.00000000000E+00 -0.00000000000E+00 -0.45593999997E+02  0.45594000000E+02  0.51100000000E-03 0. -1.
         23    2    1    2    0    0  0.35527136788E-14 -0.35527136788E-14  0.88817841970E-15  0.91188000000E+02  0.91188000000E+02 0.  0.
    9900012    2    3    3    0    0 -0.27476327523E+02  0.23936807593E+02 -0.52782704588E+01  0.54367089217E+02  0.40000011487E+02 0.  0.
         12    1    3    3    0    0  0.27476327523E+02 -0.23936807593E+02  0.52782704588E+01  0.36820910783E+02  0.00000000000E+00 0. -1.
         11    1    4    4    0    0 -0.23849505471E+02  0.33001656928E+01 -0.69989497678E+01  0.25073398312E+02  0.51100000000E-03 0. -1.
        -11    1    4    4    0    0 -0.88653104544E+01  0.21031859548E+02 -0.19162127284E+01  0.22904251068E+02  0.51100000000E-03 0.  1.
         12    1    4    4    0    0  0.52384884023E+01 -0.39521764828E+00  0.36368920373E+01  0.63894398363E+01  0.00000000000E+00 0. -1.
</event>
<event>
 8    1  0.2558382E-006  0.9118800E+02  0.7816164E-02  0.1184000E+00
        -11   -1    0    0    0    0  0.00000000000E+00  0.00000000000E+00  0.45593999997E+02  0.45594000000E+02  0.51100000000E-03 0. -1.
         11   -1    0    0    0    0 -0.00000000000E+00 -0.00000000000E+00 -0.45593999997E+02  0.45594000000E+02  0.51100000000E-03 0.  1.
         23    2    1    2    0    0  0.00000000000E+00  0.35527136788E-14 -0.35527136788E-14  0.91188000000E+02  0.91188000000E+02 0.  0.
    9900012    2    3    3    0    0  0.12450274629E+02 -0.25776448821E+02  0.23159271481E+02  0.54366993663E+02  0.39999793653E+02 0.  0.
        -12    1    3    3    0    0 -0.12450274629E+02  0.25776448821E+02 -0.23159271481E+02  0.36821006337E+02  0.00000000000E+00 0.  1.
         11    1    4    4    0    0  0.13377785897E+02 -0.86409671104E+01  0.80839000721E+01  0.17860036639E+02  0.51100000000E-03 0. -1.
        -11    1    4    4    0    0 -0.14545261580E+02 -0.63268739840E+01  0.70294664328E+01  0.17349563897E+02  0.51100000000E-03 0.  1.
        -12    1    4    4    0    0  0.13617750312E+02 -0.10808607727E+02  0.80459049758E+01  0.19157393127E+02  0.00000000000E+00 0.  1.
</event>
<event>
 8    1  0.2558382E-006  0.9118800E+02  0.7816164E-02  0.1184000E+00
        -11   -1    0    0    0    0  0.00000000000E+00  0.00000000000E+00  0.45593999997E+02  0.45594000000E+02  0.51100000000E-03 0.  1.
         11   -1    0    0    0    0 -0.00000000000E+00 -0.00000000000E+00 -0.45593999997E+02  0.45594000000E+02  0.51100000000E-03 0. -1.
         23    2    1    2    0    0  0.00000000000E+00  0.35527136788E-14 -0.35527136788E-14  0.91188000000E+02  0.91188000000E+02 0.  0.
    9900012    2    3    3    0    0 -0.30787880155E+02  0.14020124838E+02  0.14536695276E+02  0.54367177434E+02  0.40000212596E+02 0.  0.
         12    1    3    3    0    0  0.30787880155E+02 -0.14020124838E+02 -0.14536695276E+02  0.36820822566E+02  0.00000000000E+00 0. -1.
         11    1    4    4    0    0 -0.17049939211E+02 -0.11374018685E+02 -0.63549638623E+00  0.20505428161E+02  0.51100000000E-03 0. -1.
        -11    1    4    4    0    0 -0.78633641611E+01  0.59125918373E+01  0.37624845140E+01  0.10533163254E+02  0.51100000000E-03 0.  1.
         12    1    4    4    0    0 -0.58745767822E+01  0.19481551685E+02  0.11409707148E+02  0.23328586019E+02  0.00000000000E+00 0. -1.
</event>
<event>
 8    1  0.2558382E-006  0.9118800E+02  0.7816164E-02  0.1184000E+00
        -11   -1    0    0    0    0  0.00000000000E+00  0.00000000000E+00  0.45593999997E+02  0.45594000000E+02  0.51100000000E-03 0.  1.
         11   -1    0    0    0    0 -0.00000000000E+00 -0.00000000000E+00 -0.45593999997E+02  0.45594000000E+02  0.51100000000E-03 0. -1.
         23    2    1    2    0    0 -0.35527136788E-14  0.35527136788E-14  0.44408920985E-15  0.91188000000E+02  0.91188000000E+02 0.  0.
    9900012    2    3    3    0    0 -0.30160724275E+02  0.20965179129E+02 -0.25635865823E+01  0.54367082021E+02  0.39999995083E+02 0.  0.
        -12    1    3    3    0    0  0.30160724275E+02 -0.20965179129E+02  0.25635865823E+01  0.36820917979E+02  0.00000000000E+00 0.  1.
         11    1    4    4    0    0 -0.62106399856E+01  0.52384412072E+01 -0.10438302385E+02  0.13227678264E+02  0.51100000000E-03 0. -1.
        -11    1    4    4    0    0  0.60650109860E+01  0.10963241741E+01  0.43904063004E+01  0.75671627906E+01  0.51100000000E-03 0.  1.
         12    1    4    4    0    0 -0.30015095275E+02  0.14630413747E+02  0.34843095025E+01  0.33572240966E+02  0.00000000000E+00 0. -1.
</event>
<event>
 8    1  0.2558382E-006  0.9118800E+02  0.7816164E-02  0.1184000E+00
        -11   -1    0    0    0    0  0.00000000000E+00  0.00000000000E+00  0.45593999997E+02  0.45594000000E+02  0.51100000000E-03 0.  1.
         11   -1    0    0    0    0 -0.00000000000E+00 -0.00000000000E+00 -0.45593999997E+02  0.45594000000E+02  0.51100000000E-03 0. -1.
         23    2    1    2    0    0  0.00000000000E+00 -0.88817841970E-15  0.00000000000E+00  0.91188000000E+02  0.91188000000E+02 0.  0.
    9900012    2    3    3    0    0 -0.33023589380E+02  0.78803292919E+01 -0.14252121812E+02  0.54367081741E+02  0.39999994446E+02 0.  0.
        -12    1    3    3    0    0  0.33023589380E+02 -0.78803292919E+01  0.14252121812E+02  0.36820918259E+02  0.00000000000E+00 0.  1.
         11    1    4    4    0    0 -0.32139302796E+02  0.12141772540E+02  0.45443580611E+01  0.34655571198E+02  0.51100000000E-03 0. -1.
        -11    1    4    4    0    0  0.21129450976E-01 -0.28985258011E+00  0.15349086482E+00  0.32866499448E+00  0.51100000000E-03 0.  1.
        -12    1    4    4    0    0 -0.90541603532E+00 -0.39715906677E+01 -0.18949970738E+02  0.19382845549E+02  0.00000000000E+00 0.  1.
</event>
<event>
 8    1  0.2558382E-006  0.9118800E+02  0.7816164E-02  0.1184000E+00
        -11   -1    0    0    0    0  0.00000000000E+00  0.00000000000E+00  0.45593999997E+02  0.45594000000E+02  0.51100000000E-03 0. -1.
         11   -1    0    0    0    0 -0.00000000000E+00 -0.00000000000E+00 -0.45593999997E+02  0.45594000000E+02  0.51100000000E-03 0.  1.
         23    2    1    2    0    0  0.00000000000E+00 -0.35527136788E-14 -0.17763568394E-14  0.91188000000E+02  0.91188000000E+02 0.  0.
    9900012    2    3    3    0    0 -0.19351287856E+02  0.28099022395E+02 -0.13847239447E+02  0.54367171091E+02  0.40000198135E+02 0.  0.
         12    1    3    3    0    0  0.19351287856E+02 -0.28099022395E+02  0.13847239447E+02  0.36820828909E+02  0.00000000000E+00 0. -1.
         11    1    4    4    0    0 -0.16535639554E+02  0.39211484342E+01 -0.15058936729E+02  0.22706262488E+02  0.51100000000E-03 0. -1.
        -11    1    4    4    0    0 -0.11169443778E+02  0.16870053809E+02 -0.13241138331E+01  0.20275809911E+02  0.51100000000E-03 0.  1.
         12    1    4    4    0    0  0.83537954751E+01  0.73078201520E+01  0.25358111154E+01  0.11385098692E+02  0.00000000000E+00 0. -1.
</event>
<event>
 8    1  0.2558382E-006  0.9118800E+02  0.7816164E-02  0.1184000E+00
        -11   -1    0    0    0    0  0.00000000000E+00  0.00000000000E+00  0.45593999997E+02  0.45594000000E+02  0.51100000000E-03 0.  1.
         11   -1    0    0    0    0 -0.00000000000E+00 -0.00000000000E+00 -0.45593999997E+02  0.45594000000E+02  0.51100000000E-03 0. -1.
         23    2    1    2    0    0 -0.35527136788E-14  0.00000000000E+00  0.35527136788E-14  0.91188000000E+02  0.91188000000E+02 0.  0.
    9900012    2    3    3    0    0  0.25339809812E+02 -0.54633331957E+01 -0.26150068526E+02  0.54367081287E+02  0.39999993410E+02 0.  0.
        -12    1    3    3    0    0 -0.25339809812E+02  0.54633331957E+01  0.26150068526E+02  0.36820918713E+02  0.00000000000E+00 0.  1.
         11    1    4    4    0    0  0.29013782403E+02 -0.13878014169E+02 -0.16570396588E+02  0.36179785654E+02  0.51100000000E-03 0. -1.
        -11    1    4    4    0    0  0.36352343896E+01  0.29546810156E+01 -0.74793233292E+01  0.88252675141E+01  0.51100000000E-03 0.  1.
        -12    1    4    4    0    0 -0.73092069805E+01  0.54599999578E+01 -0.21003486090E+01  0.93620281191E+01  0.00000000000E+00 0.  1.
</event>
<event>
 8    1  0.2558382E-006  0.9118800E+02  0.7816164E-02  0.1184000E+00
        -11   -1    0    0    0    0  0.00000000000E+00  0.00000000000E+00  0.45593999997E+02  0.45594000000E+02  0.51100000000E-03 0. -1.
         11   -1    0    0    0    0 -0.00000000000E+00 -0.00000000000E+00 -0.45593999997E+02  0.45594000000E+02  0.51100000000E-03 0.  1.
         23    2    1    2    0    0 -0.35527136788E-14  0.00000000000E+00  0.35527136788E-14  0.91188000000E+02  0.91188000000E+02 0.  0.
    9900012    2    3    3    0    0  0.29128521802E+02 -0.17094172255E+02 -0.14666236272E+02  0.54367082116E+02  0.39999995300E+02 0.  0.
         12    1    3    3    0    0 -0.29128521802E+02  0.17094172255E+02  0.14666236272E+02  0.36820917884E+02  0.00000000000E+00 0. -1.
         11    1    4    4    0    0 -0.32816528820E+01 -0.62983045661E+01 -0.37011631643E+01  0.80085263985E+01  0.51100000000E-03 0. -1.
        -11    1    4    4    0    0 -0.47130140785E+01 -0.30548826356E+01  0.24586823047E+01  0.61310625962E+01  0.51100000000E-03 0.  1.
        -12    1    4    4    0    0  0.37123188762E+02 -0.77409850537E+01 -0.13423755412E+02  0.40227493121E+02  0.00000000000E+00 0.  1.
</event>
<event>
 8    1  0.2558382E-006  0.9118800E+02  0.7816164E-02  0.1184000E+00
        -11   -1    0    0    0    0  0.00000000000E+00  0.00000000000E+00  0.45593999997E+02  0.45594000000E+02  0.51100000000E-03 0.  1.
         11   -1    0    0    0    0 -0.00000000000E+00 -0.00000000000E+00 -0.45593999997E+02  0.45594000000E+02  0.51100000000E-03 0. -1.
         23    2    1    2    0    0  0.88817841970E-15  0.00000000000E+00  0.35527136788E-14  0.91188000000E+02  0.91188000000E+02 0.  0.
    9900012    2    3    3    0    0 -0.51458154373E+01  0.28043968100E+02 -0.23298860118E+02  0.54367075975E+02  0.39999981299E+02 0.  0.
        -12    1    3    3    0    0  0.51458154373E+01 -0.28043968100E+02  0.23298860118E+02  0.36820924025E+02  0.00000000000E+00 0.  1.
         11    1    4    4    0    0  0.43527146695E+01  0.18312056559E+01 -0.11935038620E+02  0.12835286762E+02  0.51100000000E-03 0. -1.
        -11    1    4    4    0    0 -0.17889520668E+01 -0.56754860750E+01 -0.56985786920E+01  0.82392530641E+01  0.51100000000E-03 0.  1.
         12    1    4    4    0    0 -0.77095780399E+01  0.31888248519E+02 -0.56652428061E+01  0.33292536148E+02  0.00000000000E+00 0. -1.
</event>
<event>
 8    1  0.2558382E-006  0.9118800E+02  0.7816164E-02  0.1184000E+00
        -11   -1    0    0    0    0  0.00000000000E+00  0.00000000000E+00  0.45593999997E+02  0.45594000000E+02  0.51100000000E-03 0.  1.
         11   -1    0    0    0    0 -0.00000000000E+00 -0.00000000000E+00 -0.45593999997E+02  0.45594000000E+02  0.51100000000E-03 0. -1.
         23    2    1    2    0    0 -0.17763568394E-14  0.00000000000E+00  0.17763568394E-14  0.91188000000E+02  0.91188000000E+02 0.  0.
    9900012    2    3    3    0    0 -0.13849524442E+02  0.31684024223E+02  0.12652779558E+02  0.54367088159E+02  0.40000009077E+02 0.  0.
         12    1    3    3    0    0  0.13849524442E+02 -0.31684024223E+02 -0.12652779558E+02  0.36820911841E+02  0.00000000000E+00 0. -1.
         11    1    4    4    0    0 -0.71443066488E+01 -0.27699469287E+01  0.21418834372E+00  0.76654810930E+01  0.51100000000E-03 0. -1.
        -11    1    4    4    0    0  0.59860716600E+01  0.15243097184E+02  0.16583972447E+02  0.23306934763E+02  0.51100000000E-03 0.  1.
         12    1    4    4    0    0 -0.12691289454E+02  0.19210873968E+02 -0.41453812327E+01  0.23394672303E+02  0.00000000000E+00 0. -1.
</event>
<event>
 8    1  0.2558382E-006  0.9118800E+02  0.7816164E-02  0.1184000E+00
        -11   -1    0    0    0    0  0.00000000000E+00  0.00000000000E+00  0.45593999997E+02  0.45594000000E+02  0.51100000000E-03 0. -1.
         11   -1    0    0    0    0 -0.00000000000E+00 -0.00000000000E+00 -0.45593999997E+02  0.45594000000E+02  0.51100000000E-03 0.  1.
         23    2    1    2    0    0  0.00000000000E+00 -0.35527136788E-14 -0.17763568394E-14  0.91188000000E+02  0.91188000000E+02 0.  0.
    9900012    2    3    3    0    0  0.17527580291E+02  0.29063795271E+02  0.14277961072E+02  0.54367076074E+02  0.39999981525E+02 0.  0.
        -12    1    3    3    0    0 -0.17527580291E+02 -0.29063795271E+02 -0.14277961072E+02  0.36820923926E+02  0.00000000000E+00 0.  1.
         11    1    4    4    0    0  0.20418840851E+01 -0.24108257324E+01 -0.17451703622E+01  0.36092923383E+01  0.51100000000E-03 0. -1.
        -11    1    4    4    0    0  0.63221492703E+01 -0.45238141661E+01 -0.37999747842E+01  0.86529922355E+01  0.51100000000E-03 0.  1.
         12    1    4    4    0    0  0.91635469356E+01  0.35998435169E+02  0.19823106219E+02  0.42104791500E+02  0.00000000000E+00 0. -1.
</event>
<event>
 8    1  0.2558382E-006  0.9118800E+02  0.7816164E-02  0.1184000E+00
        -11   -1    0    0    0    0  0.00000000000E+00  0.00000000000E+00  0.45593999997E+02  0.45594000000E+02  0.51100000000E-03 0. -1.
         11   -1    0    0    0    0 -0.00000000000E+00 -0.00000000000E+00 -0.45593999997E+02  0.45594000000E+02  0.51100000000E-03 0.  1.
         23    2    1    2    0    0  0.00000000000E+00 -0.66613381478E-15  0.71054273576E-14  0.91188000000E+02  0.91188000000E+02 0.  0.
    9900012    2    3    3    0    0 -0.87154714139E+01 -0.11717106658E+01  0.35755394008E+02  0.54367074584E+02  0.39999978129E+02 0.  0.
        -12    1    3    3    0    0  0.87154714139E+01  0.11717106658E+01 -0.35755394008E+02  0.36820925416E+02  0.00000000000E+00 0.  1.
         11    1    4    4    0    0 -0.69504759860E+01 -0.16385499402E+01 -0.36225200781E+01  0.80072850777E+01  0.51100000000E-03 0. -1.
        -11    1    4    4    0    0 -0.18676069182E+01  0.55584493821E+01 -0.74859554921E+00  0.59114051368E+01  0.51100000000E-03 0.  1.
         12    1    4    4    0    0  0.10261149028E+00 -0.50916101077E+01  0.40126509635E+02  0.40448384369E+02  0.00000000000E+00 0. -1.
</event>
<event>
 8    1  0.2558382E-006  0.9118800E+02  0.7816164E-02  0.1184000E+00
        -11   -1    0    0    0    0  0.00000000000E+00  0.00000000000E+00  0.45593999997E+02  0.45594000000E+02  0.51100000000E-03 0.  1.
         11   -1    0    0    0    0 -0.00000000000E+00 -0.00000000000E+00 -0.45593999997E+02  0.45594000000E+02  0.51100000000E-03 0. -1.
         23    2    1    2    0    0  0.13322676296E-14  0.44408920985E-15  0.00000000000E+00  0.91188000000E+02  0.91188000000E+02 0.  0.
    9900012    2    3    3    0    0 -0.38980449998E+01 -0.25504971666E+01  0.36525046728E+02  0.54367097932E+02  0.40000031355E+02 0.  0.
         12    1    3    3    0    0  0.38980449998E+01  0.25504971666E+01 -0.36525046728E+02  0.36820902068E+02  0.00000000000E+00 0. -1.
         11    1    4    4    0    0  0.68715168864E-01 -0.90028909446E+01  0.25486406801E+01  0.93569405637E+01  0.51100000000E-03 0. -1.
        -11    1    4    4    0    0 -0.13390628768E+02 -0.52699454717E+01  0.14854967738E+02  0.20682150053E+02  0.51100000000E-03 0.  1.
        -12    1    4    4    0    0  0.94238685990E+01  0.11722339250E+02  0.19121438310E+02  0.24328007315E+02  0.00000000000E+00 0.  1.
</event>
<event>
 8    1  0.2558382E-006  0.9118800E+02  0.7816164E-02  0.1184000E+00
        -11   -1    0    0    0    0  0.00000000000E+00  0.00000000000E+00  0.45593999997E+02  0.45594000000E+02  0.51100000000E-03 0.  1.
         11   -1    0    0    0    0 -0.00000000000E+00 -0.00000000000E+00 -0.45593999997E+02  0.45594000000E+02  0.51100000000E-03 0. -1.
         23    2    1    2    0    0  0.71054273576E-14  0.17763568394E-14  0.00000000000E+00  0.91188000000E+02  0.91188000000E+02 0.  0.
    9900012    2    3    3    0    0  0.32931327232E+02 -0.13595892856E+02  0.92979541376E+01  0.54367182967E+02  0.40000225210E+02 0.  0.
         12    1    3    3    0    0 -0.32931327232E+02  0.13595892856E+02 -0.92979541376E+01  0.36820817033E+02  0.00000000000E+00 0. -1.
         11    1    4    4    0    0 -0.22085332494E+01 -0.10949346065E+02  0.79033052492E+01  0.13683129485E+02  0.51100000000E-03 0. -1.
        -11    1    4    4    0    0  0.37716444206E+02 -0.27802398248E+01  0.14906949115E+00  0.37819070838E+02  0.51100000000E-03 0.  1.
        -12    1    4    4    0    0 -0.25765837251E+01  0.13369303432E+00  0.12455793972E+01  0.28649826447E+01  0.00000000000E+00 0.  1.
</event>
<event>
 8    1  0.2558382E-006  0.9118800E+02  0.7816164E-02  0.1184000E+00
        -11   -1    0    0    0    0  0.00000000000E+00  0.00000000000E+00  0.45593999997E+02  0.45594000000E+02  0.51100000000E-03 0. -1.
         11   -1    0    0    0    0 -0.00000000000E+00 -0.00000000000E+00 -0.45593999997E+02  0.45594000000E+02  0.51100000000E-03 0.  1.
         23    2    1    2    0    0  0.00000000000E+00  0.71054273576E-14  0.00000000000E+00  0.91188000000E+02  0.91188000000E+02 0.  0.
    9900012    2    3    3    0    0 -0.82385916360E+01  0.30769019678E+02 -0.18470863731E+02  0.54367085141E+02  0.40000002195E+02 0.  0.
         12    1    3    3    0    0  0.82385916360E+01 -0.30769019678E+02  0.18470863731E+02  0.36820914859E+02  0.00000000000E+00 0. -1.
         11    1    4    4    0    0 -0.54407576642E+00  0.44000947332E+01  0.47543512029E+01  0.65008236188E+01  0.51100000000E-03 0. -1.
        -11    1    4    4    0    0  0.22226121671E+01  0.30532986105E+02 -0.20254768321E+02  0.36707749663E+02  0.51100000000E-03 0.  1.
         12    1    4    4    0    0 -0.99171280366E+01 -0.41640611595E+01 -0.29704466132E+01  0.11158511859E+02  0.00000000000E+00 0. -1.
</event>
<event>
 8    1  0.2558382E-006  0.9118800E+02  0.7816164E-02  0.1184000E+00
        -11   -1    0    0    0    0  0.00000000000E+00  0.00000000000E+00  0.45593999997E+02  0.45594000000E+02  0.51100000000E-03 0.  1.
         11   -1    0    0    0    0 -0.00000000000E+00 -0.00000000000E+00 -0.45593999997E+02  0.45594000000E+02  0.51100000000E-03 0. -1.
         23    2    1    2    0    0  0.00000000000E+00  0.00000000000E+00  0.44408920985E-15  0.91188000000E+02  0.91188000000E+02 0.  0.
    9900012    2    3    3    0    0  0.36115630540E+02 -0.61100876492E+01  0.37561661665E+01  0.54367072192E+02  0.39999972677E+02 0.  0.
         12    1    3    3    0    0 -0.36115630540E+02  0.61100876492E+01 -0.37561661665E+01  0.36820927808E+02  0.00000000000E+00 0. -1.
         11    1    4    4    0    0  0.13361202673E+02  0.50829049713E+01 -0.10624632326E+02  0.17811245665E+02  0.51100000000E-03 0. -1.
        -11    1    4    4    0    0 -0.43831800361E-01 -0.89649249531E+01 -0.91493795553E+00  0.90115987685E+01  0.51100000000E-03 0.  1.
         12    1    4    4    0    0  0.22798259667E+02 -0.22280676674E+01  0.15295736448E+02  0.27544227759E+02  0.00000000000E+00 0. -1.
</event>
<event>
 8    1  0.2558382E-006  0.9118800E+02  0.7816164E-02  0.1184000E+00
        -11   -1    0    0    0    0  0.00000000000E+00  0.00000000000E+00  0.45593999997E+02  0.45594000000E+02  0.51100000000E-03 0.  1.
         11   -1    0    0    0    0 -0.00000000000E+00 -0.00000000000E+00 -0.45593999997E+02  0.45594000000E+02  0.51100000000E-03 0. -1.
         23    2    1    2    0    0  0.35527136788E-14  0.00000000000E+00  0.00000000000E+00  0.91188000000E+02  0.91188000000E+02 0.  0.
    9900012    2    3    3    0    0 -0.14628840746E+02  0.33730996816E+02  0.19995227365E+01  0.54367065480E+02  0.39999957374E+02 0.  0.
         12    1    3    3    0    0  0.14628840746E+02 -0.33730996816E+02 -0.19995227365E+01  0.36820934520E+02  0.00000000000E+00 0. -1.
         11    1    4    4    0    0  0.47596015375E+01 -0.33217889030E+01 -0.82931141877E+01  0.10122441973E+02  0.51100000000E-03 0. -1.
        -11    1    4    4    0    0 -0.40872137327E+01  0.14532189148E+02  0.75533619482E+01  0.16880258129E+02  0.51100000000E-03 0.  1.
         12    1    4    4    0    0 -0.15301228551E+02  0.22520596571E+02  0.27392749760E+01  0.27364365377E+02  0.00000000000E+00 0. -1.
</event>
<event>
 8    1  0.2558382E-006  0.9118800E+02  0.7816164E-02  0.1184000E+00
        -11   -1    0    0    0    0  0.00000000000E+00  0.00000000000E+00  0.45593999997E+02  0.45594000000E+02  0.51100000000E-03 0.  1.
         11   -1    0    0    0    0 -0.00000000000E+00 -0.00000000000E+00 -0.45593999997E+02  0.45594000000E+02  0.51100000000E-03 0. -1.
         23    2    1    2    0    0  0.00000000000E+00  0.00000000000E+00  0.35527136788E-14  0.91188000000E+02  0.91188000000E+02 0.  0.
    9900012    2    3    3    0    0 -0.23346675188E+02 -0.16798505936E+02 -0.22989595677E+02  0.54367101676E+02  0.40000039890E+02 0.  0.
        -12    1    3    3    0    0  0.23346675188E+02  0.16798505936E+02  0.22989595677E+02  0.36820898324E+02  0.00000000000E+00 0.  1.
         11    1    4    4    0    0  0.46289559437E+01 -0.45907522770E+01 -0.51197517208E+01  0.82893966934E+01  0.51100000000E-03 0. -1.
        -11    1    4    4    0    0  0.47953456628E+00 -0.93128392984E-01  0.66143387951E+01  0.66323528446E+01  0.51100000000E-03 0.  1.
         12    1    4    4    0    0 -0.28455165698E+02 -0.12114625266E+02 -0.24484182751E+02  0.39445352137E+02  0.00000000000E+00 0. -1.
</event>
<event>
 8    1  0.2558382E-006  0.9118800E+02  0.7816164E-02  0.1184000E+00
        -11   -1    0    0    0    0  0.00000000000E+00  0.00000000000E+00  0.45593999997E+02  0.45594000000E+02  0.51100000000E-03 0. -1.
         11   -1    0    0    0    0 -0.00000000000E+00 -0.00000000000E+00 -0.45593999997E+02  0.45594000000E+02  0.51100000000E-03 0.  1.
         23    2    1    2    0    0  0.00000000000E+00  0.00000000000E+00  0.00000000000E+00  0.91188000000E+02  0.91188000000E+02 0.  0.
    9900012    2    3    3    0    0 -0.46567697334E+01  0.15930179819E+02 -0.32868270382E+02  0.54367091113E+02  0.40000015809E+02 0.  0.
         12    1    3    3    0    0  0.46567697334E+01 -0.15930179819E+02  0.32868270382E+02  0.36820908887E+02  0.00000000000E+00 0. -1.
         11    1    4    4    0    0  0.24325306133E+01  0.16101843118E+01 -0.27443466771E+02  0.27598075429E+02  0.51100000000E-03 0. -1.
        -11    1    4    4    0    0  0.25004471950E+01  0.86166888165E+01 -0.11082434712E+02  0.14259029481E+02  0.51100000000E-03 0.  1.
         12    1    4    4    0    0 -0.95897475417E+01  0.57033066908E+01  0.56576311010E+01  0.12509986203E+02  0.00000000000E+00 0. -1.
</event>
<event>
 8    1  0.2558382E-006  0.9118800E+02  0.7816164E-02  0.1184000E+00
        -11   -1    0    0    0    0  0.00000000000E+00  0.00000000000E+00  0.45593999997E+02  0.45594000000E+02  0.51100000000E-03 0.  1.
         11   -1    0    0    0    0 -0.00000000000E+00 -0.00000000000E+00 -0.45593999997E+02  0.45594000000E+02  0.51100000000E-03 0. -1.
         23    2    1    2    0    0  0.00000000000E+00 -0.35527136788E-14  0.17763568394E-14  0.91188000000E+02  0.91188000000E+02 0.  0.
    9900012    2    3    3    0    0 -0.17268969926E+02 -0.29761748346E+02  0.13107309733E+02  0.54367074491E+02  0.39999977917E+02 0.  0.
         12    1    3    3    0    0  0.17268969926E+02  0.29761748346E+02 -0.13107309733E+02  0.36820925509E+02  0.00000000000E+00 0. -1.
         11    1    4    4    0    0 -0.10278901257E+02 -0.82761475134E+01  0.19112625522E+02  0.23225909741E+02  0.51100000000E-03 0. -1.
        -11    1    4    4    0    0 -0.88698835786E+01  0.11567047766E+00 -0.15426761226E+01  0.90037805525E+01  0.51100000000E-03 0.  1.
         12    1    4    4    0    0  0.18798149096E+01 -0.21601271310E+02 -0.44626396656E+01  0.22137384197E+02  0.00000000000E+00 0. -1.
</event>
<event>
 8    1  0.2558382E-006  0.9118800E+02  0.7816164E-02  0.1184000E+00
        -11   -1    0    0    0    0  0.00000000000E+00  0.00000000000E+00  0.45593999997E+02  0.45594000000E+02  0.51100000000E-03 0.  1.
         11   -1    0    0    0    0 -0.00000000000E+00 -0.00000000000E+00 -0.45593999997E+02  0.45594000000E+02  0.51100000000E-03 0. -1.
         23    2    1    2    0    0 -0.71054273576E-14  0.44408920985E-15  0.00000000000E+00  0.91188000000E+02  0.91188000000E+02 0.  0.
    9900012    2    3    3    0    0  0.23156561086E+02 -0.18788737532E+01 -0.28566123193E+02  0.54367083632E+02  0.39999998755E+02 0.  0.
        -12    1    3    3    0    0 -0.23156561086E+02  0.18788737532E+01  0.28566123193E+02  0.36820916368E+02  0.00000000000E+00 0.  1.
         11    1    4    4    0    0  0.38307655857E+01 -0.11343082252E+02 -0.19940608918E+02  0.23258722325E+02  0.51100000000E-03 0. -1.
        -11    1    4    4    0    0 -0.60417775066E+00  0.48584959949E+01  0.46261119299E+01  0.67357943805E+01  0.51100000000E-03 0.  1.
        -12    1    4    4    0    0  0.19929973251E+02  0.46057125035E+01 -0.13251626205E+02  0.24372566926E+02  0.00000000000E+00 0.  1.
</event>
<event>
 8    1  0.2558382E-006  0.9118800E+02  0.7816164E-02  0.1184000E+00
        -11   -1    0    0    0    0  0.00000000000E+00  0.00000000000E+00  0.45593999997E+02  0.45594000000E+02  0.51100000000E-03 0.  1.
         11   -1    0    0    0    0 -0.00000000000E+00 -0.00000000000E+00 -0.45593999997E+02  0.45594000000E+02  0.51100000000E-03 0. -1.
         23    2    1    2    0    0 -0.35527136788E-14  0.00000000000E+00  0.00000000000E+00  0.91188000000E+02  0.91188000000E+02 0.  0.
    9900012    2    3    3    0    0 -0.29591924434E+02  0.17892525058E+02 -0.12647588040E+02  0.54367001535E+02  0.39999811600E+02 0.  0.
        -12    1    3    3    0    0  0.29591924434E+02 -0.17892525058E+02  0.12647588040E+02  0.36820998465E+02  0.00000000000E+00 0.  1.
         11    1    4    4    0    0  0.54091986968E+00  0.95674721963E+00 -0.11111087865E+02  0.11165313849E+02  0.51100000000E-03 0. -1.
        -11    1    4    4    0    0 -0.66355007364E+01  0.67620147972E+01  0.11145424813E+02  0.14627891464E+02  0.51100000000E-03 0.  1.
        -12    1    4    4    0    0 -0.23497343568E+02  0.10173763042E+02 -0.12681924989E+02  0.28573796223E+02  0.00000000000E+00 0.  1.
</event>
<event>
 8    1  0.2558382E-006  0.9118800E+02  0.7816164E-02  0.1184000E+00
        -11   -1    0    0    0    0  0.00000000000E+00  0.00000000000E+00  0.45593999997E+02  0.45594000000E+02  0.51100000000E-03 0.  1.
         11   -1    0    0    0    0 -0.00000000000E+00 -0.00000000000E+00 -0.45593999997E+02  0.45594000000E+02  0.51100000000E-03 0. -1.
         23    2    1    2    0    0  0.00000000000E+00  0.00000000000E+00  0.35527136788E-14  0.91188000000E+02  0.91188000000E+02 0.  0.
    9900012    2    3    3    0    0 -0.27395145490E+02 -0.83631189829E+01  0.23137503136E+02  0.54367084654E+02  0.40000001085E+02 0.  0.
         12    1    3    3    0    0  0.27395145490E+02  0.83631189829E+01 -0.23137503136E+02  0.36820915346E+02  0.00000000000E+00 0. -1.
         11    1    4    4    0    0 -0.12332547330E+02  0.58298042448E+01 -0.44143363864E+01  0.14337527931E+02  0.51100000000E-03 0. -1.
        -11    1    4    4    0    0 -0.96605353529E+01 -0.13966197497E+01  0.68540293763E+00  0.97850021706E+01  0.51100000000E-03 0.  1.
        -12    1    4    4    0    0 -0.54020628078E+01 -0.12796303478E+02  0.26866436585E+02  0.30244554552E+02  0.00000000000E+00 0.  1.
</event>
<event>
 8    1  0.2558382E-006  0.9118800E+02  0.7816164E-02  0.1184000E+00
        -11   -1    0    0    0    0  0.00000000000E+00  0.00000000000E+00  0.45593999997E+02  0.45594000000E+02  0.51100000000E-03 0. -1.
         11   -1    0    0    0    0 -0.00000000000E+00 -0.00000000000E+00 -0.45593999997E+02  0.45594000000E+02  0.51100000000E-03 0.  1.
         23    2    1    2    0    0 -0.17763568394E-14  0.00000000000E+00  0.17763568394E-14  0.91188000000E+02  0.91188000000E+02 0.  0.
    9900012    2    3    3    0    0  0.46818631814E+01 -0.35625448435E+02 -0.80429147056E+01  0.54367069865E+02  0.39999967372E+02 0.  0.
        -12    1    3    3    0    0 -0.46818631814E+01  0.35625448435E+02  0.80429147056E+01  0.36820930135E+02  0.00000000000E+00 0.  1.
         11    1    4    4    0    0 -0.57990796185E+01 -0.24464645922E+01 -0.56238311347E+01  0.84404970420E+01  0.51100000000E-03 0. -1.
        -11    1    4    4    0    0 -0.22951233217E+01 -0.32083780525E+02  0.23357701997E+01  0.32250463354E+02  0.51100000000E-03 0.  1.
         12    1    4    4    0    0  0.12776066122E+02 -0.10952033175E+01 -0.47548537706E+01  0.13676109470E+02  0.00000000000E+00 0. -1.
</event>
<event>
 8    1  0.2558382E-006  0.9118800E+02  0.7816164E-02  0.1184000E+00
        -11   -1    0    0    0    0  0.00000000000E+00  0.00000000000E+00  0.45593999997E+02  0.45594000000E+02  0.51100000000E-03 0. -1.
         11   -1    0    0    0    0 -0.00000000000E+00 -0.00000000000E+00 -0.45593999997E+02  0.45594000000E+02  0.51100000000E-03 0.  1.
         23    2    1    2    0    0  0.17763568394E-14  0.35527136788E-14  0.00000000000E+00  0.91188000000E+02  0.91188000000E+02 0.  0.
    9900012    2    3    3    0    0 -0.11842146018E+02  0.25146463149E+02  0.24149247210E+02  0.54367256227E+02  0.40000392218E+02 0.  0.
        -12    1    3    3    0    0  0.11842146018E+02 -0.25146463149E+02 -0.24149247210E+02  0.36820743773E+02  0.00000000000E+00 0.  1.
         11    1    4    4    0    0 -0.19174183217E+01  0.11167924040E+02 -0.51293896021E+00  0.11342932911E+02  0.51100000000E-03 0. -1.
        -11    1    4    4    0    0  0.10542120903E+02  0.58890919176E+01  0.36961581888E+01  0.12628511487E+02  0.51100000000E-03 0.  1.
         12    1    4    4    0    0 -0.20466848599E+02  0.80894471914E+01  0.20966027981E+02  0.30395811829E+02  0.00000000000E+00 0. -1.
</event>
<event>
 8    1  0.2558382E-006  0.9118800E+02  0.7816164E-02  0.1184000E+00
        -11   -1    0    0    0    0  0.00000000000E+00  0.00000000000E+00  0.45593999997E+02  0.45594000000E+02  0.51100000000E-03 0.  1.
         11   -1    0    0    0    0 -0.00000000000E+00 -0.00000000000E+00 -0.45593999997E+02  0.45594000000E+02  0.51100000000E-03 0. -1.
         23    2    1    2    0    0  0.00000000000E+00  0.00000000000E+00  0.35527136788E-14  0.91188000000E+02  0.91188000000E+02 0.  0.
    9900012    2    3    3    0    0  0.18103374815E+02 -0.13044254513E+02  0.29289860716E+02  0.54367072578E+02  0.39999973555E+02 0.  0.
         12    1    3    3    0    0 -0.18103374815E+02  0.13044254513E+02 -0.29289860716E+02  0.36820927422E+02  0.00000000000E+00 0. -1.
         11    1    4    4    0    0  0.12840008411E+02 -0.15147181699E+02  0.26698527736E+02  0.33273327350E+02  0.51100000000E-03 0. -1.
        -11    1    4    4    0    0  0.12289599637E+02  0.12463049862E+01  0.53963947323E+01  0.13479933669E+02  0.51100000000E-03 0.  1.
         12    1    4    4    0    0 -0.70262332324E+01  0.85662219916E+00 -0.28050617522E+01  0.76138115593E+01  0.00000000000E+00 0. -1.
</event>
<event>
 8    1  0.2558382E-006  0.9118800E+02  0.7816164E-02  0.1184000E+00
        -11   -1    0    0    0    0  0.00000000000E+00  0.00000000000E+00  0.45593999997E+02  0.45594000000E+02  0.51100000000E-03 0.  1.
         11   -1    0    0    0    0 -0.00000000000E+00 -0.00000000000E+00 -0.45593999997E+02  0.45594000000E+02  0.51100000000E-03 0. -1.
         23    2    1    2    0    0 -0.17763568394E-14  0.00000000000E+00 -0.71054273576E-14  0.91188000000E+02  0.91188000000E+02 0.  0.
    9900012    2    3    3    0    0 -0.21336334735E+01 -0.17039149487E+02 -0.32571356413E+02  0.54367105583E+02  0.40000048798E+02 0.  0.
        -12    1    3    3    0    0  0.21336334735E+01  0.17039149487E+02  0.32571356413E+02  0.36820894417E+02  0.00000000000E+00 0.  1.
         11    1    4    4    0    0 -0.10063677103E+02  0.32287929794E+01  0.66809865881E+00  0.10590045185E+02  0.51100000000E-03 0.  1.
        -11    1    4    4    0    0  0.80854245924E+01 -0.51383359511E+01 -0.31276207999E+01  0.10077628655E+02  0.51100000000E-03 0. -1.
        -12    1    4    4    0    0 -0.15538096258E+00 -0.15129606516E+02 -0.30111834272E+02  0.33699431743E+02  0.00000000000E+00 0.  1.
</event>
<event>
 8    1  0.2558382E-006  0.9118800E+02  0.7816164E-02  0.1184000E+00
        -11   -1    0    0    0    0  0.00000000000E+00  0.00000000000E+00  0.45593999997E+02  0.45594000000E+02  0.51100000000E-03 0. -1.
         11   -1    0    0    0    0 -0.00000000000E+00 -0.00000000000E+00 -0.45593999997E+02  0.45594000000E+02  0.51100000000E-03 0.  1.
         23    2    1    2    0    0  0.00000000000E+00  0.35527136788E-14  0.00000000000E+00  0.91188000000E+02  0.91188000000E+02 0.  0.
    9900012    2    3    3    0    0  0.59934081422E+01  0.28644199799E+02  0.22346571329E+02  0.54367076961E+02  0.39999983549E+02 0.  0.
        -12    1    3    3    0    0 -0.59934081422E+01 -0.28644199799E+02 -0.22346571329E+02  0.36820923039E+02  0.00000000000E+00 0.  1.
         11    1    4    4    0    0  0.53122695936E+01 -0.59029617726E+01  0.61977464972E+01  0.10073590613E+02  0.51100000000E-03 0. -1.
        -11    1    4    4    0    0  0.67942676796E+01  0.31805614371E+02  0.75416592930E+01  0.33386161863E+02  0.51100000000E-03 0.  1.
         12    1    4    4    0    0 -0.61131291310E+01  0.27415472004E+01  0.86071655386E+01  0.10907324486E+02  0.00000000000E+00 0. -1.
</event>
<event>
 8    1  0.2558382E-006  0.9118800E+02  0.7816164E-02  0.1184000E+00
        -11   -1    0    0    0    0  0.00000000000E+00  0.00000000000E+00  0.45593999997E+02  0.45594000000E+02  0.51100000000E-03 0.  1.
         11   -1    0    0    0    0 -0.00000000000E+00 -0.00000000000E+00 -0.45593999997E+02  0.45594000000E+02  0.51100000000E-03 0. -1.
         23    2    1    2    0    0 -0.17763568394E-14  0.61062266354E-15  0.71054273576E-14  0.91188000000E+02  0.91188000000E+02 0.  0.
    9900012    2    3    3    0    0 -0.86487818038E+01  0.39113710207E+00  0.35788617174E+02  0.54367088358E+02  0.40000009529E+02 0.  0.
         12    1    3    3    0    0  0.86487818038E+01 -0.39113710207E+00 -0.35788617174E+02  0.36820911642E+02  0.00000000000E+00 0. -1.
         11    1    4    4    0    0  0.28143311355E+01  0.50381865106E+00 -0.38488135490E+01  0.47945447093E+01  0.51100000000E-03 0. -1.
        -11    1    4    4    0    0 -0.20403906371E+02 -0.19566355999E+01  0.25095727934E+02  0.32402829797E+02  0.51100000000E-03 0.  1.
        -12    1    4    4    0    0  0.89407934317E+01  0.18439540509E+01  0.14541702789E+02  0.17169713851E+02  0.00000000000E+00 0.  1.
</event>
<event>
 8    1  0.2558382E-006  0.9118800E+02  0.7816164E-02  0.1184000E+00
        -11   -1    0    0    0    0  0.00000000000E+00  0.00000000000E+00  0.45593999997E+02  0.45594000000E+02  0.51100000000E-03 0.  1.
         11   -1    0    0    0    0 -0.00000000000E+00 -0.00000000000E+00 -0.45593999997E+02  0.45594000000E+02  0.51100000000E-03 0. -1.
         23    2    1    2    0    0  0.17763568394E-14  0.00000000000E+00 -0.35527136788E-14  0.91188000000E+02  0.91188000000E+02 0.  0.
    9900012    2    3    3    0    0 -0.14314516940E+02  0.27631731510E+02 -0.19681490222E+02  0.54367095084E+02  0.40000024864E+02 0.  0.
        -12    1    3    3    0    0  0.14314516940E+02 -0.27631731510E+02  0.19681490222E+02  0.36820904916E+02  0.00000000000E+00 0.  1.
         11    1    4    4    0    0 -0.16308593383E+02  0.10801968453E+02 -0.90805846577E+01  0.21566403468E+02  0.51100000000E-03 0. -1.
        -11    1    4    4    0    0 -0.14014108975E+01  0.13155586158E+02  0.66724792489E+01  0.14817401231E+02  0.51100000000E-03 0.  1.
        -12    1    4    4    0    0  0.33954873402E+01  0.36741768992E+01 -0.17273384813E+02  0.17983290385E+02  0.00000000000E+00 0.  1.
</event>
<event>
 8    1  0.2558382E-006  0.9118800E+02  0.7816164E-02  0.1184000E+00
        -11   -1    0    0    0    0  0.00000000000E+00  0.00000000000E+00  0.45593999997E+02  0.45594000000E+02  0.51100000000E-03 0.  1.
         11   -1    0    0    0    0 -0.00000000000E+00 -0.00000000000E+00 -0.45593999997E+02  0.45594000000E+02  0.51100000000E-03 0. -1.
         23    2    1    2    0    0 -0.17763568394E-14  0.00000000000E+00  0.00000000000E+00  0.91188000000E+02  0.91188000000E+02 0.  0.
    9900012    2    3    3    0    0 -0.14912599713E+02  0.91558888055E+01 -0.32396989958E+02  0.54367069969E+02  0.39999967608E+02 0.  0.
        -12    1    3    3    0    0  0.14912599713E+02 -0.91558888055E+01  0.32396989958E+02  0.36820930031E+02  0.00000000000E+00 0.  1.
         11    1    4    4    0    0  0.20200968975E+00 -0.16558296735E+01 -0.23282719604E+01  0.28641631247E+01  0.51100000000E-03 0. -1.
        -11    1    4    4    0    0 -0.12366520361E+02  0.51429152785E+01  0.61518408321E+01  0.14738573516E+02  0.51100000000E-03 0.  1.
         12    1    4    4    0    0 -0.27480890413E+01  0.56688032004E+01 -0.36220558830E+02  0.36764333328E+02  0.00000000000E+00 0. -1.
</event>
<event>
 8    1  0.2558382E-006  0.9118800E+02  0.7816164E-02  0.1184000E+00
        -11   -1    0    0    0    0  0.00000000000E+00  0.00000000000E+00  0.45593999997E+02  0.45594000000E+02  0.51100000000E-03 0.  1.
         11   -1    0    0    0    0 -0.00000000000E+00 -0.00000000000E+00 -0.45593999997E+02  0.45594000000E+02  0.51100000000E-03 0. -1.
         23    2    1    2    0    0  0.17763568394E-14  0.00000000000E+00  0.00000000000E+00  0.91188000000E+02  0.91188000000E+02 0.  0.
    9900012    2    3    3    0    0 -0.17393793266E+01 -0.33400131229E+02 -0.15400837415E+02  0.54367082037E+02  0.39999995121E+02 0.  0.
        -12    1    3    3    0    0  0.17393793266E+01  0.33400131229E+02  0.15400837415E+02  0.36820917963E+02  0.00000000000E+00 0.  1.
         11    1    4    4    0    0 -0.63443696547E+01  0.15895165051E+01 -0.12735954909E+02  0.14317197237E+02  0.51100000000E-03 0. -1.
        -11    1    4    4    0    0  0.82426467695E+01 -0.26138037083E+02 -0.86775806700E+01  0.28747845395E+02  0.51100000000E-03 0.  1.
        -12    1    4    4    0    0 -0.36376564414E+01 -0.88516106508E+01  0.60126981640E+01  0.11302039405E+02  0.00000000000E+00 0.  1.
</event>
<event>
 8    1  0.2558382E-006  0.9118800E+02  0.7816164E-02  0.1184000E+00
        -11   -1    0    0    0    0  0.00000000000E+00  0.00000000000E+00  0.45593999997E+02  0.45594000000E+02  0.51100000000E-03 0.  1.
         11   -1    0    0    0    0 -0.00000000000E+00 -0.00000000000E+00 -0.45593999997E+02  0.45594000000E+02  0.51100000000E-03 0. -1.
         23    2    1    2    0    0  0.00000000000E+00  0.00000000000E+00  0.17763568394E-14  0.91188000000E+02  0.91188000000E+02 0.  0.
    9900012    2    3    3    0    0  0.77508238777E+01 -0.35040600181E+02 -0.82377611960E+01  0.54367086902E+02  0.40000006211E+02 0.  0.
        -12    1    3    3    0    0 -0.77508238777E+01  0.35040600181E+02  0.82377611960E+01  0.36820913098E+02  0.00000000000E+00 0.  1.
         11    1    4    4    0    0  0.97460805166E+01 -0.74783630655E+01  0.86739507998E+00  0.12315209055E+02  0.51100000000E-03 0. -1.
        -11    1    4    4    0    0  0.11903373815E+01 -0.88654129032E+01  0.11155692200E+02  0.14299018070E+02  0.51100000000E-03 0.  1.
        -12    1    4    4    0    0 -0.31855940203E+01 -0.18696824212E+02 -0.20260848476E+02  0.27752859778E+02  0.00000000000E+00 0.  1.
</event>
<event>
 8    1  0.2558382E-006  0.9118800E+02  0.7816164E-02  0.1184000E+00
        -11   -1    0    0    0    0  0.00000000000E+00  0.00000000000E+00  0.45593999997E+02  0.45594000000E+02  0.51100000000E-03 0.  1.
         11   -1    0    0    0    0 -0.00000000000E+00 -0.00000000000E+00 -0.45593999997E+02  0.45594000000E+02  0.51100000000E-03 0. -1.
         23    2    1    2    0    0 -0.35527136788E-14  0.00000000000E+00 -0.44408920985E-15  0.91188000000E+02  0.91188000000E+02 0.  0.
    9900012    2    3    3    0    0 -0.27614846289E+02  0.24304203370E+02 -0.15825115260E+01  0.54367104034E+02  0.40000045266E+02 0.  0.
         12    1    3    3    0    0  0.27614846289E+02 -0.24304203370E+02  0.15825115260E+01  0.36820895966E+02  0.00000000000E+00 0. -1.
         11    1    4    4    0    0  0.47389286271E+01  0.36244530457E+01  0.61754242124E+01  0.85866156824E+01  0.51100000000E-03 0. -1.
        -11    1    4    4    0    0 -0.18274383187E+02  0.23793372334E+02 -0.14351538441E+01  0.30035600788E+02  0.51100000000E-03 0.  1.
        -12    1    4    4    0    0 -0.14079391729E+02 -0.31136220102E+01 -0.63227818944E+01  0.15744887563E+02  0.00000000000E+00 0.  1.
</event>
<event>
 8    1  0.2558382E-006  0.9118800E+02  0.7816164E-02  0.1184000E+00
        -11   -1    0    0    0    0  0.00000000000E+00  0.00000000000E+00  0.45593999997E+02  0.45594000000E+02  0.51100000000E-03 0.  1.
         11   -1    0    0    0    0 -0.00000000000E+00 -0.00000000000E+00 -0.45593999997E+02  0.45594000000E+02  0.51100000000E-03 0. -1.
         23    2    1    2    0    0  0.00000000000E+00  0.00000000000E+00  0.00000000000E+00  0.91188000000E+02  0.91188000000E+02 0.  0.
    9900012    2    3    3    0    0  0.14600167666E+02  0.22986664113E+02 -0.24783640933E+02  0.54367075503E+02  0.39999980224E+02 0.  0.
        -12    1    3    3    0    0 -0.14600167666E+02 -0.22986664113E+02  0.24783640933E+02  0.36820924497E+02  0.00000000000E+00 0.  1.
         11    1    4    4    0    0  0.37968471986E+01  0.13737196833E+01 -0.73725343699E+01  0.84057966734E+01  0.51100000000E-03 0. -1.
        -11    1    4    4    0    0  0.79566917677E+01 -0.29504207275E-01  0.87914253950E+01  0.11857443870E+02  0.51100000000E-03 0.  1.
         12    1    4    4    0    0  0.28466286999E+01  0.21642448637E+02 -0.26202531958E+02  0.34103834960E+02  0.00000000000E+00 0. -1.
</event>
<event>
 8    1  0.2558382E-006  0.9118800E+02  0.7816164E-02  0.1184000E+00
        -11   -1    0    0    0    0  0.00000000000E+00  0.00000000000E+00  0.45593999997E+02  0.45594000000E+02  0.51100000000E-03 0. -1.
         11   -1    0    0    0    0 -0.00000000000E+00 -0.00000000000E+00 -0.45593999997E+02  0.45594000000E+02  0.51100000000E-03 0.  1.
         23    2    1    2    0    0 -0.71054273576E-14  0.00000000000E+00  0.00000000000E+00  0.91188000000E+02  0.91188000000E+02 0.  0.
    9900012    2    3    3    0    0  0.34689138451E+02 -0.12171756927E+02 -0.20716443687E+01  0.54367086057E+02  0.40000004285E+02 0.  0.
         12    1    3    3    0    0 -0.34689138451E+02  0.12171756927E+02  0.20716443687E+01  0.36820913943E+02  0.00000000000E+00 0. -1.
         11    1    4    4    0    0 -0.16692767649E+01 -0.65839100947E+01  0.12105257963E+02  0.13880620579E+02  0.51100000000E-03 0. -1.
        -11    1    4    4    0    0 -0.39942573107E+00  0.26372466503E+00 -0.80521003381E+00  0.93672571933E+00  0.51100000000E-03 0.  1.
         12    1    4    4    0    0  0.36757840947E+02 -0.58515714975E+01 -0.13371692298E+02  0.39549739759E+02  0.00000000000E+00 0. -1.
</event>
<event>
 8    1  0.2558382E-006  0.9118800E+02  0.7816164E-02  0.1184000E+00
        -11   -1    0    0    0    0  0.00000000000E+00  0.00000000000E+00  0.45593999997E+02  0.45594000000E+02  0.51100000000E-03 0.  1.
         11   -1    0    0    0    0 -0.00000000000E+00 -0.00000000000E+00 -0.45593999997E+02  0.45594000000E+02  0.51100000000E-03 0. -1.
         23    2    1    2    0    0 -0.88817841970E-15  0.00000000000E+00  0.00000000000E+00  0.91188000000E+02  0.91188000000E+02 0.  0.
    9900012    2    3    3    0    0 -0.71773284079E+01 -0.31718786170E+02  0.17268002576E+02  0.54367090829E+02  0.40000015163E+02 0.  0.
         12    1    3    3    0    0  0.71773284079E+01  0.31718786170E+02 -0.17268002576E+02  0.36820909171E+02  0.00000000000E+00 0. -1.
         11    1    4    4    0    0 -0.19654568870E+01  0.19169268594E+01  0.84439763806E+01  0.88790971803E+01  0.51100000000E-03 0. -1.
        -11    1    4    4    0    0 -0.12450801778E+02 -0.10434215704E+02 -0.56508001624E+01  0.17199618165E+02  0.51100000000E-03 0.  1.
        -12    1    4    4    0    0  0.72389302575E+01 -0.23201497326E+02  0.14474826358E+02  0.28288375484E+02  0.00000000000E+00 0.  1.
</event>
<event>
 8    1  0.2558382E-006  0.9118800E+02  0.7816164E-02  0.1184000E+00
        -11   -1    0    0    0    0  0.00000000000E+00  0.00000000000E+00  0.45593999997E+02  0.45594000000E+02  0.51100000000E-03 0. -1.
         11   -1    0    0    0    0 -0.00000000000E+00 -0.00000000000E+00 -0.45593999997E+02  0.45594000000E+02  0.51100000000E-03 0.  1.
         23    2    1    2    0    0  0.17763568394E-14  0.00000000000E+00  0.00000000000E+00  0.91188000000E+02  0.91188000000E+02 0.  0.
    9900012    2    3    3    0    0 -0.15328307747E+02 -0.91847478819E+01  0.32194152176E+02  0.54367081402E+02  0.39999993673E+02 0.  0.
        -12    1    3    3    0    0  0.15328307747E+02  0.91847478819E+01 -0.32194152176E+02  0.36820918598E+02  0.00000000000E+00 0.  1.
         11    1    4    4    0    0 -0.16440388534E+02 -0.87062059272E+01  0.37796437263E+02  0.42126655064E+02  0.51100000000E-03 0. -1.
        -11    1    4    4    0    0  0.50006010843E+01  0.22560021380E+01 -0.90997871077E+00  0.55609008592E+01  0.51100000000E-03 0.  1.
         12    1    4    4    0    0 -0.38885202972E+01 -0.27345440926E+01 -0.46923063766E+01  0.66795254793E+01  0.00000000000E+00 0. -1.
</event>
<event>
 8    1  0.2558382E-006  0.9118800E+02  0.7816164E-02  0.1184000E+00
        -11   -1    0    0    0    0  0.00000000000E+00  0.00000000000E+00  0.45593999997E+02  0.45594000000E+02  0.51100000000E-03 0.  1.
         11   -1    0    0    0    0 -0.00000000000E+00 -0.00000000000E+00 -0.45593999997E+02  0.45594000000E+02  0.51100000000E-03 0. -1.
         23    2    1    2    0    0  0.00000000000E+00  0.35527136788E-14  0.00000000000E+00  0.91188000000E+02  0.91188000000E+02 0.  0.
    9900012    2    3    3    0    0 -0.56191193644E+01  0.24612630885E+02 -0.26803396284E+02  0.54367107101E+02  0.40000052258E+02 0.  0.
        -12    1    3    3    0    0  0.56191193644E+01 -0.24612630885E+02  0.26803396284E+02  0.36820892899E+02  0.00000000000E+00 0.  1.
         11    1    4    4    0    0 -0.12156179323E+02  0.36770779403E+01 -0.19040062004E+02  0.22887060958E+02  0.51100000000E-03 0. -1.
        -11    1    4    4    0    0  0.10538436341E+02  0.18743039219E+01 -0.49795358263E+01  0.11805398469E+02  0.51100000000E-03 0.  1.
         12    1    4    4    0    0 -0.40013763826E+01  0.19061249023E+02 -0.27837984541E+01  0.19674647674E+02  0.00000000000E+00 0. -1.
</event>
<event>
 8    1  0.2558382E-006  0.9118800E+02  0.7816164E-02  0.1184000E+00
        -11   -1    0    0    0    0  0.00000000000E+00  0.00000000000E+00  0.45593999997E+02  0.45594000000E+02  0.51100000000E-03 0.  1.
         11   -1    0    0    0    0 -0.00000000000E+00 -0.00000000000E+00 -0.45593999997E+02  0.45594000000E+02  0.51100000000E-03 0. -1.
         23    2    1    2    0    0  0.00000000000E+00  0.00000000000E+00 -0.35527136788E-14  0.91188000000E+02  0.91188000000E+02 0.  0.
    9900012    2    3    3    0    0 -0.13651676197E+02  0.14299451448E+02 -0.31063303515E+02  0.54367198814E+02  0.40000261335E+02 0.  0.
        -12    1    3    3    0    0  0.13651676197E+02 -0.14299451448E+02  0.31063303515E+02  0.36820801186E+02  0.00000000000E+00 0.  1.
         11    1    4    4    0    0  0.75534900868E+01  0.14102745567E+02 -0.13288004940E+02  0.20796964215E+02  0.51100000000E-03 0. -1.
        -11    1    4    4    0    0  0.17548478630E+00 -0.61317479085E+01 -0.46385379204E+01  0.76905891597E+01  0.51100000000E-03 0.  1.
         12    1    4    4    0    0 -0.21380651070E+02  0.63284537897E+01 -0.13136760654E+02  0.25879645439E+02  0.00000000000E+00 0. -1.
</event>
<event>
 8    1  0.2558382E-006  0.9118800E+02  0.7816164E-02  0.1184000E+00
        -11   -1    0    0    0    0  0.00000000000E+00  0.00000000000E+00  0.45593999997E+02  0.45594000000E+02  0.51100000000E-03 0.  1.
         11   -1    0    0    0    0 -0.00000000000E+00 -0.00000000000E+00 -0.45593999997E+02  0.45594000000E+02  0.51100000000E-03 0. -1.
         23    2    1    2    0    0  0.00000000000E+00  0.00000000000E+00  0.44408920985E-15  0.91188000000E+02  0.91188000000E+02 0.  0.
    9900012    2    3    3    0    0 -0.33992477771E+02  0.13843121416E+02  0.29427379608E+01  0.54367078471E+02  0.39999986989E+02 0.  0.
        -12    1    3    3    0    0  0.33992477771E+02 -0.13843121416E+02 -0.29427379608E+01  0.36820921529E+02  0.00000000000E+00 0.  1.
         11    1    4    4    0    0 -0.36396719850E+02  0.57999336485E+01 -0.83798226705E+01  0.37796585486E+02  0.51100000000E-03 0. -1.
        -11    1    4    4    0    0  0.34019584495E+01  0.90166003182E+01  0.66867738209E+01  0.11729678043E+02  0.51100000000E-03 0.  1.
         12    1    4    4    0    0 -0.99771637100E+00 -0.97341255080E+00  0.46357868103E+01  0.48408149419E+01  0.00000000000E+00 0. -1.
</event>
<event>
 8    1  0.2558382E-006  0.9118800E+02  0.7816164E-02  0.1184000E+00
        -11   -1    0    0    0    0  0.00000000000E+00  0.00000000000E+00  0.45593999997E+02  0.45594000000E+02  0.51100000000E-03 0.  1.
         11   -1    0    0    0    0 -0.00000000000E+00 -0.00000000000E+00 -0.45593999997E+02  0.45594000000E+02  0.51100000000E-03 0. -1.
         23    2    1    2    0    0  0.00000000000E+00  0.00000000000E+00  0.00000000000E+00  0.91188000000E+02  0.91188000000E+02 0.  0.
    9900012    2    3    3    0    0 -0.10830716622E+02  0.19850489467E+02  0.29059132816E+02  0.54367088080E+02  0.40000008895E+02 0.  0.
         12    1    3    3    0    0  0.10830716622E+02 -0.19850489467E+02 -0.29059132816E+02  0.36820911920E+02  0.00000000000E+00 0. -1.
         11    1    4    4    0    0 -0.94027897509E+00  0.19928157423E+02  0.15528942288E+02  0.25281685697E+02  0.51100000000E-03 0. -1.
        -11    1    4    4    0    0 -0.97340157909E+01 -0.76937031498E+01  0.16725167416E+02  0.20824873515E+02  0.51100000000E-03 0.  1.
         12    1    4    4    0    0 -0.15642185629E+00  0.76160351931E+01 -0.31949768873E+01  0.82605288675E+01  0.00000000000E+00 0. -1.
</event>
<event>
 8    1  0.2558382E-006  0.9118800E+02  0.7816164E-02  0.1184000E+00
        -11   -1    0    0    0    0  0.00000000000E+00  0.00000000000E+00  0.45593999997E+02  0.45594000000E+02  0.51100000000E-03 0.  1.
         11   -1    0    0    0    0 -0.00000000000E+00 -0.00000000000E+00 -0.45593999997E+02  0.45594000000E+02  0.51100000000E-03 0. -1.
         23    2    1    2    0    0  0.00000000000E+00  0.35527136788E-14  0.35527136788E-14  0.91188000000E+02  0.91188000000E+02 0.  0.
    9900012    2    3    3    0    0 -0.24174255489E+02 -0.15951854632E+02  0.22735949274E+02  0.54367086323E+02  0.40000004890E+02 0.  0.
         12    1    3    3    0    0  0.24174255489E+02  0.15951854632E+02 -0.22735949274E+02  0.36820913677E+02  0.00000000000E+00 0. -1.
         11    1    4    4    0    0 -0.94910951792E+01  0.50166941308E+00  0.23309302592E+02  0.25172527634E+02  0.51100000000E-03 0.  1.
        -11    1    4    4    0    0 -0.12660658155E+02 -0.11468101338E+02  0.81644632162E+01  0.18933253104E+02  0.51100000000E-03 0. -1.
         12    1    4    4    0    0 -0.20225021547E+01 -0.49854227066E+01 -0.87378165338E+01  0.10261305585E+02  0.00000000000E+00 0. -1.
</event>
<event>
 8    1  0.2558382E-006  0.9118800E+02  0.7816164E-02  0.1184000E+00
        -11   -1    0    0    0    0  0.00000000000E+00  0.00000000000E+00  0.45593999997E+02  0.45594000000E+02  0.51100000000E-03 0.  1.
         11   -1    0    0    0    0 -0.00000000000E+00 -0.00000000000E+00 -0.45593999997E+02  0.45594000000E+02  0.51100000000E-03 0. -1.
         23    2    1    2    0    0  0.00000000000E+00  0.35527136788E-14  0.00000000000E+00  0.91188000000E+02  0.91188000000E+02 0.  0.
    9900012    2    3    3    0    0 -0.18493385443E+02 -0.26722178237E+02 -0.17311862451E+02  0.54367072576E+02  0.39999973551E+02 0.  0.
        -12    1    3    3    0    0  0.18493385443E+02  0.26722178237E+02  0.17311862451E+02  0.36820927424E+02  0.00000000000E+00 0.  1.
         11    1    4    4    0    0 -0.14191564713E+01 -0.34849691683E+01 -0.40643839248E+01  0.55387933833E+01  0.51100000000E-03 0. -1.
        -11    1    4    4    0    0 -0.26796233589E+02 -0.15622235008E+02 -0.41725476157E+00  0.31020420097E+02  0.51100000000E-03 0.  1.
        -12    1    4    4    0    0  0.97220046169E+01 -0.76149740606E+01 -0.12830223764E+02  0.17807859095E+02  0.00000000000E+00 0.  1.
</event>
<event>
 8    1  0.2558382E-006  0.9118800E+02  0.7816164E-02  0.1184000E+00
        -11   -1    0    0    0    0  0.00000000000E+00  0.00000000000E+00  0.45593999997E+02  0.45594000000E+02  0.51100000000E-03 0.  1.
         11   -1    0    0    0    0 -0.00000000000E+00 -0.00000000000E+00 -0.45593999997E+02  0.45594000000E+02  0.51100000000E-03 0. -1.
         23    2    1    2    0    0  0.71054273576E-14 -0.13322676296E-14  0.00000000000E+00  0.91188000000E+02  0.91188000000E+02 0.  0.
    9900012    2    3    3    0    0 -0.33084404938E+02  0.33311424976E+01  0.15814736651E+02  0.54367078559E+02  0.39999987190E+02 0.  0.
         12    1    3    3    0    0  0.33084404938E+02 -0.33311424976E+01 -0.15814736651E+02  0.36820921441E+02  0.00000000000E+00 0. -1.
         11    1    4    4    0    0 -0.22624432227E+02 -0.15440373863E+02  0.92838939792E+01  0.28921631460E+02  0.51100000000E-03 0. -1.
        -11    1    4    4    0    0 -0.77869530390E+01  0.10134684976E+02  0.95050512467E+01  0.15927789447E+02  0.51100000000E-03 0.  1.
         12    1    4    4    0    0 -0.26730196717E+01  0.86368313842E+01 -0.29742085753E+01  0.95176576516E+01  0.00000000000E+00 0. -1.
</event>
<event>
 8    1  0.2558382E-006  0.9118800E+02  0.7816164E-02  0.1184000E+00
        -11   -1    0    0    0    0  0.00000000000E+00  0.00000000000E+00  0.45593999997E+02  0.45594000000E+02  0.51100000000E-03 0. -1.
         11   -1    0    0    0    0 -0.00000000000E+00 -0.00000000000E+00 -0.45593999997E+02  0.45594000000E+02  0.51100000000E-03 0.  1.
         23    2    1    2    0    0  0.00000000000E+00  0.00000000000E+00  0.00000000000E+00  0.91188000000E+02  0.91188000000E+02 0.  0.
    9900012    2    3    3    0    0 -0.32675790038E+02  0.13337372103E+02  0.10496868651E+02  0.54367122761E+02  0.40000087957E+02 0.  0.
        -12    1    3    3    0    0  0.32675790038E+02 -0.13337372103E+02 -0.10496868651E+02  0.36820877239E+02  0.00000000000E+00 0.  1.
         11    1    4    4    0    0 -0.66131756259E+01  0.98237872426E+01  0.18843785290E+02  0.22255990923E+02  0.51100000000E-03 0. -1.
        -11    1    4    4    0    0 -0.98801995688E+00  0.32454109735E+01 -0.60421739969E+01  0.69294114247E+01  0.51100000000E-03 0.  1.
         12    1    4    4    0    0 -0.25074594455E+02  0.26817388677E+00 -0.23047426421E+01  0.25181720413E+02  0.00000000000E+00 0. -1.
</event>
<event>
 8    1  0.2558382E-006  0.9118800E+02  0.7816164E-02  0.1184000E+00
        -11   -1    0    0    0    0  0.00000000000E+00  0.00000000000E+00  0.45593999997E+02  0.45594000000E+02  0.51100000000E-03 0. -1.
         11   -1    0    0    0    0 -0.00000000000E+00 -0.00000000000E+00 -0.45593999997E+02  0.45594000000E+02  0.51100000000E-03 0.  1.
         23    2    1    2    0    0  0.00000000000E+00  0.00000000000E+00  0.35527136788E-14  0.91188000000E+02  0.91188000000E+02 0.  0.
    9900012    2    3    3    0    0 -0.16943531992E+02  0.86244582965E+01  0.31532769959E+02  0.54367080151E+02  0.39999990820E+02 0.  0.
        -12    1    3    3    0    0  0.16943531992E+02 -0.86244582965E+01 -0.31532769959E+02  0.36820919849E+02  0.00000000000E+00 0.  1.
         11    1    4    4    0    0 -0.12481339091E+02  0.68096813571E+01  0.22394989443E+02  0.26527177349E+02  0.51100000000E-03 0. -1.
        -11    1    4    4    0    0  0.74930666185E+01  0.73596576213E+01  0.10171507673E+02  0.14620881514E+02  0.51100000000E-03 0.  1.
        -12    1    4    4    0    0 -0.11955259520E+02 -0.55448806820E+01 -0.10337271578E+01  0.13219021287E+02  0.00000000000E+00 0.  1.
</event>
<event>
 8    1  0.2558382E-006  0.9118800E+02  0.7816164E-02  0.1184000E+00
        -11   -1    0    0    0    0  0.00000000000E+00  0.00000000000E+00  0.45593999997E+02  0.45594000000E+02  0.51100000000E-03 0.  1.
         11   -1    0    0    0    0 -0.00000000000E+00 -0.00000000000E+00 -0.45593999997E+02  0.45594000000E+02  0.51100000000E-03 0. -1.
         23    2    1    2    0    0  0.00000000000E+00  0.35527136788E-14  0.35527136788E-14  0.91188000000E+02  0.91188000000E+02 0.  0.
    9900012    2    3    3    0    0  0.80341148824E+01 -0.22565007415E+02 -0.27965155264E+02  0.54367129960E+02  0.40000104370E+02 0.  0.
        -12    1    3    3    0    0 -0.80341148824E+01  0.22565007415E+02  0.27965155264E+02  0.36820870040E+02  0.00000000000E+00 0.  1.
         11    1    4    4    0    0  0.12796074015E+02 -0.14972765639E+02 -0.97924534424E+01  0.21995803367E+02  0.51100000000E-03 0. -1.
        -11    1    4    4    0    0  0.72402451596E+01  0.12721324855E+00  0.21363799628E+01  0.75499306479E+01  0.51100000000E-03 0.  1.
        -12    1    4    4    0    0 -0.12002204292E+02 -0.77194550248E+01 -0.20309081784E+02  0.24821395945E+02  0.00000000000E+00 0.  1.
</event>
<event>
 8    1  0.2558382E-006  0.9118800E+02  0.7816164E-02  0.1184000E+00
        -11   -1    0    0    0    0  0.00000000000E+00  0.00000000000E+00  0.45593999997E+02  0.45594000000E+02  0.51100000000E-03 0.  1.
         11   -1    0    0    0    0 -0.00000000000E+00 -0.00000000000E+00 -0.45593999997E+02  0.45594000000E+02  0.51100000000E-03 0. -1.
         23    2    1    2    0    0  0.35527136788E-14  0.00000000000E+00  0.35527136788E-14  0.91188000000E+02  0.91188000000E+02 0.  0.
    9900012    2    3    3    0    0  0.23562191311E+02 -0.22520687837E+02 -0.17129521902E+02  0.54367098861E+02  0.40000033474E+02 0.  0.
        -12    1    3    3    0    0 -0.23562191311E+02  0.22520687837E+02  0.17129521902E+02  0.36820901139E+02  0.00000000000E+00 0.  1.
         11    1    4    4    0    0  0.95809252127E+01 -0.12057509649E+02 -0.28007711538E+02  0.31962627750E+02  0.51100000000E-03 0. -1.
        -11    1    4    4    0    0  0.14308222452E+02 -0.11159772271E+02  0.87574047736E+01  0.20148396599E+02  0.51100000000E-03 0.  1.
         12    1    4    4    0    0 -0.32695635358E+00  0.69659408209E+00  0.21207848620E+01  0.22560745119E+01  0.00000000000E+00 0. -1.
</event>
<event>
 8    1  0.2558382E-006  0.9118800E+02  0.7816164E-02  0.1184000E+00
        -11   -1    0    0    0    0  0.00000000000E+00  0.00000000000E+00  0.45593999997E+02  0.45594000000E+02  0.51100000000E-03 0.  1.
         11   -1    0    0    0    0 -0.00000000000E+00 -0.00000000000E+00 -0.45593999997E+02  0.45594000000E+02  0.51100000000E-03 0. -1.
         23    2    1    2    0    0 -0.44408920985E-15  0.00000000000E+00  0.00000000000E+00  0.91188000000E+02  0.91188000000E+02 0.  0.
    9900012    2    3    3    0    0  0.32164369724E+01  0.33962578689E+02  0.13855588142E+02  0.54367088268E+02  0.40000009324E+02 0.  0.
         12    1    3    3    0    0 -0.32164369724E+01 -0.33962578689E+02 -0.13855588142E+02  0.36820911732E+02  0.00000000000E+00 0. -1.
         11    1    4    4    0    0  0.48468950812E+01  0.24379857974E+02 -0.80525338572E+01  0.26128780464E+02  0.51100000000E-03 0. -1.
        -11    1    4    4    0    0  0.22951552320E+01  0.12618981907E+02  0.16490189908E+02  0.20890974256E+02  0.51100000000E-03 0.  1.
         12    1    4    4    0    0 -0.39256133407E+01 -0.30362611914E+01  0.54179320906E+01  0.73473335478E+01  0.00000000000E+00 0. -1.
</event>
<event>
 8    1  0.2558382E-006  0.9118800E+02  0.7816164E-02  0.1184000E+00
        -11   -1    0    0    0    0  0.00000000000E+00  0.00000000000E+00  0.45593999997E+02  0.45594000000E+02  0.51100000000E-03 0.  1.
         11   -1    0    0    0    0 -0.00000000000E+00 -0.00000000000E+00 -0.45593999997E+02  0.45594000000E+02  0.51100000000E-03 0. -1.
         23    2    1    2    0    0  0.00000000000E+00  0.00000000000E+00  0.00000000000E+00  0.91188000000E+02  0.91188000000E+02 0.  0.
    9900012    2    3    3    0    0  0.43788067254E+01 -0.33925919604E+02  0.13624884261E+02  0.54367089630E+02  0.40000012430E+02 0.  0.
         12    1    3    3    0    0 -0.43788067254E+01  0.33925919604E+02 -0.13624884261E+02  0.36820910370E+02  0.00000000000E+00 0. -1.
         11    1    4    4    0    0  0.73149485699E+01 -0.64611010564E+00 -0.78601863343E+01  0.10756786710E+02  0.51100000000E-03 0. -1.
        -11    1    4    4    0    0 -0.97497924044E+01 -0.24272981316E+02  0.18137465198E+02  0.31830861094E+02  0.51100000000E-03 0.  1.
        -12    1    4    4    0    0  0.68136505600E+01 -0.90068281822E+01  0.33476053971E+01  0.11779441827E+02  0.00000000000E+00 0.  1.
</event>
<event>
 8    1  0.2558382E-006  0.9118800E+02  0.7816164E-02  0.1184000E+00
        -11   -1    0    0    0    0  0.00000000000E+00  0.00000000000E+00  0.45593999997E+02  0.45594000000E+02  0.51100000000E-03 0.  1.
         11   -1    0    0    0    0 -0.00000000000E+00 -0.00000000000E+00 -0.45593999997E+02  0.45594000000E+02  0.51100000000E-03 0. -1.
         23    2    1    2    0    0  0.00000000000E+00  0.00000000000E+00  0.35527136788E-14  0.91188000000E+02  0.91188000000E+02 0.  0.
    9900012    2    3    3    0    0  0.17992994263E+02 -0.67080172097E+01  0.31417109157E+02  0.54367080875E+02  0.39999992472E+02 0.  0.
         12    1    3    3    0    0 -0.17992994263E+02  0.67080172097E+01 -0.31417109157E+02  0.36820919125E+02  0.00000000000E+00 0. -1.
         11    1    4    4    0    0  0.84782854580E+01 -0.14690695030E+01 -0.61657946105E+01  0.10585674894E+02  0.51100000000E-03 0.  1.
        -11    1    4    4    0    0 -0.11126946789E+00  0.46343141023E+00 -0.23051777239E+01  0.23539316401E+01  0.51100000000E-03 0. -1.
        -12    1    4    4    0    0  0.96259782726E+01 -0.57023791168E+01  0.39888081491E+02  0.41427474342E+02  0.00000000000E+00 0.  1.
</event>
<event>
 8    1  0.2558382E-006  0.9118800E+02  0.7816164E-02  0.1184000E+00
        -11   -1    0    0    0    0  0.00000000000E+00  0.00000000000E+00  0.45593999997E+02  0.45594000000E+02  0.51100000000E-03 0.  1.
         11   -1    0    0    0    0 -0.00000000000E+00 -0.00000000000E+00 -0.45593999997E+02  0.45594000000E+02  0.51100000000E-03 0. -1.
         23    2    1    2    0    0  0.00000000000E+00  0.00000000000E+00  0.00000000000E+00  0.91188000000E+02  0.91188000000E+02 0.  0.
    9900012    2    3    3    0    0 -0.96702592356E+01  0.23812292530E+02  0.26367418284E+02  0.54367082899E+02  0.39999997085E+02 0.  0.
         12    1    3    3    0    0  0.96702592356E+01 -0.23812292530E+02 -0.26367418284E+02  0.36820917101E+02  0.00000000000E+00 0. -1.
         11    1    4    4    0    0  0.86111947318E+00  0.13573719536E+02 -0.29394597417E+01  0.13915021115E+02  0.51100000000E-03 0. -1.
        -11    1    4    4    0    0 -0.23999143126E+00 -0.68163703338E+01  0.29915342881E+01  0.74478035737E+01  0.51100000000E-03 0.  1.
        -12    1    4    4    0    0 -0.10291387278E+02  0.17054943328E+02  0.26315343738E+02  0.33004258211E+02  0.00000000000E+00 0.  1.
</event>
<event>
 8    1  0.2558382E-006  0.9118800E+02  0.7816164E-02  0.1184000E+00
        -11   -1    0    0    0    0  0.00000000000E+00  0.00000000000E+00  0.45593999997E+02  0.45594000000E+02  0.51100000000E-03 0.  1.
         11   -1    0    0    0    0 -0.00000000000E+00 -0.00000000000E+00 -0.45593999997E+02  0.45594000000E+02  0.51100000000E-03 0. -1.
         23    2    1    2    0    0  0.00000000000E+00  0.00000000000E+00 -0.71054273576E-14  0.91188000000E+02  0.91188000000E+02 0.  0.
    9900012    2    3    3    0    0  0.12329276797E+02  0.49110067534E+01 -0.34346047853E+02  0.54367081261E+02  0.39999993351E+02 0.  0.
        -12    1    3    3    0    0 -0.12329276797E+02 -0.49110067534E+01  0.34346047853E+02  0.36820918739E+02  0.00000000000E+00 0.  1.
         11    1    4    4    0    0  0.19183296863E+02  0.17156417784E+01 -0.14815499645E+02  0.24298998647E+02  0.51100000000E-03 0. -1.
        -11    1    4    4    0    0 -0.45925778294E+01  0.78078691479E+01  0.80464394652E+00  0.90940664113E+01  0.51100000000E-03 0.  1.
        -12    1    4    4    0    0 -0.22614422360E+01 -0.46125041729E+01 -0.20335192154E+02  0.20974016203E+02  0.00000000000E+00 0.  1.
</event>
<event>
 8    1  0.2558382E-006  0.9118800E+02  0.7816164E-02  0.1184000E+00
        -11   -1    0    0    0    0  0.00000000000E+00  0.00000000000E+00  0.45593999997E+02  0.45594000000E+02  0.51100000000E-03 0. -1.
         11   -1    0    0    0    0 -0.00000000000E+00 -0.00000000000E+00 -0.45593999997E+02  0.45594000000E+02  0.51100000000E-03 0.  1.
         23    2    1    2    0    0  0.00000000000E+00  0.00000000000E+00  0.00000000000E+00  0.91188000000E+02  0.91188000000E+02 0.  0.
    9900012    2    3    3    0    0  0.24634087736E+02 -0.26423964067E+02 -0.71213081899E+01  0.54367120245E+02  0.40000082222E+02 0.  0.
         12    1    3    3    0    0 -0.24634087736E+02  0.26423964067E+02  0.71213081899E+01  0.36820879755E+02  0.00000000000E+00 0. -1.
         11    1    4    4    0    0  0.15134427723E+02 -0.15090898561E+02 -0.83169496397E+01  0.22933769281E+02  0.51100000000E-03 0. -1.
        -11    1    4    4    0    0  0.76481330192E+01  0.52855065020E+01 -0.80749380680E+01  0.12314022199E+02  0.51100000000E-03 0.  1.
         12    1    4    4    0    0  0.18515269946E+01 -0.16618572008E+02  0.92705795178E+01  0.19119328764E+02  0.00000000000E+00 0. -1.
</event>
<event>
 8    1  0.2558382E-006  0.9118800E+02  0.7816164E-02  0.1184000E+00
        -11   -1    0    0    0    0  0.00000000000E+00  0.00000000000E+00  0.45593999997E+02  0.45594000000E+02  0.51100000000E-03 0.  1.
         11   -1    0    0    0    0 -0.00000000000E+00 -0.00000000000E+00 -0.45593999997E+02  0.45594000000E+02  0.51100000000E-03 0. -1.
         23    2    1    2    0    0 -0.35527136788E-14  0.00000000000E+00  0.00000000000E+00  0.91188000000E+02  0.91188000000E+02 0.  0.
    9900012    2    3    3    0    0 -0.20519338328E+02  0.26619152658E+02  0.15038352118E+02  0.54367155793E+02  0.40000163262E+02 0.  0.
         12    1    3    3    0    0  0.20519338328E+02 -0.26619152658E+02 -0.15038352118E+02  0.36820844207E+02  0.00000000000E+00 0. -1.
         11    1    4    4    0    0  0.46007466690E+01  0.16423424287E+01 -0.91407417320E+01  0.10364232641E+02  0.51100000000E-03 0. -1.
        -11    1    4    4    0    0 -0.92922444843E+01  0.71964165792E+01  0.13538442968E+02  0.17928292094E+02  0.51100000000E-03 0.  1.
        -12    1    4    4    0    0 -0.15827840513E+02  0.17780393650E+02  0.10640650882E+02  0.26074631059E+02  0.00000000000E+00 0.  1.
</event>
<event>
 8    1  0.2558382E-006  0.9118800E+02  0.7816164E-02  0.1184000E+00
        -11   -1    0    0    0    0  0.00000000000E+00  0.00000000000E+00  0.45593999997E+02  0.45594000000E+02  0.51100000000E-03 0. -1.
         11   -1    0    0    0    0 -0.00000000000E+00 -0.00000000000E+00 -0.45593999997E+02  0.45594000000E+02  0.51100000000E-03 0.  1.
         23    2    1    2    0    0  0.71054273576E-14 -0.17763568394E-14  0.00000000000E+00  0.91188000000E+02  0.91188000000E+02 0.  0.
    9900012    2    3    3    0    0  0.28014600377E+02 -0.15034944884E+02  0.18571764407E+02  0.54367111429E+02  0.40000062125E+02 0.  0.
        -12    1    3    3    0    0 -0.28014600377E+02  0.15034944884E+02 -0.18571764407E+02  0.36820888571E+02  0.00000000000E+00 0.  1.
         11    1    4    4    0    0  0.13463843810E+02 -0.64472143710E+01  0.10708327993E+02  0.18371443927E+02  0.51100000000E-03 0. -1.
        -11    1    4    4    0    0 -0.73049890750E+01  0.47066649763E+01 -0.13729818061E+01  0.87977633457E+01  0.51100000000E-03 0.  1.
        -12    1    4    4    0    0  0.21855745642E+02 -0.13294395489E+02  0.92364182202E+01  0.27197904157E+02  0.00000000000E+00 0.  1.
</event>
<event>
 8    1  0.2558382E-006  0.9118800E+02  0.7816164E-02  0.1184000E+00
        -11   -1    0    0    0    0  0.00000000000E+00  0.00000000000E+00  0.45593999997E+02  0.45594000000E+02  0.51100000000E-03 0. -1.
         11   -1    0    0    0    0 -0.00000000000E+00 -0.00000000000E+00 -0.45593999997E+02  0.45594000000E+02  0.51100000000E-03 0.  1.
         23    2    1    2    0    0  0.00000000000E+00 -0.26645352591E-14  0.00000000000E+00  0.91188000000E+02  0.91188000000E+02 0.  0.
    9900012    2    3    3    0    0 -0.25711298328E+02 -0.61829384842E+01  0.25622013172E+02  0.54366984954E+02  0.39999773799E+02 0.  0.
         12    1    3    3    0    0  0.25711298328E+02  0.61829384842E+01 -0.25622013172E+02  0.36821015046E+02  0.00000000000E+00 0. -1.
         11    1    4    4    0    0 -0.15912337418E+02 -0.94964637206E+01  0.30083668810E+02  0.35332880361E+02  0.51100000000E-03 0. -1.
        -11    1    4    4    0    0 -0.13452589450E+02  0.49901817623E+01 -0.44208444820E+01  0.15013924974E+02  0.51100000000E-03 0.  1.
        -12    1    4    4    0    0  0.36536285403E+01 -0.16766565259E+01 -0.40811155574E-01  0.40201796187E+01  0.00000000000E+00 0.  1.
</event>
<event>
 8    1  0.2558382E-006  0.9118800E+02  0.7816164E-02  0.1184000E+00
        -11   -1    0    0    0    0  0.00000000000E+00  0.00000000000E+00  0.45593999997E+02  0.45594000000E+02  0.51100000000E-03 0. -1.
         11   -1    0    0    0    0 -0.00000000000E+00 -0.00000000000E+00 -0.45593999997E+02  0.45594000000E+02  0.51100000000E-03 0.  1.
         23    2    1    2    0    0  0.00000000000E+00  0.00000000000E+00 -0.35527136788E-14  0.91188000000E+02  0.91188000000E+02 0.  0.
    9900012    2    3    3    0    0 -0.19846672686E+02 -0.19119108496E+02  0.24420249069E+02  0.54367091660E+02  0.40000017056E+02 0.  0.
        -12    1    3    3    0    0  0.19846672686E+02  0.19119108496E+02 -0.24420249069E+02  0.36820908340E+02  0.00000000000E+00 0.  1.
         11    1    4    4    0    0 -0.15204424978E+02 -0.16303247719E+02  0.69920655287E+00  0.22303795981E+02  0.51100000000E-03 0. -1.
        -11    1    4    4    0    0  0.70143689674E+01 -0.12382016531E+01  0.20604841743E+01  0.74148574254E+01  0.51100000000E-03 0.  1.
        -12    1    4    4    0    0 -0.11656616676E+02 -0.15776591240E+01  0.21660558342E+02  0.24648438254E+02  0.00000000000E+00 0.  1.
</event>
<event>
 8    1  0.2558382E-006  0.9118800E+02  0.7816164E-02  0.1184000E+00
        -11   -1    0    0    0    0  0.00000000000E+00  0.00000000000E+00  0.45593999997E+02  0.45594000000E+02  0.51100000000E-03 0. -1.
         11   -1    0    0    0    0 -0.00000000000E+00 -0.00000000000E+00 -0.45593999997E+02  0.45594000000E+02  0.51100000000E-03 0.  1.
         23    2    1    2    0    0 -0.17763568394E-14 -0.71054273576E-14  0.00000000000E+00  0.91188000000E+02  0.91188000000E+02 0.  0.
    9900012    2    3    3    0    0  0.11312248221E+02 -0.34571461129E+02  0.57120695991E+01  0.54367073565E+02  0.39999975807E+02 0.  0.
        -12    1    3    3    0    0 -0.11312248221E+02  0.34571461129E+02 -0.57120695991E+01  0.36820926435E+02  0.00000000000E+00 0.  1.
         11    1    4    4    0    0  0.49216429135E+01  0.35503794878E+01  0.10791903847E+02  0.12381153112E+02  0.51100000000E-03 0. -1.
        -11    1    4    4    0    0 -0.50745944420E+01 -0.14702429655E+02 -0.28808019692E+01  0.15818089858E+02  0.51100000000E-03 0.  1.
        -12    1    4    4    0    0  0.11465199749E+02 -0.23419410962E+02 -0.21990322790E+01  0.26167830595E+02  0.00000000000E+00 0.  1.
</event>
<event>
 8    1  0.2558382E-006  0.9118800E+02  0.7816164E-02  0.1184000E+00
        -11   -1    0    0    0    0  0.00000000000E+00  0.00000000000E+00  0.45593999997E+02  0.45594000000E+02  0.51100000000E-03 0. -1.
         11   -1    0    0    0    0 -0.00000000000E+00 -0.00000000000E+00 -0.45593999997E+02  0.45594000000E+02  0.51100000000E-03 0.  1.
         23    2    1    2    0    0  0.35527136788E-14  0.35527136788E-14 -0.44408920985E-15  0.91188000000E+02  0.91188000000E+02 0.  0.
    9900012    2    3    3    0    0 -0.30530829191E+02 -0.20447198576E+02  0.23579883114E+01  0.54367087877E+02  0.40000008433E+02 0.  0.
        -12    1    3    3    0    0  0.30530829191E+02  0.20447198576E+02 -0.23579883114E+01  0.36820912123E+02  0.00000000000E+00 0.  1.
         11    1    4    4    0    0 -0.24185942665E+02 -0.24890261014E+02  0.43269796327E+01  0.34974385898E+02  0.51100000000E-03 0. -1.
        -11    1    4    4    0    0 -0.23715454347E+01 -0.58678490994E+01 -0.48496551358E+01  0.79733955125E+01  0.51100000000E-03 0.  1.
        -12    1    4    4    0    0 -0.39733410915E+01  0.10310911537E+02  0.28806638145E+01  0.11419306466E+02  0.00000000000E+00 0.  1.
</event>
<event>
 8    1  0.2558382E-006  0.9118800E+02  0.7816164E-02  0.1184000E+00
        -11   -1    0    0    0    0  0.00000000000E+00  0.00000000000E+00  0.45593999997E+02  0.45594000000E+02  0.51100000000E-03 0. -1.
         11   -1    0    0    0    0 -0.00000000000E+00 -0.00000000000E+00 -0.45593999997E+02  0.45594000000E+02  0.51100000000E-03 0.  1.
         23    2    1    2    0    0  0.88817841970E-15  0.00000000000E+00  0.00000000000E+00  0.91188000000E+02  0.91188000000E+02 0.  0.
    9900012    2    3    3    0    0 -0.72118838747E+01 -0.34772303305E+02  0.97286698663E+01  0.54367199309E+02  0.40000262463E+02 0.  0.
        -12    1    3    3    0    0  0.72118838747E+01  0.34772303305E+02 -0.97286698663E+01  0.36820800691E+02  0.00000000000E+00 0.  1.
         11    1    4    4    0    0 -0.22734110820E+02 -0.12355183132E+02  0.28961760872E+01  0.26036093816E+02  0.51100000000E-03 0. -1.
        -11    1    4    4    0    0  0.66101166556E+01 -0.12389337255E+02  0.42257660350E+01  0.14664461076E+02  0.51100000000E-03 0.  1.
         12    1    4    4    0    0  0.89121102895E+01 -0.10027782919E+02  0.26067277442E+01  0.13666644417E+02  0.00000000000E+00 0. -1.
</event>
<event>
 8    1  0.2558382E-006  0.9118800E+02  0.7816164E-02  0.1184000E+00
        -11   -1    0    0    0    0  0.00000000000E+00  0.00000000000E+00  0.45593999997E+02  0.45594000000E+02  0.51100000000E-03 0. -1.
         11   -1    0    0    0    0 -0.00000000000E+00 -0.00000000000E+00 -0.45593999997E+02  0.45594000000E+02  0.51100000000E-03 0.  1.
         23    2    1    2    0    0  0.00000000000E+00  0.00000000000E+00  0.00000000000E+00  0.91188000000E+02  0.91188000000E+02 0.  0.
    9900012    2    3    3    0    0 -0.11921702035E+02  0.22555072094E+02  0.26550383848E+02  0.54367066565E+02  0.39999959847E+02 0.  0.
        -12    1    3    3    0    0  0.11921702035E+02 -0.22555072094E+02 -0.26550383848E+02  0.36820933435E+02  0.00000000000E+00 0.  1.
         11    1    4    4    0    0 -0.18621228923E+02  0.15127885787E+02  0.24135821101E+02  0.34031470075E+02  0.51100000000E-03 0. -1.
        -11    1    4    4    0    0  0.22295771629E+01 -0.51434982279E+01 -0.24724496574E+01  0.61269564969E+01  0.51100000000E-03 0.  1.
        -12    1    4    4    0    0  0.44699497245E+01  0.12570684535E+02  0.48870124049E+01  0.14208639993E+02  0.00000000000E+00 0.  1.
</event>
<event>
 8    1  0.2558382E-006  0.9118800E+02  0.7816164E-02  0.1184000E+00
        -11   -1    0    0    0    0  0.00000000000E+00  0.00000000000E+00  0.45593999997E+02  0.45594000000E+02  0.51100000000E-03 0. -1.
         11   -1    0    0    0    0 -0.00000000000E+00 -0.00000000000E+00 -0.45593999997E+02  0.45594000000E+02  0.51100000000E-03 0.  1.
         23    2    1    2    0    0  0.00000000000E+00  0.00000000000E+00  0.00000000000E+00  0.91188000000E+02  0.91188000000E+02 0.  0.
    9900012    2    3    3    0    0  0.13252241882E+02 -0.33339177116E+02 -0.82860057276E+01  0.54367074745E+02  0.39999978497E+02 0.  0.
        -12    1    3    3    0    0 -0.13252241882E+02  0.33339177116E+02  0.82860057276E+01  0.36820925255E+02  0.00000000000E+00 0.  1.
         11    1    4    4    0    0  0.16882849988E+02 -0.15773155610E+02 -0.35544841996E+01  0.23376428722E+02  0.51100000000E-03 0. -1.
        -11    1    4    4    0    0 -0.10314873253E+02 -0.25731112731E+01 -0.91110546215E+01  0.14001029549E+02  0.51100000000E-03 0.  1.
        -12    1    4    4    0    0  0.66842651475E+01 -0.14992910233E+02  0.43795330934E+01  0.16989616474E+02  0.00000000000E+00 0.  1.
</event>
<event>
 8    1  0.2558382E-006  0.9118800E+02  0.7816164E-02  0.1184000E+00
        -11   -1    0    0    0    0  0.00000000000E+00  0.00000000000E+00  0.45593999997E+02  0.45594000000E+02  0.51100000000E-03 0.  1.
         11   -1    0    0    0    0 -0.00000000000E+00 -0.00000000000E+00 -0.45593999997E+02  0.45594000000E+02  0.51100000000E-03 0. -1.
         23    2    1    2    0    0  0.00000000000E+00  0.00000000000E+00  0.00000000000E+00  0.91188000000E+02  0.91188000000E+02 0.  0.
    9900012    2    3    3    0    0 -0.16158312301E+02  0.29848028877E+02 -0.14275290887E+02  0.54367084555E+02  0.40000000860E+02 0.  0.
        -12    1    3    3    0    0  0.16158312301E+02 -0.29848028877E+02  0.14275290887E+02  0.36820915445E+02  0.00000000000E+00 0.  1.
         11    1    4    4    0    0 -0.56104139034E+01  0.24663574144E+02 -0.50591232104E+01  0.25794638235E+02  0.51100000000E-03 0. -1.
        -11    1    4    4    0    0  0.46206377450E+01  0.95783895483E+01 -0.67314826549E+01  0.12586051744E+02  0.51100000000E-03 0.  1.
         12    1    4    4    0    0 -0.15168536143E+02 -0.43939348152E+01 -0.24846850221E+01  0.15986394576E+02  0.00000000000E+00 0. -1.
</event>
<event>
 8    1  0.2558382E-006  0.9118800E+02  0.7816164E-02  0.1184000E+00
        -11   -1    0    0    0    0  0.00000000000E+00  0.00000000000E+00  0.45593999997E+02  0.45594000000E+02  0.51100000000E-03 0. -1.
         11   -1    0    0    0    0 -0.00000000000E+00 -0.00000000000E+00 -0.45593999997E+02  0.45594000000E+02  0.51100000000E-03 0.  1.
         23    2    1    2    0    0  0.00000000000E+00  0.00000000000E+00  0.17763568394E-14  0.91188000000E+02  0.91188000000E+02 0.  0.
    9900012    2    3    3    0    0  0.20257731176E+02 -0.27935799983E+02 -0.12844990964E+02  0.54367103950E+02  0.40000045074E+02 0.  0.
         12    1    3    3    0    0 -0.20257731176E+02  0.27935799983E+02  0.12844990964E+02  0.36820896050E+02  0.00000000000E+00 0. -1.
         11    1    4    4    0    0 -0.62697544581E+01 -0.38053094620E+01 -0.33093313012E+01  0.80462335902E+01  0.51100000000E-03 0. -1.
        -11    1    4    4    0    0  0.24644143171E+02 -0.27173395652E+02 -0.59319776956E+00  0.36688950759E+02  0.51100000000E-03 0.  1.
         12    1    4    4    0    0  0.18833424624E+01  0.30429051316E+01 -0.89424618937E+01  0.96319196005E+01  0.00000000000E+00 0. -1.
</event>
<event>
 8    1  0.2558382E-006  0.9118800E+02  0.7816164E-02  0.1184000E+00
        -11   -1    0    0    0    0  0.00000000000E+00  0.00000000000E+00  0.45593999997E+02  0.45594000000E+02  0.51100000000E-03 0. -1.
         11   -1    0    0    0    0 -0.00000000000E+00 -0.00000000000E+00 -0.45593999997E+02  0.45594000000E+02  0.51100000000E-03 0.  1.
         23    2    1    2    0    0  0.00000000000E+00  0.00000000000E+00 -0.35527136788E-14  0.91188000000E+02  0.91188000000E+02 0.  0.
    9900012    2    3    3    0    0 -0.16820001478E+02  0.17339343326E+02 -0.27788773868E+02  0.54367065332E+02  0.39999957038E+02 0.  0.
         12    1    3    3    0    0  0.16820001478E+02 -0.17339343326E+02  0.27788773868E+02  0.36820934668E+02  0.00000000000E+00 0. -1.
         11    1    4    4    0    0 -0.21153327810E+02  0.50591663096E+01 -0.20587129088E+00  0.21750881004E+02  0.51100000000E-03 0. -1.
        -11    1    4    4    0    0  0.78477900383E+01  0.89233010500E+01 -0.15063333826E+02  0.19186378927E+02  0.51100000000E-03 0.  1.
         12    1    4    4    0    0 -0.35144637067E+01  0.33568759661E+01 -0.12519568751E+02  0.13429805401E+02  0.00000000000E+00 0. -1.
</event>
<event>
 8    1  0.2558382E-006  0.9118800E+02  0.7816164E-02  0.1184000E+00
        -11   -1    0    0    0    0  0.00000000000E+00  0.00000000000E+00  0.45593999997E+02  0.45594000000E+02  0.51100000000E-03 0.  1.
         11   -1    0    0    0    0 -0.00000000000E+00 -0.00000000000E+00 -0.45593999997E+02  0.45594000000E+02  0.51100000000E-03 0. -1.
         23    2    1    2    0    0  0.00000000000E+00 -0.35527136788E-14  0.00000000000E+00  0.91188000000E+02  0.91188000000E+02 0.  0.
    9900012    2    3    3    0    0 -0.22102096778E+02  0.27546488059E+02  0.10414821975E+02  0.54367079273E+02  0.39999988819E+02 0.  0.
        -12    1    3    3    0    0  0.22102096778E+02 -0.27546488059E+02 -0.10414821975E+02  0.36820920727E+02  0.00000000000E+00 0.  1.
         11    1    4    4    0    0 -0.74477343111E+01  0.11397400192E+02 -0.33951053591E+01  0.14031971286E+02  0.51100000000E-03 0. -1.
        -11    1    4    4    0    0 -0.22254114398E+02  0.17171936536E+02  0.48206536911E+01  0.28519462028E+02  0.51100000000E-03 0.  1.
        -12    1    4    4    0    0  0.75997519316E+01 -0.10228486688E+01  0.89892736433E+01  0.11815645960E+02  0.00000000000E+00 0.  1.
</event>
<event>
 8    1  0.2558382E-006  0.9118800E+02  0.7816164E-02  0.1184000E+00
        -11   -1    0    0    0    0  0.00000000000E+00  0.00000000000E+00  0.45593999997E+02  0.45594000000E+02  0.51100000000E-03 0.  1.
         11   -1    0    0    0    0 -0.00000000000E+00 -0.00000000000E+00 -0.45593999997E+02  0.45594000000E+02  0.51100000000E-03 0. -1.
         23    2    1    2    0    0 -0.17763568394E-14  0.00000000000E+00  0.00000000000E+00  0.91188000000E+02  0.91188000000E+02 0.  0.
    9900012    2    3    3    0    0  0.13007116477E+02  0.98036587645E+01  0.33022374683E+02  0.54367163047E+02  0.40000179798E+02 0.  0.
         12    1    3    3    0    0 -0.13007116477E+02 -0.98036587645E+01 -0.33022374683E+02  0.36820836953E+02  0.00000000000E+00 0. -1.
         11    1    4    4    0    0  0.36238133756E+01  0.33299783769E+00  0.43585094029E+01  0.56779851547E+01  0.51100000000E-03 0. -1.
        -11    1    4    4    0    0  0.21838316412E+02  0.27299960363E+01  0.75534040289E+01  0.23268408943E+02  0.51100000000E-03 0.  1.
        -12    1    4    4    0    0 -0.12455013310E+02  0.67406648906E+01  0.21110461251E+02  0.25420768949E+02  0.00000000000E+00 0.  1.
</event>
<event>
 8    1  0.2558382E-006  0.9118800E+02  0.7816164E-02  0.1184000E+00
        -11   -1    0    0    0    0  0.00000000000E+00  0.00000000000E+00  0.45593999997E+02  0.45594000000E+02  0.51100000000E-03 0.  1.
         11   -1    0    0    0    0 -0.00000000000E+00 -0.00000000000E+00 -0.45593999997E+02  0.45594000000E+02  0.51100000000E-03 0. -1.
         23    2    1    2    0    0  0.00000000000E+00  0.72164496601E-15  0.00000000000E+00  0.91188000000E+02  0.91188000000E+02 0.  0.
    9900012    2    3    3    0    0 -0.13500968137E+02 -0.35088277592E+00  0.34254675794E+02  0.54367053881E+02  0.39999930931E+02 0.  0.
         12    1    3    3    0    0  0.13500968137E+02  0.35088277592E+00 -0.34254675794E+02  0.36820946119E+02  0.00000000000E+00 0. -1.
         11    1    4    4    0    0  0.63890574548E+01 -0.10920313133E+02  0.15838552197E+02  0.20271483173E+02  0.51100000000E-03 0. -1.
        -11    1    4    4    0    0 -0.57835555240E+01 -0.95500711801E+00  0.14251609619E+02  0.15410059380E+02  0.51100000000E-03 0.  1.
        -12    1    4    4    0    0 -0.14106470068E+02  0.11524437475E+02  0.41645139778E+01  0.18685511327E+02  0.00000000000E+00 0.  1.
</event>
<event>
 8    1  0.2558382E-006  0.9118800E+02  0.7816164E-02  0.1184000E+00
        -11   -1    0    0    0    0  0.00000000000E+00  0.00000000000E+00  0.45593999997E+02  0.45594000000E+02  0.51100000000E-03 0.  1.
         11   -1    0    0    0    0 -0.00000000000E+00 -0.00000000000E+00 -0.45593999997E+02  0.45594000000E+02  0.51100000000E-03 0. -1.
         23    2    1    2    0    0 -0.17763568394E-14  0.00000000000E+00 -0.44408920985E-15  0.91188000000E+02  0.91188000000E+02 0.  0.
    9900012    2    3    3    0    0  0.12975169141E+02  0.34288099464E+02 -0.34280412754E+01  0.54367078691E+02  0.39999987491E+02 0.  0.
         12    1    3    3    0    0 -0.12975169141E+02 -0.34288099464E+02  0.34280412754E+01  0.36820921309E+02  0.00000000000E+00 0. -1.
         11    1    4    4    0    0 -0.92592857584E+01  0.14335382142E+01 -0.44627502506E+01  0.10378128185E+02  0.51100000000E-03 0. -1.
        -11    1    4    4    0    0  0.19323932728E+02  0.35250276318E+02  0.11753250250E+01  0.40216635187E+02  0.51100000000E-03 0.  1.
         12    1    4    4    0    0  0.29105221706E+01 -0.23957150679E+01 -0.14061604981E+00  0.37723153190E+01  0.00000000000E+00 0. -1.
</event>
<event>
 8    1  0.2558382E-006  0.9118800E+02  0.7816164E-02  0.1184000E+00
        -11   -1    0    0    0    0  0.00000000000E+00  0.00000000000E+00  0.45593999997E+02  0.45594000000E+02  0.51100000000E-03 0.  1.
         11   -1    0    0    0    0 -0.00000000000E+00 -0.00000000000E+00 -0.45593999997E+02  0.45594000000E+02  0.51100000000E-03 0. -1.
         23    2    1    2    0    0 -0.88817841970E-15 -0.14210854715E-13  0.88817841970E-15  0.91188000000E+02  0.91188000000E+02 0.  0.
    9900012    2    3    3    0    0  0.74516888699E+01  0.35685760399E+02 -0.51747797552E+01  0.54367088716E+02  0.40000010345E+02 0.  0.
        -12    1    3    3    0    0 -0.74516888699E+01 -0.35685760399E+02  0.51747797552E+01  0.36820911284E+02  0.00000000000E+00 0.  1.
         11    1    4    4    0    0  0.14139368192E+02  0.20442433251E+01  0.44636046379E+01  0.14967445683E+02  0.51100000000E-03 0. -1.
        -11    1    4    4    0    0 -0.10553093942E+01  0.76361058332E+01  0.48450432495E+01  0.91048467623E+01  0.51100000000E-03 0.  1.
         12    1    4    4    0    0 -0.56323699276E+01  0.26005411241E+02 -0.14483427643E+02  0.30294796271E+02  0.00000000000E+00 0. -1.
</event>
<event>
 8    1  0.2558382E-006  0.9118800E+02  0.7816164E-02  0.1184000E+00
        -11   -1    0    0    0    0  0.00000000000E+00  0.00000000000E+00  0.45593999997E+02  0.45594000000E+02  0.51100000000E-03 0.  1.
         11   -1    0    0    0    0 -0.00000000000E+00 -0.00000000000E+00 -0.45593999997E+02  0.45594000000E+02  0.51100000000E-03 0. -1.
         23    2    1    2    0    0  0.00000000000E+00  0.00000000000E+00  0.00000000000E+00  0.91188000000E+02  0.91188000000E+02 0.  0.
    9900012    2    3    3    0    0 -0.18179098911E+02  0.19369991021E+02  0.25497137395E+02  0.54367079253E+02  0.39999988772E+02 0.  0.
         12    1    3    3    0    0  0.18179098911E+02 -0.19369991021E+02 -0.25497137395E+02  0.36820920747E+02  0.00000000000E+00 0. -1.
         11    1    4    4    0    0  0.42286966544E+01 -0.48958674161E+01  0.73948715227E+01  0.98252490172E+01  0.51100000000E-03 0. -1.
        -11    1    4    4    0    0 -0.15441822154E+02  0.19832797440E+02  0.23715636840E+02  0.34557505071E+02  0.51100000000E-03 0.  1.
        -12    1    4    4    0    0 -0.69659734111E+01  0.44330609971E+01 -0.56133709682E+01  0.99843251647E+01  0.00000000000E+00 0.  1.
</event>
<event>
 8    1  0.2558382E-006  0.9118800E+02  0.7816164E-02  0.1184000E+00
        -11   -1    0    0    0    0  0.00000000000E+00  0.00000000000E+00  0.45593999997E+02  0.45594000000E+02  0.51100000000E-03 0. -1.
         11   -1    0    0    0    0 -0.00000000000E+00 -0.00000000000E+00 -0.45593999997E+02  0.45594000000E+02  0.51100000000E-03 0.  1.
         23    2    1    2    0    0  0.00000000000E+00 -0.17763568394E-14 -0.44408920985E-15  0.91188000000E+02  0.91188000000E+02 0.  0.
    9900012    2    3    3    0    0  0.35262379504E+02 -0.10293342188E+02 -0.25282685217E+01  0.54367076011E+02  0.39999981382E+02 0.  0.
         12    1    3    3    0    0 -0.35262379504E+02  0.10293342188E+02  0.25282685217E+01  0.36820923989E+02  0.00000000000E+00 0. -1.
         11    1    4    4    0    0  0.12667784583E+02 -0.63439800416E-01  0.21979096833E+01  0.12857200243E+02  0.51100000000E-03 0. -1.
        -11    1    4    4    0    0 -0.25367523411E+01  0.12220436510E+01  0.98760222481E+01  0.10269582213E+02  0.51100000000E-03 0.  1.
        -12    1    4    4    0    0  0.25131347262E+02 -0.11451946039E+02 -0.14602200453E+02  0.31240293554E+02  0.00000000000E+00 0.  1.
</event>
<event>
 8    1  0.2558382E-006  0.9118800E+02  0.7816164E-02  0.1184000E+00
        -11   -1    0    0    0    0  0.00000000000E+00  0.00000000000E+00  0.45593999997E+02  0.45594000000E+02  0.51100000000E-03 0. -1.
         11   -1    0    0    0    0 -0.00000000000E+00 -0.00000000000E+00 -0.45593999997E+02  0.45594000000E+02  0.51100000000E-03 0.  1.
         23    2    1    2    0    0  0.00000000000E+00  0.35527136788E-14 -0.13322676296E-14  0.91188000000E+02  0.91188000000E+02 0.  0.
    9900012    2    3    3    0    0  0.19585643143E+02 -0.30949350963E+02 -0.37837648616E+01  0.54367127945E+02  0.40000099777E+02 0.  0.
         12    1    3    3    0    0 -0.19585643143E+02  0.30949350963E+02  0.37837648616E+01  0.36820872055E+02  0.00000000000E+00 0. -1.
         11    1    4    4    0    0  0.34408339171E+01 -0.24223868755E+02  0.10429577177E+02  0.26597203535E+02  0.51100000000E-03 0. -1.
        -11    1    4    4    0    0 -0.20043298509E+01  0.18429460733E+01  0.64520512630E+00  0.27982277063E+01  0.51100000000E-03 0.  1.
         12    1    4    4    0    0  0.18149139077E+02 -0.85684282803E+01 -0.14858547165E+02  0.24971696704E+02  0.00000000000E+00 0. -1.
</event>
<event>
 8    1  0.2558382E-006  0.9118800E+02  0.7816164E-02  0.1184000E+00
        -11   -1    0    0    0    0  0.00000000000E+00  0.00000000000E+00  0.45593999997E+02  0.45594000000E+02  0.51100000000E-03 0. -1.
         11   -1    0    0    0    0 -0.00000000000E+00 -0.00000000000E+00 -0.45593999997E+02  0.45594000000E+02  0.51100000000E-03 0.  1.
         23    2    1    2    0    0 -0.17763568394E-14  0.00000000000E+00 -0.35527136788E-14  0.91188000000E+02  0.91188000000E+02 0.  0.
    9900012    2    3    3    0    0 -0.15865100333E+02  0.16462341026E+02  0.28862933801E+02  0.54367095228E+02  0.40000025191E+02 0.  0.
        -12    1    3    3    0    0  0.15865100333E+02 -0.16462341026E+02 -0.28862933801E+02  0.36820904772E+02  0.00000000000E+00 0.  1.
         11    1    4    4    0    0 -0.96534091742E+01  0.36707682370E+01  0.14237445965E+02  0.17588852038E+02  0.51100000000E-03 0. -1.
        -11    1    4    4    0    0 -0.68699186753E+01  0.22749127848E+02  0.10484371994E+02  0.25973845631E+02  0.51100000000E-03 0.  1.
        -12    1    4    4    0    0  0.65822751602E+00 -0.99575550592E+01  0.41411158411E+01  0.10804397560E+02  0.00000000000E+00 0.  1.
</event>
<event>
 8    1  0.2558382E-006  0.9118800E+02  0.7816164E-02  0.1184000E+00
        -11   -1    0    0    0    0  0.00000000000E+00  0.00000000000E+00  0.45593999997E+02  0.45594000000E+02  0.51100000000E-03 0.  1.
         11   -1    0    0    0    0 -0.00000000000E+00 -0.00000000000E+00 -0.45593999997E+02  0.45594000000E+02  0.51100000000E-03 0. -1.
         23    2    1    2    0    0  0.35527136788E-14  0.17763568394E-14  0.35527136788E-14  0.91188000000E+02  0.91188000000E+02 0.  0.
    9900012    2    3    3    0    0 -0.29180287535E+02  0.31105568221E+01 -0.22239947951E+02  0.54367081635E+02  0.39999994204E+02 0.  0.
        -12    1    3    3    0    0  0.29180287535E+02 -0.31105568221E+01  0.22239947951E+02  0.36820918365E+02  0.00000000000E+00 0.  1.
         11    1    4    4    0    0 -0.21464646763E+02 -0.11259468160E+02 -0.11219650475E+02  0.26709310005E+02  0.51100000000E-03 0. -1.
        -11    1    4    4    0    0  0.13641428801E+00  0.11193157287E+02  0.27169772181E+01  0.11518999279E+02  0.51100000000E-03 0.  1.
        -12    1    4    4    0    0 -0.78520550603E+01  0.31768676949E+01 -0.13737274693E+02  0.16138772352E+02  0.00000000000E+00 0.  1.
</event>
<event>
 8    1  0.2558382E-006  0.9118800E+02  0.7816164E-02  0.1184000E+00
        -11   -1    0    0    0    0  0.00000000000E+00  0.00000000000E+00  0.45593999997E+02  0.45594000000E+02  0.51100000000E-03 0.  1.
         11   -1    0    0    0    0 -0.00000000000E+00 -0.00000000000E+00 -0.45593999997E+02  0.45594000000E+02  0.51100000000E-03 0. -1.
         23    2    1    2    0    0  0.00000000000E+00 -0.17763568394E-14 -0.35527136788E-14  0.91188000000E+02  0.91188000000E+02 0.  0.
    9900012    2    3    3    0    0  0.25794945104E+02 -0.12061692722E+02 -0.23343455899E+02  0.54367074462E+02  0.39999977850E+02 0.  0.
        -12    1    3    3    0    0 -0.25794945104E+02  0.12061692722E+02  0.23343455899E+02  0.36820925538E+02  0.00000000000E+00 0.  1.
         11    1    4    4    0    0 -0.67088877309E+01 -0.99202628034E+01 -0.29483747708E+01  0.12333438398E+02  0.51100000000E-03 0. -1.
        -11    1    4    4    0    0 -0.67931847558E+00  0.38179537667E+00  0.18480213834E+01  0.20055983136E+01  0.51100000000E-03 0.  1.
         12    1    4    4    0    0  0.33183151310E+02 -0.25232252952E+01 -0.22243102511E+02  0.40028037750E+02  0.00000000000E+00 0. -1.
</event>
<event>
 8    1  0.2558382E-006  0.9118800E+02  0.7816164E-02  0.1184000E+00
        -11   -1    0    0    0    0  0.00000000000E+00  0.00000000000E+00  0.45593999997E+02  0.45594000000E+02  0.51100000000E-03 0.  1.
         11   -1    0    0    0    0 -0.00000000000E+00 -0.00000000000E+00 -0.45593999997E+02  0.45594000000E+02  0.51100000000E-03 0. -1.
         23    2    1    2    0    0  0.88817841970E-15  0.88817841970E-15  0.00000000000E+00  0.91188000000E+02  0.91188000000E+02 0.  0.
    9900012    2    3    3    0    0  0.49267215906E+01 -0.58876323535E+01 -0.36011732136E+02  0.54367059602E+02  0.39999943975E+02 0.  0.
        -12    1    3    3    0    0 -0.49267215906E+01  0.58876323535E+01  0.36011732136E+02  0.36820940398E+02  0.00000000000E+00 0.  1.
         11    1    4    4    0    0 -0.26797184612E+01  0.85219936571E+01  0.16899726348E+01  0.90918246073E+01  0.51100000000E-03 0. -1.
        -11    1    4    4    0    0  0.10584909719E+01 -0.11652097003E+02 -0.67269185028E+01  0.13496043883E+02  0.51100000000E-03 0.  1.
         12    1    4    4    0    0  0.65479490798E+01 -0.27575290080E+01 -0.30974786268E+02  0.31779191112E+02  0.00000000000E+00 0. -1.
</event>
<event>
 8    1  0.2558382E-006  0.9118800E+02  0.7816164E-02  0.1184000E+00
        -11   -1    0    0    0    0  0.00000000000E+00  0.00000000000E+00  0.45593999997E+02  0.45594000000E+02  0.51100000000E-03 0.  1.
         11   -1    0    0    0    0 -0.00000000000E+00 -0.00000000000E+00 -0.45593999997E+02  0.45594000000E+02  0.51100000000E-03 0. -1.
         23    2    1    2    0    0  0.00000000000E+00 -0.17763568394E-14  0.00000000000E+00  0.91188000000E+02  0.91188000000E+02 0.  0.
    9900012    2    3    3    0    0 -0.24820118192E+02 -0.13298627790E+02 -0.23725276795E+02  0.54367074874E+02  0.39999978790E+02 0.  0.
        -12    1    3    3    0    0  0.24820118192E+02  0.13298627790E+02  0.23725276795E+02  0.36820925126E+02  0.00000000000E+00 0.  1.
         11    1    4    4    0    0 -0.58905057550E+01 -0.37175643350E+01 -0.14825395870E+02  0.16380192477E+02  0.51100000000E-03 0. -1.
        -11    1    4    4    0    0  0.14633824230E+01 -0.10944788795E+02  0.61182974039E+01  0.12623923846E+02  0.51100000000E-03 0.  1.
        -12    1    4    4    0    0 -0.20392994860E+02  0.13637253398E+01 -0.15018178328E+02  0.25362958551E+02  0.00000000000E+00 0.  1.
</event>
<event>
 8    1  0.2558382E-006  0.9118800E+02  0.7816164E-02  0.1184000E+00
        -11   -1    0    0    0    0  0.00000000000E+00  0.00000000000E+00  0.45593999997E+02  0.45594000000E+02  0.51100000000E-03 0. -1.
         11   -1    0    0    0    0 -0.00000000000E+00 -0.00000000000E+00 -0.45593999997E+02  0.45594000000E+02  0.51100000000E-03 0.  1.
         23    2    1    2    0    0 -0.71054273576E-14  0.43021142204E-15  0.44408920985E-15  0.91188000000E+02  0.91188000000E+02 0.  0.
    9900012    2    3    3    0    0 -0.36750910018E+02 -0.10857070825E+00  0.22668250665E+01  0.54367086504E+02  0.40000005304E+02 0.  0.
        -12    1    3    3    0    0  0.36750910018E+02  0.10857070825E+00 -0.22668250665E+01  0.36820913496E+02  0.00000000000E+00 0.  1.
         11    1    4    4    0    0 -0.18483514415E+02 -0.35028596142E+01  0.78417586254E+01  0.20381450125E+02  0.51100000000E-03 0. -1.
        -11    1    4    4    0    0  0.41575868949E+01  0.94255263958E+01 -0.15582794497E+01  0.10418940048E+02  0.51100000000E-03 0.  1.
         12    1    4    4    0    0 -0.22424982498E+02 -0.60312374899E+01 -0.40166541092E+01  0.23566696331E+02  0.00000000000E+00 0. -1.
</event>
<event>
 8    1  0.2558382E-006  0.9118800E+02  0.7816164E-02  0.1184000E+00
        -11   -1    0    0    0    0  0.00000000000E+00  0.00000000000E+00  0.45593999997E+02  0.45594000000E+02  0.51100000000E-03 0.  1.
         11   -1    0    0    0    0 -0.00000000000E+00 -0.00000000000E+00 -0.45593999997E+02  0.45594000000E+02  0.51100000000E-03 0. -1.
         23    2    1    2    0    0  0.00000000000E+00  0.88817841970E-15 -0.71054273576E-14  0.91188000000E+02  0.91188000000E+02 0.  0.
    9900012    2    3    3    0    0 -0.56406370074E+01 -0.58632641873E+01 -0.35910789923E+02  0.54367089016E+02  0.40000011030E+02 0.  0.
        -12    1    3    3    0    0  0.56406370074E+01  0.58632641873E+01  0.35910789923E+02  0.36820910984E+02  0.00000000000E+00 0.  1.
         11    1    4    4    0    0  0.87152631568E+00  0.86330411162E+01 -0.28852328344E+02  0.30128820225E+02  0.51100000000E-03 0.  1.
        -11    1    4    4    0    0 -0.27858733844E+01  0.34430075427E+01 -0.33284556420E+01  0.55402173852E+01  0.51100000000E-03 0. -1.
        -12    1    4    4    0    0 -0.37262899386E+01 -0.17939312846E+02 -0.37300059374E+01  0.18698051406E+02  0.00000000000E+00 0.  1.
</event>
<event>
 8    1  0.2558382E-006  0.9118800E+02  0.7816164E-02  0.1184000E+00
        -11   -1    0    0    0    0  0.00000000000E+00  0.00000000000E+00  0.45593999997E+02  0.45594000000E+02  0.51100000000E-03 0. -1.
         11   -1    0    0    0    0 -0.00000000000E+00 -0.00000000000E+00 -0.45593999997E+02  0.45594000000E+02  0.51100000000E-03 0.  1.
         23    2    1    2    0    0  0.00000000000E+00 -0.71054273576E-14  0.00000000000E+00  0.91188000000E+02  0.91188000000E+02 0.  0.
    9900012    2    3    3    0    0  0.11780598047E+02  0.33424328006E+02  0.99906414599E+01  0.54367066962E+02  0.39999960753E+02 0.  0.
        -12    1    3    3    0    0 -0.11780598047E+02 -0.33424328006E+02 -0.99906414599E+01  0.36820933038E+02  0.00000000000E+00 0.  1.
         11    1    4    4    0    0 -0.18483922009E+01  0.36642505579E+02  0.86447526032E+01  0.37693786181E+02  0.51100000000E-03 0. -1.
        -11    1    4    4    0    0  0.61377849445E+01  0.18171132608E+01  0.36351577785E+01  0.73612958752E+01  0.51100000000E-03 0.  1.
        -12    1    4    4    0    0  0.74912053039E+01 -0.50352908339E+01 -0.22892689218E+01  0.93119849056E+01  0.00000000000E+00 0.  1.
</event>
<event>
 8    1  0.2558382E-006  0.9118800E+02  0.7816164E-02  0.1184000E+00
        -11   -1    0    0    0    0  0.00000000000E+00  0.00000000000E+00  0.45593999997E+02  0.45594000000E+02  0.51100000000E-03 0.  1.
         11   -1    0    0    0    0 -0.00000000000E+00 -0.00000000000E+00 -0.45593999997E+02  0.45594000000E+02  0.51100000000E-03 0. -1.
         23    2    1    2    0    0  0.00000000000E+00 -0.88817841970E-15  0.00000000000E+00  0.91188000000E+02  0.91188000000E+02 0.  0.
    9900012    2    3    3    0    0 -0.32967713761E+02  0.68251795790E+01 -0.14910606927E+02  0.54367089829E+02  0.40000012883E+02 0.  0.
        -12    1    3    3    0    0  0.32967713761E+02 -0.68251795790E+01  0.14910606927E+02  0.36820910171E+02  0.00000000000E+00 0.  1.
         11    1    4    4    0    0 -0.31905195027E+02  0.23639717234E+01 -0.18164166876E+02  0.36789492937E+02  0.51100000000E-03 0. -1.
        -11    1    4    4    0    0 -0.60280380802E+01 -0.40372500255E+01  0.26227705852E+01  0.77146326334E+01  0.51100000000E-03 0.  1.
         12    1    4    4    0    0  0.49655193464E+01  0.84984578812E+01  0.63078936426E+00  0.98629642582E+01  0.00000000000E+00 0. -1.
</event>
<event>
 8    1  0.2558382E-006  0.9118800E+02  0.7816164E-02  0.1184000E+00
        -11   -1    0    0    0    0  0.00000000000E+00  0.00000000000E+00  0.45593999997E+02  0.45594000000E+02  0.51100000000E-03 0.  1.
         11   -1    0    0    0    0 -0.00000000000E+00 -0.00000000000E+00 -0.45593999997E+02  0.45594000000E+02  0.51100000000E-03 0. -1.
         23    2    1    2    0    0  0.00000000000E+00  0.00000000000E+00  0.00000000000E+00  0.91188000000E+02  0.91188000000E+02 0.  0.
    9900012    2    3    3    0    0  0.27437456952E+02 -0.16432827773E+02  0.18246334632E+02  0.54367073883E+02  0.39999976530E+02 0.  0.
         12    1    3    3    0    0 -0.27437456952E+02  0.16432827773E+02 -0.18246334632E+02  0.36820926117E+02  0.00000000000E+00 0. -1.
         11    1    4    4    0    0  0.15362947922E+01  0.59544559008E+01  0.11108727716E+02  0.12697227197E+02  0.51100000000E-03 0. -1.
        -11    1    4    4    0    0  0.95229606649E+01 -0.13416370457E+02  0.14171987965E+02  0.21714765005E+02  0.51100000000E-03 0.  1.
        -12    1    4    4    0    0  0.16378201495E+02 -0.89709132165E+01 -0.70343810484E+01  0.19955081681E+02  0.00000000000E+00 0.  1.
</event>
<event>
 8    1  0.2558382E-006  0.9118800E+02  0.7816164E-02  0.1184000E+00
        -11   -1    0    0    0    0  0.00000000000E+00  0.00000000000E+00  0.45593999997E+02  0.45594000000E+02  0.51100000000E-03 0.  1.
         11   -1    0    0    0    0 -0.00000000000E+00 -0.00000000000E+00 -0.45593999997E+02  0.45594000000E+02  0.51100000000E-03 0. -1.
         23    2    1    2    0    0 -0.88817841970E-15  0.00000000000E+00  0.00000000000E+00  0.91188000000E+02  0.91188000000E+02 0.  0.
    9900012    2    3    3    0    0 -0.57108729954E+01 -0.34102095157E+02  0.12657520220E+02  0.54367084984E+02  0.40000001838E+02 0.  0.
         12    1    3    3    0    0  0.57108729954E+01  0.34102095157E+02 -0.12657520220E+02  0.36820915016E+02  0.00000000000E+00 0. -1.
         11    1    4    4    0    0  0.56147579527E+00  0.67150301373E+01  0.40974882464E+01  0.78864627688E+01  0.51100000000E-03 0. -1.
        -11    1    4    4    0    0  0.28688944021E+01 -0.22310758933E+02  0.12093789018E+02  0.25539386295E+02  0.51100000000E-03 0.  1.
         12    1    4    4    0    0 -0.91412431928E+01 -0.18506366361E+02 -0.35337570445E+01  0.20941235920E+02  0.00000000000E+00 0. -1.
</event>
<event>
 8    1  0.2558382E-006  0.9118800E+02  0.7816164E-02  0.1184000E+00
        -11   -1    0    0    0    0  0.00000000000E+00  0.00000000000E+00  0.45593999997E+02  0.45594000000E+02  0.51100000000E-03 0.  1.
         11   -1    0    0    0    0 -0.00000000000E+00 -0.00000000000E+00 -0.45593999997E+02  0.45594000000E+02  0.51100000000E-03 0. -1.
         23    2    1    2    0    0  0.00000000000E+00  0.00000000000E+00  0.66613381478E-15  0.91188000000E+02  0.91188000000E+02 0.  0.
    9900012    2    3    3    0    0 -0.36759415932E+02 -0.14186304403E+01 -0.15850272905E+01  0.54367089046E+02  0.40000011097E+02 0.  0.
        -12    1    3    3    0    0  0.36759415932E+02  0.14186304403E+01  0.15850272905E+01  0.36820910954E+02  0.00000000000E+00 0.  1.
         11    1    4    4    0    0 -0.28164127179E+02  0.13204047260E+01 -0.10366175058E+02  0.30040291509E+02  0.51100000000E-03 0. -1.
        -11    1    4    4    0    0 -0.12405703618E+02 -0.37173091246E+01  0.13143990762E+02  0.18452218371E+02  0.51100000000E-03 0.  1.
         12    1    4    4    0    0  0.38104148646E+01  0.97827395828E+00 -0.43628429942E+01  0.58745791654E+01  0.00000000000E+00 0. -1.
</event>
<event>
 8    1  0.2558382E-006  0.9118800E+02  0.7816164E-02  0.1184000E+00
        -11   -1    0    0    0    0  0.00000000000E+00  0.00000000000E+00  0.45593999997E+02  0.45594000000E+02  0.51100000000E-03 0. -1.
         11   -1    0    0    0    0 -0.00000000000E+00 -0.00000000000E+00 -0.45593999997E+02  0.45594000000E+02  0.51100000000E-03 0.  1.
         23    2    1    2    0    0  0.44408920985E-15  0.00000000000E+00  0.00000000000E+00  0.91188000000E+02  0.91188000000E+02 0.  0.
    9900012    2    3    3    0    0  0.21684852582E+01 -0.17165481615E+02  0.32502676081E+02  0.54367081491E+02  0.39999993875E+02 0.  0.
        -12    1    3    3    0    0 -0.21684852582E+01  0.17165481615E+02 -0.32502676081E+02  0.36820918509E+02  0.00000000000E+00 0.  1.
         11    1    4    4    0    0 -0.10474830401E+02 -0.25088978437E+02  0.24525675953E+02  0.36615402390E+02  0.51100000000E-03 0. -1.
        -11    1    4    4    0    0  0.56791156438E+01  0.59826977990E+00  0.34946225864E+01  0.66949733761E+01  0.51100000000E-03 0.  1.
         12    1    4    4    0    0  0.69642000155E+01  0.73252270418E+01  0.44823775413E+01  0.11056705725E+02  0.00000000000E+00 0. -1.
</event>
<event>
 8    1  0.2558382E-006  0.9118800E+02  0.7816164E-02  0.1184000E+00
        -11   -1    0    0    0    0  0.00000000000E+00  0.00000000000E+00  0.45593999997E+02  0.45594000000E+02  0.51100000000E-03 0.  1.
         11   -1    0    0    0    0 -0.00000000000E+00 -0.00000000000E+00 -0.45593999997E+02  0.45594000000E+02  0.51100000000E-03 0. -1.
         23    2    1    2    0    0 -0.35527136788E-14 -0.35527136788E-14  0.00000000000E+00  0.91188000000E+02  0.91188000000E+02 0.  0.
    9900012    2    3    3    0    0 -0.14227749459E+02  0.31863008095E+02  0.11751582440E+02  0.54367084349E+02  0.40000000390E+02 0.  0.
         12    1    3    3    0    0  0.14227749459E+02 -0.31863008095E+02 -0.11751582440E+02  0.36820915651E+02  0.00000000000E+00 0. -1.
         11    1    4    4    0    0  0.34813650761E+01 -0.39164945915E+01 -0.21217200203E+00  0.52444113014E+01  0.51100000000E-03 0. -1.
        -11    1    4    4    0    0 -0.12648386784E+01  0.15065519377E+02  0.16400082021E+02  0.22305433902E+02  0.51100000000E-03 0.  1.
        -12    1    4    4    0    0 -0.16444275856E+02  0.20713983310E+02 -0.44363275796E+01  0.26817239146E+02  0.00000000000E+00 0.  1.
</event>
<event>
 8    1  0.2558382E-006  0.9118800E+02  0.7816164E-02  0.1184000E+00
        -11   -1    0    0    0    0  0.00000000000E+00  0.00000000000E+00  0.45593999997E+02  0.45594000000E+02  0.51100000000E-03 0. -1.
         11   -1    0    0    0    0 -0.00000000000E+00 -0.00000000000E+00 -0.45593999997E+02  0.45594000000E+02  0.51100000000E-03 0.  1.
         23    2    1    2    0    0 -0.88817841970E-15  0.00000000000E+00  0.00000000000E+00  0.91188000000E+02  0.91188000000E+02 0.  0.
    9900012    2    3    3    0    0 -0.40729190681E+01 -0.16255183352E+02 -0.32786571095E+02  0.54367096973E+02  0.40000029170E+02 0.  0.
         12    1    3    3    0    0  0.40729190681E+01  0.16255183352E+02  0.32786571095E+02  0.36820903027E+02  0.00000000000E+00 0. -1.
         11    1    4    4    0    0  0.86622332221E+00 -0.79657908757E+01 -0.23762259969E+02  0.25076865159E+02  0.51100000000E-03 0. -1.
        -11    1    4    4    0    0 -0.56746858042E+01 -0.12008985574E+02 -0.16335770749E+02  0.21054101731E+02  0.51100000000E-03 0.  1.
         12    1    4    4    0    0  0.73554341389E+00  0.37195930977E+01  0.73114596230E+01  0.82361300830E+01  0.00000000000E+00 0. -1.
</event>
<event>
 8    1  0.2558382E-006  0.9118800E+02  0.7816164E-02  0.1184000E+00
        -11   -1    0    0    0    0  0.00000000000E+00  0.00000000000E+00  0.45593999997E+02  0.45594000000E+02  0.51100000000E-03 0.  1.
         11   -1    0    0    0    0 -0.00000000000E+00 -0.00000000000E+00 -0.45593999997E+02  0.45594000000E+02  0.51100000000E-03 0. -1.
         23    2    1    2    0    0 -0.35527136788E-14  0.35527136788E-14  0.00000000000E+00  0.91188000000E+02  0.91188000000E+02 0.  0.
    9900012    2    3    3    0    0  0.25181257941E+02 -0.20324671880E+02  0.17566770879E+02  0.54367089125E+02  0.40000011279E+02 0.  0.
         12    1    3    3    0    0 -0.25181257941E+02  0.20324671880E+02 -0.17566770879E+02  0.36820910875E+02  0.00000000000E+00 0. -1.
         11    1    4    4    0    0  0.53999157569E+01  0.22419503669E+01 -0.34177846957E+01  0.67724946745E+01  0.51100000000E-03 0. -1.
        -11    1    4    4    0    0  0.20355717331E+02 -0.23508073090E+01  0.17757527520E+02  0.27114780231E+02  0.51100000000E-03 0.  1.
        -12    1    4    4    0    0 -0.57437514758E+00 -0.20215814938E+02  0.32270280548E+01  0.20479814220E+02  0.00000000000E+00 0.  1.
</event>
<event>
 8    1  0.2558382E-006  0.9118800E+02  0.7816164E-02  0.1184000E+00
        -11   -1    0    0    0    0  0.00000000000E+00  0.00000000000E+00  0.45593999997E+02  0.45594000000E+02  0.51100000000E-03 0.  1.
         11   -1    0    0    0    0 -0.00000000000E+00 -0.00000000000E+00 -0.45593999997E+02  0.45594000000E+02  0.51100000000E-03 0. -1.
         23    2    1    2    0    0 -0.88817841970E-15 -0.17763568394E-14  0.00000000000E+00  0.91188000000E+02  0.91188000000E+02 0.  0.
    9900012    2    3    3    0    0  0.73938127969E+01  0.94022749143E+01  0.34823970197E+02  0.54367080111E+02  0.39999990728E+02 0.  0.
         12    1    3    3    0    0 -0.73938127969E+01 -0.94022749143E+01 -0.34823970197E+02  0.36820919889E+02  0.00000000000E+00 0. -1.
         11    1    4    4    0    0  0.13578505698E+02 -0.10730523342E+02  0.11625692227E+02  0.20848900887E+02  0.51100000000E-03 0. -1.
        -11    1    4    4    0    0 -0.10234125309E+01  0.16065103663E+02  0.10497527381E+02  0.19218038669E+02  0.51100000000E-03 0.  1.
        -12    1    4    4    0    0 -0.51612803699E+01  0.40676945931E+01  0.12700750589E+02  0.14300140554E+02  0.00000000000E+00 0.  1.
</event>
<event>
 8    1  0.2558382E-006  0.9118800E+02  0.7816164E-02  0.1184000E+00
        -11   -1    0    0    0    0  0.00000000000E+00  0.00000000000E+00  0.45593999997E+02  0.45594000000E+02  0.51100000000E-03 0. -1.
         11   -1    0    0    0    0 -0.00000000000E+00 -0.00000000000E+00 -0.45593999997E+02  0.45594000000E+02  0.51100000000E-03 0.  1.
         23    2    1    2    0    0  0.00000000000E+00  0.13322676296E-14 -0.35527136788E-14  0.91188000000E+02  0.91188000000E+02 0.  0.
    9900012    2    3    3    0    0  0.24438160714E+02 -0.32231579245E+01 -0.27352644693E+02  0.54367087222E+02  0.40000006941E+02 0.  0.
         12    1    3    3    0    0 -0.24438160714E+02  0.32231579245E+01  0.27352644693E+02  0.36820912778E+02  0.00000000000E+00 0. -1.
         11    1    4    4    0    0  0.51843776629E+01 -0.11029654196E+02  0.12052394413E+01  0.12246781038E+02  0.51100000000E-03 0.  1.
        -11    1    4    4    0    0 -0.25190444216E+01 -0.13617331881E+01  0.20017532514E+01  0.34938400670E+01  0.51100000000E-03 0. -1.
        -12    1    4    4    0    0  0.21772827472E+02  0.91682294593E+01 -0.30559637386E+02  0.38626466117E+02  0.00000000000E+00 0.  1.
</event>
<event>
 8    1  0.2558382E-006  0.9118800E+02  0.7816164E-02  0.1184000E+00
        -11   -1    0    0    0    0  0.00000000000E+00  0.00000000000E+00  0.45593999997E+02  0.45594000000E+02  0.51100000000E-03 0.  1.
         11   -1    0    0    0    0 -0.00000000000E+00 -0.00000000000E+00 -0.45593999997E+02  0.45594000000E+02  0.51100000000E-03 0. -1.
         23    2    1    2    0    0  0.00000000000E+00  0.00000000000E+00  0.35527136788E-14  0.91188000000E+02  0.91188000000E+02 0.  0.
    9900012    2    3    3    0    0  0.18790923388E+02  0.11268759113E+02 -0.29592158158E+02  0.54367088032E+02  0.40000008787E+02 0.  0.
        -12    1    3    3    0    0 -0.18790923388E+02 -0.11268759113E+02  0.29592158158E+02  0.36820911968E+02  0.00000000000E+00 0.  1.
         11    1    4    4    0    0  0.20296981960E+02  0.50996250811E+01 -0.17038297583E+02  0.26986612189E+02  0.51100000000E-03 0. -1.
        -11    1    4    4    0    0  0.94676458325E+01  0.82053371020E+01 -0.97427479627E+01  0.15870885693E+02  0.51100000000E-03 0.  1.
        -12    1    4    4    0    0 -0.10973704405E+02 -0.20362030701E+01 -0.28111126117E+01  0.11509590150E+02  0.00000000000E+00 0.  1.
</event>
<event>
 8    1  0.2558382E-006  0.9118800E+02  0.7816164E-02  0.1184000E+00
        -11   -1    0    0    0    0  0.00000000000E+00  0.00000000000E+00  0.45593999997E+02  0.45594000000E+02  0.51100000000E-03 0. -1.
         11   -1    0    0    0    0 -0.00000000000E+00 -0.00000000000E+00 -0.45593999997E+02  0.45594000000E+02  0.51100000000E-03 0.  1.
         23    2    1    2    0    0  0.00000000000E+00  0.11102230246E-14  0.00000000000E+00  0.91188000000E+02  0.91188000000E+02 0.  0.
    9900012    2    3    3    0    0 -0.21771088070E+01 -0.13078631500E+01  0.36733256630E+02  0.54367048743E+02  0.39999919220E+02 0.  0.
        -12    1    3    3    0    0  0.21771088070E+01  0.13078631500E+01 -0.36733256630E+02  0.36820951257E+02  0.00000000000E+00 0.  1.
         11    1    4    4    0    0 -0.21564046133E+01  0.13870269984E+02  0.24439152151E+02  0.28183446000E+02  0.51100000000E-03 0. -1.
        -11    1    4    4    0    0 -0.38146714208E+01 -0.14773299819E+02  0.15085260506E+02  0.21456169052E+02  0.51100000000E-03 0.  1.
        -12    1    4    4    0    0  0.37939672271E+01 -0.40483331535E+00 -0.27911560274E+01  0.47274336909E+01  0.00000000000E+00 0.  1.
</event>
<event>
 8    1  0.2558382E-006  0.9118800E+02  0.7816164E-02  0.1184000E+00
        -11   -1    0    0    0    0  0.00000000000E+00  0.00000000000E+00  0.45593999997E+02  0.45594000000E+02  0.51100000000E-03 0. -1.
         11   -1    0    0    0    0 -0.00000000000E+00 -0.00000000000E+00 -0.45593999997E+02  0.45594000000E+02  0.51100000000E-03 0.  1.
         23    2    1    2    0    0 -0.44408920985E-15 -0.88817841970E-15  0.00000000000E+00  0.91188000000E+02  0.91188000000E+02 0.  0.
    9900012    2    3    3    0    0  0.33525724591E+01  0.39683637605E+01  0.36452608862E+02  0.54367077335E+02  0.39999984400E+02 0.  0.
        -12    1    3    3    0    0 -0.33525724591E+01 -0.39683637605E+01 -0.36452608862E+02  0.36820922665E+02  0.00000000000E+00 0.  1.
         11    1    4    4    0    0  0.40203995592E+01  0.27711460541E+01  0.62796691763E+01  0.79546909615E+01  0.51100000000E-03 0. -1.
        -11    1    4    4    0    0 -0.63886832247E+01 -0.15777644487E+02  0.17880817427E+02  0.24687506375E+02  0.51100000000E-03 0.  1.
        -12    1    4    4    0    0  0.57208561247E+01  0.16974862194E+02  0.12292122259E+02  0.21724879998E+02  0.00000000000E+00 0.  1.
</event>
<event>
 8    1  0.2558382E-006  0.9118800E+02  0.7816164E-02  0.1184000E+00
        -11   -1    0    0    0    0  0.00000000000E+00  0.00000000000E+00  0.45593999997E+02  0.45594000000E+02  0.51100000000E-03 0.  1.
         11   -1    0    0    0    0 -0.00000000000E+00 -0.00000000000E+00 -0.45593999997E+02  0.45594000000E+02  0.51100000000E-03 0. -1.
         23    2    1    2    0    0 -0.35527136788E-14 -0.35527136788E-14 -0.71054273576E-14  0.91188000000E+02  0.91188000000E+02 0.  0.
    9900012    2    3    3    0    0 -0.17395030922E+02 -0.29392088762E+02 -0.13758534931E+02  0.54367091999E+02  0.40000017830E+02 0.  0.
        -12    1    3    3    0    0  0.17395030922E+02  0.29392088762E+02  0.13758534931E+02  0.36820908001E+02  0.00000000000E+00 0.  1.
         11    1    4    4    0    0 -0.32873890672E+01 -0.14167388311E+02  0.26288650355E+01  0.14779470561E+02  0.51100000000E-03 0.  1.
        -11    1    4    4    0    0  0.18598376836E+01  0.61853818719E-01  0.70965636181E+01  0.73364867308E+01  0.51100000000E-03 0. -1.
         12    1    4    4    0    0 -0.15967479539E+02 -0.15286554270E+02 -0.23483963585E+02  0.32251134707E+02  0.00000000000E+00 0. -1.
</event>
<event>
 8    1  0.2558382E-006  0.9118800E+02  0.7816164E-02  0.1184000E+00
        -11   -1    0    0    0    0  0.00000000000E+00  0.00000000000E+00  0.45593999997E+02  0.45594000000E+02  0.51100000000E-03 0.  1.
         11   -1    0    0    0    0 -0.00000000000E+00 -0.00000000000E+00 -0.45593999997E+02  0.45594000000E+02  0.51100000000E-03 0. -1.
         23    2    1    2    0    0  0.00000000000E+00 -0.35527136788E-14  0.00000000000E+00  0.91188000000E+02  0.91188000000E+02 0.  0.
    9900012    2    3    3    0    0 -0.12077487833E+02 -0.26987597398E+02  0.21945023853E+02  0.54367079349E+02  0.39999988991E+02 0.  0.
         12    1    3    3    0    0  0.12077487833E+02  0.26987597398E+02 -0.21945023853E+02  0.36820920651E+02  0.00000000000E+00 0. -1.
         11    1    4    4    0    0 -0.92404216821E+01  0.33035315740E+01  0.42709028356E+01  0.10702304659E+02  0.51100000000E-03 0.  1.
        -11    1    4    4    0    0  0.36466005264E+01 -0.44708084323E+01  0.15979325925E+02  0.16988957612E+02  0.51100000000E-03 0. -1.
        -12    1    4    4    0    0 -0.64836666770E+01 -0.25820320540E+02  0.16947950924E+01  0.26675817078E+02  0.00000000000E+00 0.  1.
</event>
<event>
 8    1  0.2558382E-006  0.9118800E+02  0.7816164E-02  0.1184000E+00
        -11   -1    0    0    0    0  0.00000000000E+00  0.00000000000E+00  0.45593999997E+02  0.45594000000E+02  0.51100000000E-03 0. -1.
         11   -1    0    0    0    0 -0.00000000000E+00 -0.00000000000E+00 -0.45593999997E+02  0.45594000000E+02  0.51100000000E-03 0.  1.
         23    2    1    2    0    0  0.00000000000E+00  0.71054273576E-14 -0.88817841970E-15  0.91188000000E+02  0.91188000000E+02 0.  0.
    9900012    2    3    3    0    0  0.24086660214E+02  0.27409229916E+02 -0.49333730669E+01  0.54367200787E+02  0.40000265834E+02 0.  0.
         12    1    3    3    0    0 -0.24086660214E+02 -0.27409229916E+02  0.49333730669E+01  0.36820799213E+02  0.00000000000E+00 0. -1.
         11    1    4    4    0    0  0.97855988933E+01  0.67210982721E+01 -0.10407369568E+02  0.15787477609E+02  0.51100000000E-03 0. -1.
        -11    1    4    4    0    0  0.16703122508E+02  0.17046662719E+02 -0.73998827538E+01  0.24986822055E+02  0.51100000000E-03 0.  1.
         12    1    4    4    0    0 -0.24020611875E+01  0.36414689251E+01  0.12873879255E+02  0.13592901123E+02  0.00000000000E+00 0. -1.
</event>
<event>
 8    1  0.2558382E-006  0.9118800E+02  0.7816164E-02  0.1184000E+00
        -11   -1    0    0    0    0  0.00000000000E+00  0.00000000000E+00  0.45593999997E+02  0.45594000000E+02  0.51100000000E-03 0. -1.
         11   -1    0    0    0    0 -0.00000000000E+00 -0.00000000000E+00 -0.45593999997E+02  0.45594000000E+02  0.51100000000E-03 0.  1.
         23    2    1    2    0    0  0.00000000000E+00  0.88817841970E-15  0.35527136788E-14  0.91188000000E+02  0.91188000000E+02 0.  0.
    9900012    2    3    3    0    0 -0.21674173316E+02 -0.53939740775E+01  0.29273084907E+02  0.54367105860E+02  0.40000049430E+02 0.  0.
        -12    1    3    3    0    0  0.21674173316E+02  0.53939740775E+01 -0.29273084907E+02  0.36820894140E+02  0.00000000000E+00 0.  1.
         11    1    4    4    0    0 -0.13599362503E+02 -0.53679248370E+01  0.23185975954E+02  0.27410705186E+02  0.51100000000E-03 0. -1.
        -11    1    4    4    0    0 -0.17797841442E+01 -0.82330847746E+01 -0.65181554005E+01  0.10650712023E+02  0.51100000000E-03 0.  1.
         12    1    4    4    0    0 -0.62950266685E+01  0.82070355340E+01  0.12605264353E+02  0.16305688652E+02  0.00000000000E+00 0. -1.
</event>
<event>
 8    1  0.2558382E-006  0.9118800E+02  0.7816164E-02  0.1184000E+00
        -11   -1    0    0    0    0  0.00000000000E+00  0.00000000000E+00  0.45593999997E+02  0.45594000000E+02  0.51100000000E-03 0. -1.
         11   -1    0    0    0    0 -0.00000000000E+00 -0.00000000000E+00 -0.45593999997E+02  0.45594000000E+02  0.51100000000E-03 0.  1.
         23    2    1    2    0    0  0.35527136788E-14  0.00000000000E+00  0.00000000000E+00  0.91188000000E+02  0.91188000000E+02 0.  0.
    9900012    2    3    3    0    0 -0.24417153802E+02  0.16784498893E+02  0.21860050721E+02  0.54367100766E+02  0.40000037816E+02 0.  0.
        -12    1    3    3    0    0  0.24417153802E+02 -0.16784498893E+02 -0.21860050721E+02  0.36820899234E+02  0.00000000000E+00 0.  1.
         11    1    4    4    0    0 -0.27414970838E+02  0.89855446329E+01 -0.99435548339E+00  0.28867098598E+02  0.51100000000E-03 0. -1.
        -11    1    4    4    0    0  0.93540638625E+00  0.88531728669E+01  0.16709723472E+02  0.18933264739E+02  0.51100000000E-03 0.  1.
         12    1    4    4    0    0  0.20624106498E+01 -0.10542186070E+01  0.61446827327E+01  0.65667374278E+01  0.00000000000E+00 0. -1.
</event>
<event>
 8    1  0.2558382E-006  0.9118800E+02  0.7816164E-02  0.1184000E+00
        -11   -1    0    0    0    0  0.00000000000E+00  0.00000000000E+00  0.45593999997E+02  0.45594000000E+02  0.51100000000E-03 0.  1.
         11   -1    0    0    0    0 -0.00000000000E+00 -0.00000000000E+00 -0.45593999997E+02  0.45594000000E+02  0.51100000000E-03 0. -1.
         23    2    1    2    0    0  0.18041124150E-14 -0.35527136788E-14 -0.35527136788E-14  0.91188000000E+02  0.91188000000E+02 0.  0.
    9900012    2    3    3    0    0  0.20125153413E+00  0.28233944413E+02 -0.23634382829E+02  0.54367079710E+02  0.39999989815E+02 0.  0.
        -12    1    3    3    0    0 -0.20125153413E+00 -0.28233944413E+02  0.23634382829E+02  0.36820920290E+02  0.00000000000E+00 0.  1.
         11    1    4    4    0    0  0.71239251053E+01  0.15245164329E+02 -0.82295084770E+01  0.18732062202E+02  0.51100000000E-03 0. -1.
        -11    1    4    4    0    0 -0.15074103031E+02  0.16992189021E+02 -0.86057710151E+01  0.24290375973E+02  0.51100000000E-03 0.  1.
        -12    1    4    4    0    0  0.81514294598E+01 -0.40034089364E+01 -0.67991033370E+01  0.11344641534E+02  0.00000000000E+00 0.  1.
</event>
<event>
 8    1  0.2558382E-006  0.9118800E+02  0.7816164E-02  0.1184000E+00
        -11   -1    0    0    0    0  0.00000000000E+00  0.00000000000E+00  0.45593999997E+02  0.45594000000E+02  0.51100000000E-03 0.  1.
         11   -1    0    0    0    0 -0.00000000000E+00 -0.00000000000E+00 -0.45593999997E+02  0.45594000000E+02  0.51100000000E-03 0. -1.
         23    2    1    2    0    0 -0.17763568394E-14 -0.26645352591E-14  0.00000000000E+00  0.91188000000E+02  0.91188000000E+02 0.  0.
    9900012    2    3    3    0    0  0.11320550164E+02 -0.54595766925E+01 -0.34609511947E+02  0.54367079983E+02  0.39999990437E+02 0.  0.
        -12    1    3    3    0    0 -0.11320550164E+02  0.54595766925E+01  0.34609511947E+02  0.36820920017E+02  0.00000000000E+00 0.  1.
         11    1    4    4    0    0  0.14302119752E+02  0.61832076573E+00 -0.14520518119E+02  0.20390644832E+02  0.51100000000E-03 0. -1.
        -11    1    4    4    0    0 -0.44992123668E+01 -0.16380673606E+02 -0.12447684417E+02  0.21059777476E+02  0.51100000000E-03 0.  1.
        -12    1    4    4    0    0  0.15176427790E+01  0.10302776148E+02 -0.76413094116E+01  0.12916657675E+02  0.00000000000E+00 0.  1.
</event>
<event>
 8    1  0.2558382E-006  0.9118800E+02  0.7816164E-02  0.1184000E+00
        -11   -1    0    0    0    0  0.00000000000E+00  0.00000000000E+00  0.45593999997E+02  0.45594000000E+02  0.51100000000E-03 0.  1.
         11   -1    0    0    0    0 -0.00000000000E+00 -0.00000000000E+00 -0.45593999997E+02  0.45594000000E+02  0.51100000000E-03 0. -1.
         23    2    1    2    0    0  0.00000000000E+00  0.17763568394E-14  0.00000000000E+00  0.91188000000E+02  0.91188000000E+02 0.  0.
    9900012    2    3    3    0    0 -0.31694431281E+02 -0.15585610929E+02  0.10408409218E+02  0.54367038243E+02  0.39999895283E+02 0.  0.
        -12    1    3    3    0    0  0.31694431281E+02  0.15585610929E+02 -0.10408409218E+02  0.36820961757E+02  0.00000000000E+00 0.  1.
         11    1    4    4    0    0 -0.42027135465E+01 -0.71494156133E+01  0.34265362490E+01  0.89731875993E+01  0.51100000000E-03 0. -1.
        -11    1    4    4    0    0 -0.48936904740E+01 -0.19045887520E+02  0.82852564845E+00  0.19681983967E+02  0.51100000000E-03 0.  1.
        -12    1    4    4    0    0 -0.22598027261E+02  0.10609692204E+02  0.61533473206E+01  0.25711866676E+02  0.00000000000E+00 0.  1.
</event>
<event>
 8    1  0.2558382E-006  0.9118800E+02  0.7816164E-02  0.1184000E+00
        -11   -1    0    0    0    0  0.00000000000E+00  0.00000000000E+00  0.45593999997E+02  0.45594000000E+02  0.51100000000E-03 0. -1.
         11   -1    0    0    0    0 -0.00000000000E+00 -0.00000000000E+00 -0.45593999997E+02  0.45594000000E+02  0.51100000000E-03 0.  1.
         23    2    1    2    0    0  0.00000000000E+00 -0.71054273576E-14 -0.44408920985E-15  0.91188000000E+02  0.91188000000E+02 0.  0.
    9900012    2    3    3    0    0  0.36768591006E+01  0.36521075635E+02 -0.29106606680E+01  0.54367079263E+02  0.39999988795E+02 0.  0.
         12    1    3    3    0    0 -0.36768591006E+01 -0.36521075635E+02  0.29106606680E+01  0.36820920737E+02  0.00000000000E+00 0. -1.
         11    1    4    4    0    0  0.33347133864E+01  0.16898369098E+02 -0.52507909195E+01  0.18006831955E+02  0.51100000000E-03 0. -1.
        -11    1    4    4    0    0  0.67982477918E+01  0.21891847269E+02  0.10915279821E+02  0.25389219833E+02  0.51100000000E-03 0.  1.
         12    1    4    4    0    0 -0.64561020776E+01 -0.22691407315E+01 -0.85751495698E+01  0.10971027474E+02  0.00000000000E+00 0. -1.
</event>
<event>
 8    1  0.2558382E-006  0.9118800E+02  0.7816164E-02  0.1184000E+00
        -11   -1    0    0    0    0  0.00000000000E+00  0.00000000000E+00  0.45593999997E+02  0.45594000000E+02  0.51100000000E-03 0. -1.
         11   -1    0    0    0    0 -0.00000000000E+00 -0.00000000000E+00 -0.45593999997E+02  0.45594000000E+02  0.51100000000E-03 0.  1.
         23    2    1    2    0    0 -0.35527136788E-14  0.35527136788E-14  0.00000000000E+00  0.91188000000E+02  0.91188000000E+02 0.  0.
    9900012    2    3    3    0    0 -0.29916372276E+02  0.12530192930E+02 -0.17429416413E+02  0.54367087172E+02  0.40000006826E+02 0.  0.
        -12    1    3    3    0    0  0.29916372276E+02 -0.12530192930E+02  0.17429416413E+02  0.36820912828E+02  0.00000000000E+00 0.  1.
         11    1    4    4    0    0 -0.63374647134E+01  0.14791233213E+02 -0.45317344509E+01  0.16717674968E+02  0.51100000000E-03 0. -1.
        -11    1    4    4    0    0 -0.10085638381E+01 -0.27751953100E+01 -0.14707316152E+02  0.15000801935E+02  0.51100000000E-03 0.  1.
        -12    1    4    4    0    0 -0.22570343724E+02  0.51415502746E+00  0.18096341899E+01  0.22648610269E+02  0.00000000000E+00 0.  1.
</event>
<event>
 8    1  0.2558382E-006  0.9118800E+02  0.7816164E-02  0.1184000E+00
        -11   -1    0    0    0    0  0.00000000000E+00  0.00000000000E+00  0.45593999997E+02  0.45594000000E+02  0.51100000000E-03 0. -1.
         11   -1    0    0    0    0 -0.00000000000E+00 -0.00000000000E+00 -0.45593999997E+02  0.45594000000E+02  0.51100000000E-03 0.  1.
         23    2    1    2    0    0  0.00000000000E+00  0.00000000000E+00  0.17763568394E-14  0.91188000000E+02  0.91188000000E+02 0.  0.
    9900012    2    3    3    0    0 -0.31538482649E+02  0.16835802251E+02  0.88125934936E+01  0.54367055834E+02  0.39999935384E+02 0.  0.
        -12    1    3    3    0    0  0.31538482649E+02 -0.16835802251E+02 -0.88125934936E+01  0.36820944166E+02  0.00000000000E+00 0.  1.
         11    1    4    4    0    0 -0.23042197936E+02  0.21151572102E+01  0.10841408616E+02  0.25552943408E+02  0.51100000000E-03 0. -1.
        -11    1    4    4    0    0 -0.75085577559E+01  0.82505509300E+01  0.10089321179E+02  0.15041423880E+02  0.51100000000E-03 0.  1.
        -12    1    4    4    0    0 -0.98772695637E+00  0.64700941111E+01 -0.12118136302E+02  0.13772688546E+02  0.00000000000E+00 0.  1.
</event>
<event>
 8    1  0.2558382E-006  0.9118800E+02  0.7816164E-02  0.1184000E+00
        -11   -1    0    0    0    0  0.00000000000E+00  0.00000000000E+00  0.45593999997E+02  0.45594000000E+02  0.51100000000E-03 0.  1.
         11   -1    0    0    0    0 -0.00000000000E+00 -0.00000000000E+00 -0.45593999997E+02  0.45594000000E+02  0.51100000000E-03 0. -1.
         23    2    1    2    0    0  0.00000000000E+00  0.00000000000E+00  0.00000000000E+00  0.91188000000E+02  0.91188000000E+02 0.  0.
    9900012    2    3    3    0    0  0.14909996314E+02  0.58853883075E+01 -0.33148664490E+02  0.54367085521E+02  0.40000003063E+02 0.  0.
        -12    1    3    3    0    0 -0.14909996314E+02 -0.58853883075E+01  0.33148664490E+02  0.36820914479E+02  0.00000000000E+00 0.  1.
         11    1    4    4    0    0  0.11376515917E+01  0.70127798153E+01  0.82230026454E+00  0.71518885526E+01  0.51100000000E-03 0. -1.
        -11    1    4    4    0    0 -0.27461148909E+01  0.88075674853E+01 -0.13490255383E+01  0.93238544694E+01  0.51100000000E-03 0.  1.
         12    1    4    4    0    0  0.16518459613E+02 -0.99349589932E+01 -0.32621939216E+02  0.37891342499E+02  0.00000000000E+00 0. -1.
</event>
<event>
 8    1  0.2558382E-006  0.9118800E+02  0.7816164E-02  0.1184000E+00
        -11   -1    0    0    0    0  0.00000000000E+00  0.00000000000E+00  0.45593999997E+02  0.45594000000E+02  0.51100000000E-03 0. -1.
         11   -1    0    0    0    0 -0.00000000000E+00 -0.00000000000E+00 -0.45593999997E+02  0.45594000000E+02  0.51100000000E-03 0.  1.
         23    2    1    2    0    0  0.38857805862E-15  0.71054273576E-14  0.00000000000E+00  0.91188000000E+02  0.91188000000E+02 0.  0.
    9900012    2    3    3    0    0  0.30790417891E+00 -0.34887750349E+02 -0.11769956621E+02  0.54367057477E+02  0.39999939131E+02 0.  0.
         12    1    3    3    0    0 -0.30790417891E+00  0.34887750349E+02  0.11769956621E+02  0.36820942523E+02  0.00000000000E+00 0. -1.
         11    1    4    4    0    0 -0.46946735136E+01 -0.86823310128E+01 -0.12820662475E+02  0.16179994369E+02  0.51100000000E-03 0. -1.
        -11    1    4    4    0    0  0.18125525303E+01 -0.85006712936E+01 -0.12807533016E+02  0.15478361067E+02  0.51100000000E-03 0.  1.
         12    1    4    4    0    0  0.31900251622E+01 -0.17704748043E+02  0.13858238870E+02  0.22708702041E+02  0.00000000000E+00 0. -1.
</event>
<event>
 8    1  0.2558382E-006  0.9118800E+02  0.7816164E-02  0.1184000E+00
        -11   -1    0    0    0    0  0.00000000000E+00  0.00000000000E+00  0.45593999997E+02  0.45594000000E+02  0.51100000000E-03 0.  1.
         11   -1    0    0    0    0 -0.00000000000E+00 -0.00000000000E+00 -0.45593999997E+02  0.45594000000E+02  0.51100000000E-03 0. -1.
         23    2    1    2    0    0  0.66613381478E-15 -0.17763568394E-14  0.71054273576E-14  0.91188000000E+02  0.91188000000E+02 0.  0.
    9900012    2    3    3    0    0  0.12355817104E+01  0.96263923406E+00 -0.36787585959E+02  0.54367084515E+02  0.40000000769E+02 0.  0.
        -12    1    3    3    0    0 -0.12355817104E+01 -0.96263923406E+00  0.36787585959E+02  0.36820915485E+02  0.00000000000E+00 0.  1.
         11    1    4    4    0    0  0.12865400284E+02  0.80857982710E+01 -0.15423589466E+02  0.21651461162E+02  0.51100000000E-03 0. -1.
        -11    1    4    4    0    0 -0.67061151137E+01  0.49202347288E+01 -0.76630422230E+00  0.83527188464E+01  0.51100000000E-03 0.  1.
         12    1    4    4    0    0 -0.49237034599E+01 -0.12043393766E+02 -0.20597692270E+02  0.24362904507E+02  0.00000000000E+00 0. -1.
</event>
<event>
 8    1  0.2558382E-006  0.9118800E+02  0.7816164E-02  0.1184000E+00
        -11   -1    0    0    0    0  0.00000000000E+00  0.00000000000E+00  0.45593999997E+02  0.45594000000E+02  0.51100000000E-03 0. -1.
         11   -1    0    0    0    0 -0.00000000000E+00 -0.00000000000E+00 -0.45593999997E+02  0.45594000000E+02  0.51100000000E-03 0.  1.
         23    2    1    2    0    0  0.00000000000E+00  0.35527136788E-14  0.00000000000E+00  0.91188000000E+02  0.91188000000E+02 0.  0.
    9900012    2    3    3    0    0 -0.26475550800E+02  0.10016245952E+02 -0.23547804886E+02  0.54367094415E+02  0.40000023338E+02 0.  0.
         12    1    3    3    0    0  0.26475550800E+02 -0.10016245952E+02  0.23547804886E+02  0.36820905585E+02  0.00000000000E+00 0. -1.
         11    1    4    4    0    0 -0.46384894252E+01  0.51353721338E+01 -0.59050464736E+01  0.90970987253E+01  0.51100000000E-03 0. -1.
        -11    1    4    4    0    0 -0.13561527579E+02  0.13669946865E+02 -0.24674979420E+02  0.31299154736E+02  0.51100000000E-03 0.  1.
        -12    1    4    4    0    0 -0.82755337962E+01 -0.87890730470E+01  0.70322210080E+01  0.13970840953E+02  0.00000000000E+00 0.  1.
</event>
<event>
 8    1  0.2558382E-006  0.9118800E+02  0.7816164E-02  0.1184000E+00
        -11   -1    0    0    0    0  0.00000000000E+00  0.00000000000E+00  0.45593999997E+02  0.45594000000E+02  0.51100000000E-03 0. -1.
         11   -1    0    0    0    0 -0.00000000000E+00 -0.00000000000E+00 -0.45593999997E+02  0.45594000000E+02  0.51100000000E-03 0.  1.
         23    2    1    2    0    0  0.00000000000E+00  0.00000000000E+00  0.00000000000E+00  0.91188000000E+02  0.91188000000E+02 0.  0.
    9900012    2    3    3    0    0 -0.12796318074E+02  0.58792219064E+01 -0.34021545437E+02  0.54367128739E+02  0.40000101586E+02 0.  0.
         12    1    3    3    0    0  0.12796318074E+02 -0.58792219064E+01  0.34021545437E+02  0.36820871261E+02  0.00000000000E+00 0. -1.
         11    1    4    4    0    0  0.77385200482E+01 -0.12937087496E+00  0.13067896782E+01  0.78491482903E+01  0.51100000000E-03 0. -1.
        -11    1    4    4    0    0 -0.14313958523E+02  0.57016449708E+00 -0.35470295574E+02  0.38253841173E+02  0.51100000000E-03 0.  1.
        -12    1    4    4    0    0 -0.62208795995E+01  0.54384282843E+01  0.14196045805E+00  0.82641392756E+01  0.00000000000E+00 0.  1.
</event>
<event>
 8    1  0.2558382E-006  0.9118800E+02  0.7816164E-02  0.1184000E+00
        -11   -1    0    0    0    0  0.00000000000E+00  0.00000000000E+00  0.45593999997E+02  0.45594000000E+02  0.51100000000E-03 0.  1.
         11   -1    0    0    0    0 -0.00000000000E+00 -0.00000000000E+00 -0.45593999997E+02  0.45594000000E+02  0.51100000000E-03 0. -1.
         23    2    1    2    0    0  0.00000000000E+00  0.44408920985E-15  0.00000000000E+00  0.91188000000E+02  0.91188000000E+02 0.  0.
    9900012    2    3    3    0    0  0.30050051432E+02  0.52555268303E+00 -0.21271761333E+02  0.54367222891E+02  0.40000316224E+02 0.  0.
        -12    1    3    3    0    0 -0.30050051432E+02 -0.52555268303E+00  0.21271761333E+02  0.36820777109E+02  0.00000000000E+00 0.  1.
         11    1    4    4    0    0  0.29848077433E+02 -0.46687102260E+01 -0.96570164924E+01  0.31716912671E+02  0.51100000000E-03 0. -1.
        -11    1    4    4    0    0  0.78202999320E+01  0.12773285815E+01  0.35405752023E+00  0.79318356211E+01  0.51100000000E-03 0.  1.
         12    1    4    4    0    0 -0.76183259332E+01  0.39169343275E+01 -0.11968802361E+02  0.14718474599E+02  0.00000000000E+00 0. -1.
</event>
<event>
 8    1  0.2558382E-006  0.9118800E+02  0.7816164E-02  0.1184000E+00
        -11   -1    0    0    0    0  0.00000000000E+00  0.00000000000E+00  0.45593999997E+02  0.45594000000E+02  0.51100000000E-03 0. -1.
         11   -1    0    0    0    0 -0.00000000000E+00 -0.00000000000E+00 -0.45593999997E+02  0.45594000000E+02  0.51100000000E-03 0.  1.
         23    2    1    2    0    0 -0.17763568394E-14  0.00000000000E+00 -0.35527136788E-14  0.91188000000E+02  0.91188000000E+02 0.  0.
    9900012    2    3    3    0    0  0.10731085546E+02  0.16666747572E+02  0.31029720467E+02  0.54367078992E+02  0.39999988177E+02 0.  0.
        -12    1    3    3    0    0 -0.10731085546E+02 -0.16666747572E+02 -0.31029720467E+02  0.36820921008E+02  0.00000000000E+00 0.  1.
         11    1    4    4    0    0 -0.13872941875E+01  0.16814171505E+02  0.13095019884E+02  0.21356977656E+02  0.51100000000E-03 0. -1.
        -11    1    4    4    0    0 -0.22768719249E+01  0.81769694359E+01  0.13247098325E+02  0.15733168442E+02  0.51100000000E-03 0.  1.
        -12    1    4    4    0    0  0.14395251659E+02 -0.83243933695E+01  0.46876022579E+01  0.17276932894E+02  0.00000000000E+00 0.  1.
</event>
<event>
 8    1  0.2558382E-006  0.9118800E+02  0.7816164E-02  0.1184000E+00
        -11   -1    0    0    0    0  0.00000000000E+00  0.00000000000E+00  0.45593999997E+02  0.45594000000E+02  0.51100000000E-03 0. -1.
         11   -1    0    0    0    0 -0.00000000000E+00 -0.00000000000E+00 -0.45593999997E+02  0.45594000000E+02  0.51100000000E-03 0.  1.
         23    2    1    2    0    0 -0.35527136788E-14  0.00000000000E+00  0.00000000000E+00  0.91188000000E+02  0.91188000000E+02 0.  0.
    9900012    2    3    3    0    0 -0.15044764842E+02  0.32558431680E+02  0.83296397675E+01  0.54367091248E+02  0.40000016119E+02 0.  0.
        -12    1    3    3    0    0  0.15044764842E+02 -0.32558431680E+02 -0.83296397675E+01  0.36820908752E+02  0.00000000000E+00 0.  1.
         11    1    4    4    0    0 -0.21326623288E+01  0.65728296224E+01  0.56177221055E+01  0.89055679083E+01  0.51100000000E-03 0. -1.
        -11    1    4    4    0    0  0.15167159812E+01 -0.81290014081E+01 -0.48392140429E+00  0.82834335542E+01  0.51100000000E-03 0.  1.
         12    1    4    4    0    0 -0.14428818494E+02  0.34114603466E+02  0.31958390663E+01  0.37178089786E+02  0.00000000000E+00 0. -1.
</event>
<event>
 8    1  0.2558382E-006  0.9118800E+02  0.7816164E-02  0.1184000E+00
        -11   -1    0    0    0    0  0.00000000000E+00  0.00000000000E+00  0.45593999997E+02  0.45594000000E+02  0.51100000000E-03 0.  1.
         11   -1    0    0    0    0 -0.00000000000E+00 -0.00000000000E+00 -0.45593999997E+02  0.45594000000E+02  0.51100000000E-03 0. -1.
         23    2    1    2    0    0  0.00000000000E+00  0.17763568394E-14  0.00000000000E+00  0.91188000000E+02  0.91188000000E+02 0.  0.
    9900012    2    3    3    0    0 -0.27984993952E+02  0.14075965584E+02 -0.19351651175E+02  0.54367094297E+02  0.40000023068E+02 0.  0.
        -12    1    3    3    0    0  0.27984993952E+02 -0.14075965584E+02  0.19351651175E+02  0.36820905703E+02  0.00000000000E+00 0.  1.
         11    1    4    4    0    0 -0.13255205645E+02  0.49347969472E+01  0.70320346826E-01  0.14144173458E+02  0.51100000000E-03 0.  1.
        -11    1    4    4    0    0 -0.70143573400E+00  0.23325499788E+01  0.81723006786E+01  0.85275612067E+01  0.51100000000E-03 0. -1.
         12    1    4    4    0    0 -0.14028352574E+02  0.68086186576E+01 -0.27594272200E+02  0.31695359632E+02  0.00000000000E+00 0. -1.
</event>
<event>
 8    1  0.2558382E-006  0.9118800E+02  0.7816164E-02  0.1184000E+00
        -11   -1    0    0    0    0  0.00000000000E+00  0.00000000000E+00  0.45593999997E+02  0.45594000000E+02  0.51100000000E-03 0.  1.
         11   -1    0    0    0    0 -0.00000000000E+00 -0.00000000000E+00 -0.45593999997E+02  0.45594000000E+02  0.51100000000E-03 0. -1.
         23    2    1    2    0    0  0.35527136788E-14  0.33306690739E-15 -0.35527136788E-14  0.91188000000E+02  0.91188000000E+02 0.  0.
    9900012    2    3    3    0    0  0.28112968736E+02  0.25261254935E+00 -0.23777676240E+02  0.54367072369E+02  0.39999973079E+02 0.  0.
        -12    1    3    3    0    0 -0.28112968736E+02 -0.25261254935E+00  0.23777676240E+02  0.36820927631E+02  0.00000000000E+00 0.  1.
         11    1    4    4    0    0  0.31243503171E+02  0.28693359944E+01 -0.80423711275E+01  0.32389339497E+02  0.51100000000E-03 0. -1.
        -11    1    4    4    0    0 -0.88672504528E+00 -0.25877797814E+01  0.24393028418E+01  0.36651172038E+01  0.51100000000E-03 0.  1.
        -12    1    4    4    0    0 -0.22438093893E+01 -0.28943663652E-01 -0.18174607954E+02  0.18312615668E+02  0.00000000000E+00 0.  1.
</event>
<event>
 8    1  0.2558382E-006  0.9118800E+02  0.7816164E-02  0.1184000E+00
        -11   -1    0    0    0    0  0.00000000000E+00  0.00000000000E+00  0.45593999997E+02  0.45594000000E+02  0.51100000000E-03 0.  1.
         11   -1    0    0    0    0 -0.00000000000E+00 -0.00000000000E+00 -0.45593999997E+02  0.45594000000E+02  0.51100000000E-03 0. -1.
         23    2    1    2    0    0  0.00000000000E+00 -0.17763568394E-14  0.00000000000E+00  0.91188000000E+02  0.91188000000E+02 0.  0.
    9900012    2    3    3    0    0  0.50070896746E+01 -0.13282025598E+02 -0.33974917459E+02  0.54367106918E+02  0.40000051842E+02 0.  0.
        -12    1    3    3    0    0 -0.50070896746E+01  0.13282025598E+02  0.33974917459E+02  0.36820893082E+02  0.00000000000E+00 0.  1.
         11    1    4    4    0    0 -0.44537660547E+00  0.32448146238E+01 -0.15368416684E+02  0.15713542373E+02  0.51100000000E-03 0. -1.
        -11    1    4    4    0    0 -0.92239205574E+00 -0.19758397185E+02 -0.22944075318E+02  0.30293161916E+02  0.51100000000E-03 0.  1.
        -12    1    4    4    0    0  0.63748583358E+01  0.32315569630E+01  0.43375745432E+01  0.83604026293E+01  0.00000000000E+00 0.  1.
</event>
<event>
 8    1  0.2558382E-006  0.9118800E+02  0.7816164E-02  0.1184000E+00
        -11   -1    0    0    0    0  0.00000000000E+00  0.00000000000E+00  0.45593999997E+02  0.45594000000E+02  0.51100000000E-03 0. -1.
         11   -1    0    0    0    0 -0.00000000000E+00 -0.00000000000E+00 -0.45593999997E+02  0.45594000000E+02  0.51100000000E-03 0.  1.
         23    2    1    2    0    0  0.00000000000E+00  0.00000000000E+00  0.71054273576E-14  0.91188000000E+02  0.91188000000E+02 0.  0.
    9900012    2    3    3    0    0 -0.22497021175E+01 -0.10621491596E+02 -0.35183834194E+02  0.54367089746E+02  0.40000012695E+02 0.  0.
         12    1    3    3    0    0  0.22497021175E+01  0.10621491596E+02  0.35183834194E+02  0.36820910254E+02  0.00000000000E+00 0. -1.
         11    1    4    4    0    0 -0.15372963873E+02 -0.88217087397E+01 -0.10503043592E+02  0.20602535967E+02  0.51100000000E-03 0. -1.
        -11    1    4    4    0    0 -0.40245308230E+01  0.86448615880E+00 -0.10750125485E+02  0.11511271992E+02  0.51100000000E-03 0.  1.
        -12    1    4    4    0    0  0.17147792579E+02 -0.26642690155E+01 -0.13930665117E+02  0.22253281787E+02  0.00000000000E+00 0.  1.
</event>
<event>
 8    1  0.2558382E-006  0.9118800E+02  0.7816164E-02  0.1184000E+00
        -11   -1    0    0    0    0  0.00000000000E+00  0.00000000000E+00  0.45593999997E+02  0.45594000000E+02  0.51100000000E-03 0. -1.
         11   -1    0    0    0    0 -0.00000000000E+00 -0.00000000000E+00 -0.45593999997E+02  0.45594000000E+02  0.51100000000E-03 0.  1.
         23    2    1    2    0    0  0.17763568394E-14  0.35527136788E-14  0.35527136788E-14  0.91188000000E+02  0.91188000000E+02 0.  0.
    9900012    2    3    3    0    0  0.10239084136E+02 -0.23467215893E+02  0.26461867369E+02  0.54367088953E+02  0.40000010887E+02 0.  0.
        -12    1    3    3    0    0 -0.10239084136E+02  0.23467215893E+02 -0.26461867369E+02  0.36820911047E+02  0.00000000000E+00 0.  1.
         11    1    4    4    0    0  0.27953749253E+01  0.69240498000E+01  0.42489071986E+01  0.85912629601E+01  0.51100000000E-03 0. -1.
        -11    1    4    4    0    0 -0.34272789061E+01 -0.21038826970E+02  0.25922812525E+01  0.21473201981E+02  0.51100000000E-03 0.  1.
         12    1    4    4    0    0  0.10870988116E+02 -0.93524387229E+01  0.19620678917E+02  0.24302624012E+02  0.00000000000E+00 0. -1.
</event>
<event>
 8    1  0.2558382E-006  0.9118800E+02  0.7816164E-02  0.1184000E+00
        -11   -1    0    0    0    0  0.00000000000E+00  0.00000000000E+00  0.45593999997E+02  0.45594000000E+02  0.51100000000E-03 0. -1.
         11   -1    0    0    0    0 -0.00000000000E+00 -0.00000000000E+00 -0.45593999997E+02  0.45594000000E+02  0.51100000000E-03 0.  1.
         23    2    1    2    0    0 -0.35527136788E-14 -0.35527136788E-14  0.00000000000E+00  0.91188000000E+02  0.91188000000E+02 0.  0.
    9900012    2    3    3    0    0  0.30001186768E+02  0.18626661408E+02 -0.10428332710E+02  0.54367165601E+02  0.40000185620E+02 0.  0.
        -12    1    3    3    0    0 -0.30001186768E+02 -0.18626661408E+02  0.10428332710E+02  0.36820834399E+02  0.00000000000E+00 0.  1.
         11    1    4    4    0    0  0.11465543669E+02  0.22011464324E+02  0.46585933624E+01  0.25252044387E+02  0.51100000000E-03 0. -1.
        -11    1    4    4    0    0  0.36334813144E+01  0.52751677346E+01 -0.85458918058E+01  0.10679974162E+02  0.51100000000E-03 0.  1.
        -12    1    4    4    0    0  0.14902161785E+02 -0.86599706508E+01 -0.65410342670E+01  0.18435147052E+02  0.00000000000E+00 0.  1.
</event>
<event>
 8    1  0.2558382E-006  0.9118800E+02  0.7816164E-02  0.1184000E+00
        -11   -1    0    0    0    0  0.00000000000E+00  0.00000000000E+00  0.45593999997E+02  0.45594000000E+02  0.51100000000E-03 0.  1.
         11   -1    0    0    0    0 -0.00000000000E+00 -0.00000000000E+00 -0.45593999997E+02  0.45594000000E+02  0.51100000000E-03 0. -1.
         23    2    1    2    0    0  0.00000000000E+00  0.35527136788E-14 -0.17763568394E-14  0.91188000000E+02  0.91188000000E+02 0.  0.
    9900012    2    3    3    0    0  0.19991822072E+02 -0.28492318369E+02 -0.12012265247E+02  0.54367086484E+02  0.40000005257E+02 0.  0.
        -12    1    3    3    0    0 -0.19991822072E+02  0.28492318369E+02  0.12012265247E+02  0.36820913516E+02  0.00000000000E+00 0.  1.
         11    1    4    4    0    0  0.99029260903E+01  0.54434783557E+01 -0.45779603272E+01  0.12192502728E+02  0.51100000000E-03 0. -1.
        -11    1    4    4    0    0 -0.57466930577E+01 -0.83470298459E+01 -0.65553399681E+01  0.12069377395E+02  0.51100000000E-03 0.  1.
         12    1    4    4    0    0  0.15835589040E+02 -0.25588766879E+02 -0.87896495203E+00  0.30105206360E+02  0.00000000000E+00 0. -1.
</event>
<event>
 8    1  0.2558382E-006  0.9118800E+02  0.7816164E-02  0.1184000E+00
        -11   -1    0    0    0    0  0.00000000000E+00  0.00000000000E+00  0.45593999997E+02  0.45594000000E+02  0.51100000000E-03 0.  1.
         11   -1    0    0    0    0 -0.00000000000E+00 -0.00000000000E+00 -0.45593999997E+02  0.45594000000E+02  0.51100000000E-03 0. -1.
         23    2    1    2    0    0  0.00000000000E+00 -0.17763568394E-14  0.00000000000E+00  0.91188000000E+02  0.91188000000E+02 0.  0.
    9900012    2    3    3    0    0 -0.84762635221E+01 -0.54348711691E+01  0.35417445853E+02  0.54367077433E+02  0.39999984623E+02 0.  0.
         12    1    3    3    0    0  0.84762635221E+01  0.54348711691E+01 -0.35417445853E+02  0.36820922567E+02  0.00000000000E+00 0. -1.
         11    1    4    4    0    0  0.52297203030E+00 -0.10997348582E+02  0.30986051312E+02  0.32883895021E+02  0.51100000000E-03 0.  1.
        -11    1    4    4    0    0 -0.13686360321E+02  0.79966875728E+00  0.53924718271E+01  0.14732096986E+02  0.51100000000E-03 0. -1.
        -12    1    4    4    0    0  0.46871247682E+01  0.47628086552E+01 -0.96107728537E+00  0.67510854259E+01  0.00000000000E+00 0.  1.
</event>
<event>
 8    1  0.2558382E-006  0.9118800E+02  0.7816164E-02  0.1184000E+00
        -11   -1    0    0    0    0  0.00000000000E+00  0.00000000000E+00  0.45593999997E+02  0.45594000000E+02  0.51100000000E-03 0.  1.
         11   -1    0    0    0    0 -0.00000000000E+00 -0.00000000000E+00 -0.45593999997E+02  0.45594000000E+02  0.51100000000E-03 0. -1.
         23    2    1    2    0    0  0.88817841970E-15 -0.35527136788E-14  0.00000000000E+00  0.91188000000E+02  0.91188000000E+02 0.  0.
    9900012    2    3    3    0    0  0.33942272737E+01 -0.27480454199E+02 -0.24271054037E+02  0.54367079237E+02  0.39999988736E+02 0.  0.
        -12    1    3    3    0    0 -0.33942272737E+01  0.27480454199E+02  0.24271054037E+02  0.36820920763E+02  0.00000000000E+00 0.  1.
         11    1    4    4    0    0  0.45837806140E+01 -0.11348742898E+01 -0.63032353431E+00  0.47640625930E+01  0.51100000000E-03 0. -1.
        -11    1    4    4    0    0  0.49058150309E+01 -0.15140109309E+01  0.76382197625E+01  0.92033500215E+01  0.51100000000E-03 0.  1.
         12    1    4    4    0    0 -0.60953683712E+01 -0.24831568978E+02 -0.31278950265E+02  0.40399666622E+02  0.00000000000E+00 0. -1.
</event>
<event>
 8    1  0.2558382E-006  0.9118800E+02  0.7816164E-02  0.1184000E+00
        -11   -1    0    0    0    0  0.00000000000E+00  0.00000000000E+00  0.45593999997E+02  0.45594000000E+02  0.51100000000E-03 0.  1.
         11   -1    0    0    0    0 -0.00000000000E+00 -0.00000000000E+00 -0.45593999997E+02  0.45594000000E+02  0.51100000000E-03 0. -1.
         23    2    1    2    0    0  0.00000000000E+00  0.00000000000E+00  0.00000000000E+00  0.91188000000E+02  0.91188000000E+02 0.  0.
    9900012    2    3    3    0    0 -0.32536614739E+02 -0.42032379787E+01  0.16717681772E+02  0.54367090288E+02  0.40000013929E+02 0.  0.
        -12    1    3    3    0    0  0.32536614739E+02  0.42032379787E+01 -0.16717681772E+02  0.36820909712E+02  0.00000000000E+00 0.  1.
         11    1    4    4    0    0 -0.23705189397E+02  0.10168266367E+02  0.96749954596E+00  0.25812123138E+02  0.51100000000E-03 0. -1.
        -11    1    4    4    0    0  0.13511272785E+01 -0.10616995870E+02  0.17560215215E+01  0.10845725337E+02  0.51100000000E-03 0.  1.
         12    1    4    4    0    0 -0.10182552621E+02 -0.37545084752E+01  0.13994160705E+02  0.17709241813E+02  0.00000000000E+00 0. -1.
</event>
<event>
 8    1  0.2558382E-006  0.9118800E+02  0.7816164E-02  0.1184000E+00
        -11   -1    0    0    0    0  0.00000000000E+00  0.00000000000E+00  0.45593999997E+02  0.45594000000E+02  0.51100000000E-03 0. -1.
         11   -1    0    0    0    0 -0.00000000000E+00 -0.00000000000E+00 -0.45593999997E+02  0.45594000000E+02  0.51100000000E-03 0.  1.
         23    2    1    2    0    0  0.00000000000E+00 -0.66613381478E-15 -0.71054273576E-14  0.91188000000E+02  0.91188000000E+02 0.  0.
    9900012    2    3    3    0    0  0.96709297388E+01  0.19312898816E+01 -0.35475679488E+02  0.54367073915E+02  0.39999976604E+02 0.  0.
         12    1    3    3    0    0 -0.96709297388E+01 -0.19312898816E+01  0.35475679488E+02  0.36820926085E+02  0.00000000000E+00 0. -1.
         11    1    4    4    0    0  0.10537786330E+01 -0.21351044231E+01 -0.79871672422E+01  0.83345042517E+01  0.51100000000E-03 0. -1.
        -11    1    4    4    0    0  0.82421823564E+00  0.15441919255E+02 -0.28268436538E+02  0.32221680752E+02  0.51100000000E-03 0.  1.
         12    1    4    4    0    0  0.77929328702E+01 -0.11375524950E+02  0.77992429193E+00  0.13810888911E+02  0.00000000000E+00 0. -1.
</event>
<event>
 8    1  0.2558382E-006  0.9118800E+02  0.7816164E-02  0.1184000E+00
        -11   -1    0    0    0    0  0.00000000000E+00  0.00000000000E+00  0.45593999997E+02  0.45594000000E+02  0.51100000000E-03 0. -1.
         11   -1    0    0    0    0 -0.00000000000E+00 -0.00000000000E+00 -0.45593999997E+02  0.45594000000E+02  0.51100000000E-03 0.  1.
         23    2    1    2    0    0  0.00000000000E+00 -0.17763568394E-14 -0.71054273576E-14  0.91188000000E+02  0.91188000000E+02 0.  0.
    9900012    2    3    3    0    0 -0.18138327488E+02 -0.91926628986E+01 -0.30696513725E+02  0.54367082981E+02  0.39999997273E+02 0.  0.
         12    1    3    3    0    0  0.18138327488E+02  0.91926628986E+01  0.30696513725E+02  0.36820917019E+02  0.00000000000E+00 0. -1.
         11    1    4    4    0    0  0.62535869433E+01 -0.12031672383E+02  0.47524920694E-01  0.13559894869E+02  0.51100000000E-03 0. -1.
        -11    1    4    4    0    0  0.21439556216E+00 -0.14214908734E+01 -0.38365395035E+01  0.40970278719E+01  0.51100000000E-03 0.  1.
         12    1    4    4    0    0 -0.24606309994E+02  0.42605003575E+01 -0.26907499142E+02  0.36710160240E+02  0.00000000000E+00 0. -1.
</event>
<event>
 8    1  0.2558382E-006  0.9118800E+02  0.7816164E-02  0.1184000E+00
        -11   -1    0    0    0    0  0.00000000000E+00  0.00000000000E+00  0.45593999997E+02  0.45594000000E+02  0.51100000000E-03 0. -1.
         11   -1    0    0    0    0 -0.00000000000E+00 -0.00000000000E+00 -0.45593999997E+02  0.45594000000E+02  0.51100000000E-03 0.  1.
         23    2    1    2    0    0  0.17763568394E-14  0.71054273576E-14 -0.35527136788E-14  0.91188000000E+02  0.91188000000E+02 0.  0.
    9900012    2    3    3    0    0  0.61990901577E+01  0.27428494294E+02 -0.23770332241E+02  0.54367085931E+02  0.40000003997E+02 0.  0.
         12    1    3    3    0    0 -0.61990901577E+01 -0.27428494294E+02  0.23770332241E+02  0.36820914069E+02  0.00000000000E+00 0. -1.
         11    1    4    4    0    0 -0.61818439550E+01  0.67140618384E+01  0.58256814457E+01  0.10827390527E+02  0.51100000000E-03 0. -1.
        -11    1    4    4    0    0  0.51764357359E+01  0.22703971521E+02 -0.26935827169E+02  0.35606243769E+02  0.51100000000E-03 0.  1.
         12    1    4    4    0    0  0.72044983768E+01 -0.19895390651E+01 -0.26601865172E+01  0.79334516359E+01  0.00000000000E+00 0. -1.
</event>
<event>
 8    1  0.2558382E-006  0.9118800E+02  0.7816164E-02  0.1184000E+00
        -11   -1    0    0    0    0  0.00000000000E+00  0.00000000000E+00  0.45593999997E+02  0.45594000000E+02  0.51100000000E-03 0.  1.
         11   -1    0    0    0    0 -0.00000000000E+00 -0.00000000000E+00 -0.45593999997E+02  0.45594000000E+02  0.51100000000E-03 0. -1.
         23    2    1    2    0    0  0.00000000000E+00  0.00000000000E+00  0.00000000000E+00  0.91188000000E+02  0.91188000000E+02 0.  0.
    9900012    2    3    3    0    0 -0.17043530304E+02 -0.21002269073E+02  0.24984051928E+02  0.54367080916E+02  0.39999992565E+02 0.  0.
         12    1    3    3    0    0  0.17043530304E+02  0.21002269073E+02 -0.24984051928E+02  0.36820919084E+02  0.00000000000E+00 0. -1.
         11    1    4    4    0    0  0.40142500141E+01 -0.19588969885E+02  0.16452157811E+02  0.25894312913E+02  0.51100000000E-03 0. -1.
        -11    1    4    4    0    0 -0.11630346259E+02 -0.51681165022E+01  0.12250791841E+02  0.17665114867E+02  0.51100000000E-03 0.  1.
         12    1    4    4    0    0 -0.94274340593E+01  0.37548173146E+01 -0.37188977246E+01  0.10807653135E+02  0.00000000000E+00 0. -1.
</event>
<event>
 8    1  0.2558382E-006  0.9118800E+02  0.7816164E-02  0.1184000E+00
        -11   -1    0    0    0    0  0.00000000000E+00  0.00000000000E+00  0.45593999997E+02  0.45594000000E+02  0.51100000000E-03 0. -1.
         11   -1    0    0    0    0 -0.00000000000E+00 -0.00000000000E+00 -0.45593999997E+02  0.45594000000E+02  0.51100000000E-03 0.  1.
         23    2    1    2    0    0  0.22204460493E-15  0.00000000000E+00  0.88817841970E-15  0.91188000000E+02  0.91188000000E+02 0.  0.
    9900012    2    3    3    0    0  0.55591730220E+00 -0.36310329952E+02 -0.60851093417E+01  0.54367113794E+02  0.40000067517E+02 0.  0.
        -12    1    3    3    0    0 -0.55591730220E+00  0.36310329952E+02  0.60851093417E+01  0.36820886206E+02  0.00000000000E+00 0.  1.
         11    1    4    4    0    0  0.10688730276E+02 -0.68277501619E+01  0.15561466308E+01  0.12778447472E+02  0.51100000000E-03 0. -1.
        -11    1    4    4    0    0 -0.67461944333E+01 -0.30475219355E+02 -0.14083457766E+02  0.34243158689E+02  0.51100000000E-03 0.  1.
        -12    1    4    4    0    0 -0.33866185410E+01  0.99263956468E+00  0.64422017936E+01  0.73455076337E+01  0.00000000000E+00 0.  1.
</event>
<event>
 8    1  0.2558382E-006  0.9118800E+02  0.7816164E-02  0.1184000E+00
        -11   -1    0    0    0    0  0.00000000000E+00  0.00000000000E+00  0.45593999997E+02  0.45594000000E+02  0.51100000000E-03 0.  1.
         11   -1    0    0    0    0 -0.00000000000E+00 -0.00000000000E+00 -0.45593999997E+02  0.45594000000E+02  0.51100000000E-03 0. -1.
         23    2    1    2    0    0  0.00000000000E+00  0.00000000000E+00  0.00000000000E+00  0.91188000000E+02  0.91188000000E+02 0.  0.
    9900012    2    3    3    0    0  0.12049600592E+02 -0.84540532042E+01  0.33750809695E+02  0.54367067841E+02  0.39999962758E+02 0.  0.
         12    1    3    3    0    0 -0.12049600592E+02  0.84540532042E+01 -0.33750809695E+02  0.36820932159E+02  0.00000000000E+00 0. -1.
         11    1    4    4    0    0  0.86370851855E+01  0.80806857913E+01  0.25803997593E+02  0.28385612824E+02  0.51100000000E-03 0.  1.
        -11    1    4    4    0    0  0.92772584622E+01 -0.30972563847E+01  0.12406462150E+01  0.98589920874E+01  0.51100000000E-03 0. -1.
         12    1    4    4    0    0 -0.58647430561E+01 -0.13437482611E+02  0.67061658870E+01  0.16122462930E+02  0.00000000000E+00 0. -1.
</event>
<event>
 8    1  0.2558382E-006  0.9118800E+02  0.7816164E-02  0.1184000E+00
        -11   -1    0    0    0    0  0.00000000000E+00  0.00000000000E+00  0.45593999997E+02  0.45594000000E+02  0.51100000000E-03 0. -1.
         11   -1    0    0    0    0 -0.00000000000E+00 -0.00000000000E+00 -0.45593999997E+02  0.45594000000E+02  0.51100000000E-03 0.  1.
         23    2    1    2    0    0 -0.44408920985E-15  0.35527136788E-14  0.00000000000E+00  0.91188000000E+02  0.91188000000E+02 0.  0.
    9900012    2    3    3    0    0 -0.31023350175E+01 -0.20121338053E+02  0.30680407190E+02  0.54367080498E+02  0.39999991612E+02 0.  0.
        -12    1    3    3    0    0  0.31023350175E+01  0.20121338053E+02 -0.30680407190E+02  0.36820919502E+02  0.00000000000E+00 0.  1.
         11    1    4    4    0    0  0.95025493962E+01 -0.63061898686E+01 -0.37120974575E+01  0.11993587598E+02  0.51100000000E-03 0. -1.
        -11    1    4    4    0    0  0.33334634854E+01 -0.15707602452E+01  0.18465846608E+01  0.41217886563E+01  0.51100000000E-03 0.  1.
        -12    1    4    4    0    0 -0.15938347899E+02 -0.12244387939E+02  0.32545919987E+02  0.38251704244E+02  0.00000000000E+00 0.  1.
</event>
<event>
 8    1  0.2558382E-006  0.9118800E+02  0.7816164E-02  0.1184000E+00
        -11   -1    0    0    0    0  0.00000000000E+00  0.00000000000E+00  0.45593999997E+02  0.45594000000E+02  0.51100000000E-03 0.  1.
         11   -1    0    0    0    0 -0.00000000000E+00 -0.00000000000E+00 -0.45593999997E+02  0.45594000000E+02  0.51100000000E-03 0. -1.
         23    2    1    2    0    0  0.00000000000E+00  0.00000000000E+00  0.00000000000E+00  0.91188000000E+02  0.91188000000E+02 0.  0.
    9900012    2    3    3    0    0 -0.65857581203E+01  0.32747450742E+02  0.15492323511E+02  0.54367084369E+02  0.40000000437E+02 0.  0.
         12    1    3    3    0    0  0.65857581203E+01 -0.32747450742E+02 -0.15492323511E+02  0.36820915631E+02  0.00000000000E+00 0. -1.
         11    1    4    4    0    0 -0.20076765513E+02  0.10533216522E+02  0.10060293875E+02  0.24803924627E+02  0.51100000000E-03 0. -1.
        -11    1    4    4    0    0  0.12254842317E+02  0.23933208861E+02  0.45548613114E+01  0.27271347756E+02  0.51100000000E-03 0.  1.
         12    1    4    4    0    0  0.12361650761E+01 -0.17189746413E+01  0.87716832427E+00  0.22918119866E+01  0.00000000000E+00 0. -1.
</event>
<event>
 8    1  0.2558382E-006  0.9118800E+02  0.7816164E-02  0.1184000E+00
        -11   -1    0    0    0    0  0.00000000000E+00  0.00000000000E+00  0.45593999997E+02  0.45594000000E+02  0.51100000000E-03 0.  1.
         11   -1    0    0    0    0 -0.00000000000E+00 -0.00000000000E+00 -0.45593999997E+02  0.45594000000E+02  0.51100000000E-03 0. -1.
         23    2    1    2    0    0  0.00000000000E+00 -0.35527136788E-14  0.00000000000E+00  0.91188000000E+02  0.91188000000E+02 0.  0.
    9900012    2    3    3    0    0  0.23713918618E+02  0.25478438448E+02 -0.12011600153E+02  0.54367091535E+02  0.40000016773E+02 0.  0.
        -12    1    3    3    0    0 -0.23713918618E+02 -0.25478438448E+02  0.12011600153E+02  0.36820908465E+02  0.00000000000E+00 0.  1.
         11    1    4    4    0    0  0.21713072143E+02  0.25666034197E+02 -0.18634064075E+02  0.38437366682E+02  0.51100000000E-03 0. -1.
        -11    1    4    4    0    0  0.19879835806E+01 -0.37940137176E+01 -0.32774604297E+01  0.53933631377E+01  0.51100000000E-03 0.  1.
         12    1    4    4    0    0  0.12862893471E-01  0.36064179688E+01  0.98999243519E+01  0.10536361715E+02  0.00000000000E+00 0. -1.
</event>
<event>
 8    1  0.2558382E-006  0.9118800E+02  0.7816164E-02  0.1184000E+00
        -11   -1    0    0    0    0  0.00000000000E+00  0.00000000000E+00  0.45593999997E+02  0.45594000000E+02  0.51100000000E-03 0.  1.
         11   -1    0    0    0    0 -0.00000000000E+00 -0.00000000000E+00 -0.45593999997E+02  0.45594000000E+02  0.51100000000E-03 0. -1.
         23    2    1    2    0    0 -0.22204460493E-15  0.71054273576E-14 -0.26645352591E-14  0.91188000000E+02  0.91188000000E+02 0.  0.
    9900012    2    3    3    0    0  0.18831324351E+01 -0.36425863687E+02  0.50388074391E+01  0.54367091354E+02  0.40000016360E+02 0.  0.
         12    1    3    3    0    0 -0.18831324351E+01  0.36425863687E+02 -0.50388074391E+01  0.36820908646E+02  0.00000000000E+00 0. -1.
         11    1    4    4    0    0  0.41283202258E+01 -0.23720662269E+01 -0.45763554306E+01  0.66039954089E+01  0.51100000000E-03 0. -1.
        -11    1    4    4    0    0  0.13502292922E+01 -0.20447530522E+02 -0.10647071362E+02  0.23092958936E+02  0.51100000000E-03 0.  1.
        -12    1    4    4    0    0 -0.35954170830E+01 -0.13606266938E+02  0.20262234232E+02  0.24670137009E+02  0.00000000000E+00 0.  1.
</event>
<event>
 8    1  0.2558382E-006  0.9118800E+02  0.7816164E-02  0.1184000E+00
        -11   -1    0    0    0    0  0.00000000000E+00  0.00000000000E+00  0.45593999997E+02  0.45594000000E+02  0.51100000000E-03 0. -1.
         11   -1    0    0    0    0 -0.00000000000E+00 -0.00000000000E+00 -0.45593999997E+02  0.45594000000E+02  0.51100000000E-03 0.  1.
         23    2    1    2    0    0  0.00000000000E+00  0.88817841970E-15  0.00000000000E+00  0.91188000000E+02  0.91188000000E+02 0.  0.
    9900012    2    3    3    0    0 -0.18782188874E+02  0.75450107369E+01  0.30758462547E+02  0.54367070840E+02  0.39999969594E+02 0.  0.
        -12    1    3    3    0    0  0.18782188874E+02 -0.75450107369E+01 -0.30758462547E+02  0.36820929160E+02  0.00000000000E+00 0.  1.
         11    1    4    4    0    0 -0.19629249282E+02  0.14227344041E+02  0.36857001920E+02  0.44115341285E+02  0.51100000000E-03 0. -1.
        -11    1    4    4    0    0 -0.12983995332E+01 -0.40630867154E+01 -0.14589622496E+01  0.45081133650E+01  0.51100000000E-03 0.  1.
         12    1    4    4    0    0  0.21454599411E+01 -0.26192465892E+01 -0.46395771234E+01  0.57436161900E+01  0.00000000000E+00 0. -1.
</event>
<event>
 8    1  0.2558382E-006  0.9118800E+02  0.7816164E-02  0.1184000E+00
        -11   -1    0    0    0    0  0.00000000000E+00  0.00000000000E+00  0.45593999997E+02  0.45594000000E+02  0.51100000000E-03 0. -1.
         11   -1    0    0    0    0 -0.00000000000E+00 -0.00000000000E+00 -0.45593999997E+02  0.45594000000E+02  0.51100000000E-03 0.  1.
         23    2    1    2    0    0  0.11102230246E-14 -0.17763568394E-14  0.00000000000E+00  0.91188000000E+02  0.91188000000E+02 0.  0.
    9900012    2    3    3    0    0 -0.14268849837E+01 -0.11936360273E+02 -0.34803289912E+02  0.54367059137E+02  0.39999942914E+02 0.  0.
         12    1    3    3    0    0  0.14268849837E+01  0.11936360273E+02  0.34803289912E+02  0.36820940863E+02  0.00000000000E+00 0. -1.
         11    1    4    4    0    0 -0.84291545244E+01  0.10529524528E+01 -0.13674319057E+02  0.16098023382E+02  0.51100000000E-03 0. -1.
        -11    1    4    4    0    0 -0.86569692843E+00  0.62483253118E+01  0.25127973693E+01  0.67900774115E+01  0.51100000000E-03 0.  1.
        -12    1    4    4    0    0  0.78679664692E+01 -0.19237638037E+02 -0.23641768224E+02  0.31478958343E+02  0.00000000000E+00 0.  1.
</event>
<event>
 8    1  0.2558382E-006  0.9118800E+02  0.7816164E-02  0.1184000E+00
        -11   -1    0    0    0    0  0.00000000000E+00  0.00000000000E+00  0.45593999997E+02  0.45594000000E+02  0.51100000000E-03 0. -1.
         11   -1    0    0    0    0 -0.00000000000E+00 -0.00000000000E+00 -0.45593999997E+02  0.45594000000E+02  0.51100000000E-03 0.  1.
         23    2    1    2    0    0  0.00000000000E+00  0.00000000000E+00  0.00000000000E+00  0.91188000000E+02  0.91188000000E+02 0.  0.
    9900012    2    3    3    0    0  0.24652718046E+02 -0.13784642784E+02  0.23622148019E+02  0.54367098860E+02  0.40000033472E+02 0.  0.
        -12    1    3    3    0    0 -0.24652718046E+02  0.13784642784E+02 -0.23622148019E+02  0.36820901140E+02  0.00000000000E+00 0.  1.
         11    1    4    4    0    0  0.86618715121E+01 -0.24150867199E+01 -0.13388860424E+01  0.90913848259E+01  0.51100000000E-03 0. -1.
        -11    1    4    4    0    0  0.18285141808E+02 -0.66655905859E+01  0.31421948835E+02  0.36960998060E+02  0.51100000000E-03 0.  1.
        -12    1    4    4    0    0 -0.22942952738E+01 -0.47039654781E+01 -0.64609147733E+01  0.83147159742E+01  0.00000000000E+00 0.  1.
</event>
<event>
 8    1  0.2558382E-006  0.9118800E+02  0.7816164E-02  0.1184000E+00
        -11   -1    0    0    0    0  0.00000000000E+00  0.00000000000E+00  0.45593999997E+02  0.45594000000E+02  0.51100000000E-03 0. -1.
         11   -1    0    0    0    0 -0.00000000000E+00 -0.00000000000E+00 -0.45593999997E+02  0.45594000000E+02  0.51100000000E-03 0.  1.
         23    2    1    2    0    0  0.00000000000E+00 -0.17763568394E-14 -0.35527136788E-14  0.91188000000E+02  0.91188000000E+02 0.  0.
    9900012    2    3    3    0    0 -0.19409893587E+02  0.12808140685E+02  0.28547986826E+02  0.54367082186E+02  0.39999995459E+02 0.  0.
        -12    1    3    3    0    0  0.19409893587E+02 -0.12808140685E+02 -0.28547986826E+02  0.36820917814E+02  0.00000000000E+00 0.  1.
         11    1    4    4    0    0 -0.18512967699E+02  0.18696327295E+02  0.32366126147E+02  0.41711494211E+02  0.51100000000E-03 0. -1.
        -11    1    4    4    0    0  0.46423355207E+01 -0.20005359036E+01 -0.28956104645E+01  0.58256315719E+01  0.51100000000E-03 0.  1.
         12    1    4    4    0    0 -0.55392614090E+01 -0.38876507063E+01 -0.92252885613E+00  0.68299564026E+01  0.00000000000E+00 0. -1.
</event>
<event>
 8    1  0.2558382E-006  0.9118800E+02  0.7816164E-02  0.1184000E+00
        -11   -1    0    0    0    0  0.00000000000E+00  0.00000000000E+00  0.45593999997E+02  0.45594000000E+02  0.51100000000E-03 0. -1.
         11   -1    0    0    0    0 -0.00000000000E+00 -0.00000000000E+00 -0.45593999997E+02  0.45594000000E+02  0.51100000000E-03 0.  1.
         23    2    1    2    0    0  0.00000000000E+00  0.17763568394E-14  0.00000000000E+00  0.91188000000E+02  0.91188000000E+02 0.  0.
    9900012    2    3    3    0    0 -0.89189259792E+01 -0.11436302526E+02 -0.33844402679E+02  0.54367084085E+02  0.39999999789E+02 0.  0.
         12    1    3    3    0    0  0.89189259792E+01  0.11436302526E+02  0.33844402679E+02  0.36820915915E+02  0.00000000000E+00 0. -1.
         11    1    4    4    0    0  0.91803550256E+01 -0.11431664355E+02 -0.23371822220E+02  0.27589924655E+02  0.51100000000E-03 0. -1.
        -11    1    4    4    0    0 -0.15264451047E+02 -0.37461881594E+01 -0.46610677398E+00  0.15724332968E+02  0.51100000000E-03 0.  1.
        -12    1    4    4    0    0 -0.28348299578E+01  0.37415499880E+01 -0.10006473685E+02  0.11052826463E+02  0.00000000000E+00 0.  1.
</event>
<event>
 8    1  0.2558382E-006  0.9118800E+02  0.7816164E-02  0.1184000E+00
        -11   -1    0    0    0    0  0.00000000000E+00  0.00000000000E+00  0.45593999997E+02  0.45594000000E+02  0.51100000000E-03 0.  1.
         11   -1    0    0    0    0 -0.00000000000E+00 -0.00000000000E+00 -0.45593999997E+02  0.45594000000E+02  0.51100000000E-03 0. -1.
         23    2    1    2    0    0  0.00000000000E+00 -0.35527136788E-14  0.35527136788E-14  0.91188000000E+02  0.91188000000E+02 0.  0.
    9900012    2    3    3    0    0  0.16866785381E+02  0.25170458870E+02 -0.20922217226E+02  0.54367087159E+02  0.40000006796E+02 0.  0.
        -12    1    3    3    0    0 -0.16866785381E+02 -0.25170458870E+02  0.20922217226E+02  0.36820912841E+02  0.00000000000E+00 0.  1.
         11    1    4    4    0    0  0.12595253023E+02  0.46795495251E+01 -0.18751050823E+02  0.23068170489E+02  0.51100000000E-03 0. -1.
        -11    1    4    4    0    0  0.10539021224E+02  0.41361328527E+01  0.49956401983E+01  0.12374772102E+02  0.51100000000E-03 0.  1.
         12    1    4    4    0    0 -0.62674888653E+01  0.16354776492E+02 -0.71668066012E+01  0.18924144568E+02  0.00000000000E+00 0. -1.
</event>
<event>
 8    1  0.2558382E-006  0.9118800E+02  0.7816164E-02  0.1184000E+00
        -11   -1    0    0    0    0  0.00000000000E+00  0.00000000000E+00  0.45593999997E+02  0.45594000000E+02  0.51100000000E-03 0.  1.
         11   -1    0    0    0    0 -0.00000000000E+00 -0.00000000000E+00 -0.45593999997E+02  0.45594000000E+02  0.51100000000E-03 0. -1.
         23    2    1    2    0    0 -0.17763568394E-14 -0.35527136788E-14  0.00000000000E+00  0.91188000000E+02  0.91188000000E+02 0.  0.
    9900012    2    3    3    0    0  0.12222456015E+02  0.31871554115E+02  0.13805654292E+02  0.54367075471E+02  0.39999980152E+02 0.  0.
         12    1    3    3    0    0 -0.12222456015E+02 -0.31871554115E+02 -0.13805654292E+02  0.36820924529E+02  0.00000000000E+00 0. -1.
         11    1    4    4    0    0  0.10923532766E+00  0.75608763343E+01  0.21920167702E+02  0.23187766940E+02  0.51100000000E-03 0. -1.
        -11    1    4    4    0    0 -0.27659393232E+01  0.35683865692E+01 -0.50971525041E+00  0.45435242867E+01  0.51100000000E-03 0.  1.
        -12    1    4    4    0    0  0.14879160010E+02  0.20742291211E+02 -0.76047981597E+01  0.26635784245E+02  0.00000000000E+00 0.  1.
</event>
<event>
 8    1  0.2558382E-006  0.9118800E+02  0.7816164E-02  0.1184000E+00
        -11   -1    0    0    0    0  0.00000000000E+00  0.00000000000E+00  0.45593999997E+02  0.45594000000E+02  0.51100000000E-03 0.  1.
         11   -1    0    0    0    0 -0.00000000000E+00 -0.00000000000E+00 -0.45593999997E+02  0.45594000000E+02  0.51100000000E-03 0. -1.
         23    2    1    2    0    0 -0.88817841970E-15  0.00000000000E+00  0.17763568394E-14  0.91188000000E+02  0.91188000000E+02 0.  0.
    9900012    2    3    3    0    0 -0.70780748122E+01 -0.32408936112E+02  0.15979415974E+02  0.54367081789E+02  0.39999994556E+02 0.  0.
         12    1    3    3    0    0  0.70780748122E+01  0.32408936112E+02 -0.15979415974E+02  0.36820918211E+02  0.00000000000E+00 0. -1.
         11    1    4    4    0    0  0.87171363720E+01 -0.31061153818E+02  0.78477064700E+01  0.33201961390E+02  0.51100000000E-03 0. -1.
        -11    1    4    4    0    0 -0.90942347183E+01  0.37209601720E+01  0.81451726974E+01  0.12763012507E+02  0.51100000000E-03 0.  1.
         12    1    4    4    0    0 -0.67009764659E+01 -0.50687424660E+01 -0.13463192857E-01  0.84021078927E+01  0.00000000000E+00 0. -1.
</event>
<event>
 8    1  0.2558382E-006  0.9118800E+02  0.7816164E-02  0.1184000E+00
        -11   -1    0    0    0    0  0.00000000000E+00  0.00000000000E+00  0.45593999997E+02  0.45594000000E+02  0.51100000000E-03 0. -1.
         11   -1    0    0    0    0 -0.00000000000E+00 -0.00000000000E+00 -0.45593999997E+02  0.45594000000E+02  0.51100000000E-03 0.  1.
         23    2    1    2    0    0 -0.17763568394E-14  0.00000000000E+00 -0.11102230246E-14  0.91188000000E+02  0.91188000000E+02 0.  0.
    9900012    2    3    3    0    0  0.15688965232E+02  0.33275309729E+02 -0.15456358692E+01  0.54367097541E+02  0.40000030465E+02 0.  0.
        -12    1    3    3    0    0 -0.15688965232E+02 -0.33275309729E+02  0.15456358692E+01  0.36820902459E+02  0.00000000000E+00 0.  1.
         11    1    4    4    0    0  0.13600516779E+02  0.21147730356E+02  0.25271421098E+01  0.25270279052E+02  0.51100000000E-03 0. -1.
        -11    1    4    4    0    0 -0.63240925363E+00  0.19487065904E+02 -0.70092978191E+01  0.20718975245E+02  0.51100000000E-03 0.  1.
         12    1    4    4    0    0  0.27208577067E+01 -0.73594865308E+01  0.29365198402E+01  0.83778432444E+01  0.00000000000E+00 0. -1.
</event>
<event>
 8    1  0.2558382E-006  0.9118800E+02  0.7816164E-02  0.1184000E+00
        -11   -1    0    0    0    0  0.00000000000E+00  0.00000000000E+00  0.45593999997E+02  0.45594000000E+02  0.51100000000E-03 0. -1.
         11   -1    0    0    0    0 -0.00000000000E+00 -0.00000000000E+00 -0.45593999997E+02  0.45594000000E+02  0.51100000000E-03 0.  1.
         23    2    1    2    0    0  0.00000000000E+00 -0.35527136788E-14  0.00000000000E+00  0.91188000000E+02  0.91188000000E+02 0.  0.
    9900012    2    3    3    0    0 -0.28231666846E+02  0.16936113182E+02 -0.16490436654E+02  0.54366899477E+02  0.39999578937E+02 0.  0.
         12    1    3    3    0    0  0.28231666846E+02 -0.16936113182E+02  0.16490436654E+02  0.36821100523E+02  0.00000000000E+00 0. -1.
         11    1    4    4    0    0 -0.22292710011E+02  0.22972768834E+02 -0.75105085639E+01  0.32880400951E+02  0.51100000000E-03 0. -1.
        -11    1    4    4    0    0 -0.29855841400E+01  0.60794497211E+01 -0.14756157466E+01  0.69318730269E+01  0.51100000000E-03 0.  1.
         12    1    4    4    0    0 -0.29533726958E+01 -0.12116105373E+02 -0.75043123438E+01  0.14554625500E+02  0.00000000000E+00 0. -1.
</event>
<event>
 8    1  0.2558382E-006  0.9118800E+02  0.7816164E-02  0.1184000E+00
        -11   -1    0    0    0    0  0.00000000000E+00  0.00000000000E+00  0.45593999997E+02  0.45594000000E+02  0.51100000000E-03 0. -1.
         11   -1    0    0    0    0 -0.00000000000E+00 -0.00000000000E+00 -0.45593999997E+02  0.45594000000E+02  0.51100000000E-03 0.  1.
         23    2    1    2    0    0 -0.44408920985E-15  0.00000000000E+00 -0.14210854715E-13  0.91188000000E+02  0.91188000000E+02 0.  0.
    9900012    2    3    3    0    0 -0.32317930245E+01  0.65770667841E+01 -0.36084288634E+02  0.54367106749E+02  0.40000051455E+02 0.  0.
         12    1    3    3    0    0  0.32317930245E+01 -0.65770667841E+01  0.36084288634E+02  0.36820893251E+02  0.00000000000E+00 0. -1.
         11    1    4    4    0    0 -0.33622201045E+01  0.13592188517E+00 -0.10001060227E+01  0.35104431497E+01  0.51100000000E-03 0. -1.
        -11    1    4    4    0    0 -0.11692845488E+02 -0.67098038808E+01 -0.23975361904E+01  0.13692782178E+02  0.51100000000E-03 0.  1.
         12    1    4    4    0    0  0.11823272568E+02  0.13150948780E+02 -0.32686646420E+02  0.37163881421E+02  0.00000000000E+00 0. -1.
</event>
<event>
 8    1  0.2558382E-006  0.9118800E+02  0.7816164E-02  0.1184000E+00
        -11   -1    0    0    0    0  0.00000000000E+00  0.00000000000E+00  0.45593999997E+02  0.45594000000E+02  0.51100000000E-03 0.  1.
         11   -1    0    0    0    0 -0.00000000000E+00 -0.00000000000E+00 -0.45593999997E+02  0.45594000000E+02  0.51100000000E-03 0. -1.
         23    2    1    2    0    0  0.17763568394E-14 -0.71054273576E-14  0.00000000000E+00  0.91188000000E+02  0.91188000000E+02 0.  0.
    9900012    2    3    3    0    0 -0.89331647876E+01  0.28220175618E+02 -0.21899590026E+02  0.54367193541E+02  0.40000249314E+02 0.  0.
        -12    1    3    3    0    0  0.89331647876E+01 -0.28220175618E+02  0.21899590026E+02  0.36820806459E+02  0.00000000000E+00 0.  1.
         11    1    4    4    0    0 -0.29561723296E+01  0.34737550549E+02 -0.72993421374E+01  0.35619050646E+02  0.51100000000E-03 0.  1.
        -11    1    4    4    0    0 -0.35108516172E+01 -0.56428650722E+01 -0.14696968427E+02  0.16129751594E+02  0.51100000000E-03 0. -1.
        -12    1    4    4    0    0 -0.24661408409E+01 -0.87450985929E+00  0.96720537632E-01  0.26183913007E+01  0.00000000000E+00 0.  1.
</event>
<event>
 8    1  0.2558382E-006  0.9118800E+02  0.7816164E-02  0.1184000E+00
        -11   -1    0    0    0    0  0.00000000000E+00  0.00000000000E+00  0.45593999997E+02  0.45594000000E+02  0.51100000000E-03 0. -1.
         11   -1    0    0    0    0 -0.00000000000E+00 -0.00000000000E+00 -0.45593999997E+02  0.45594000000E+02  0.51100000000E-03 0.  1.
         23    2    1    2    0    0  0.00000000000E+00  0.56898930012E-15  0.00000000000E+00  0.91188000000E+02  0.91188000000E+02 0.  0.
    9900012    2    3    3    0    0  0.26841339541E+02  0.70510106168E-01 -0.25205492395E+02  0.54367091172E+02  0.40000015945E+02 0.  0.
         12    1    3    3    0    0 -0.26841339541E+02 -0.70510106168E-01  0.25205492395E+02  0.36820908828E+02  0.00000000000E+00 0. -1.
         11    1    4    4    0    0 -0.45879021089E+00  0.10219035924E+02 -0.94804835911E+01  0.13946997995E+02  0.51100000000E-03 0. -1.
        -11    1    4    4    0    0  0.16282928208E+02  0.58314005188E+01 -0.10816306236E+02  0.20399300574E+02  0.51100000000E-03 0.  1.
        -12    1    4    4    0    0  0.11017201544E+02 -0.15979926337E+02 -0.49087025679E+01  0.20020792604E+02  0.00000000000E+00 0.  1.
</event>
<event>
 8    1  0.2558382E-006  0.9118800E+02  0.7816164E-02  0.1184000E+00
        -11   -1    0    0    0    0  0.00000000000E+00  0.00000000000E+00  0.45593999997E+02  0.45594000000E+02  0.51100000000E-03 0. -1.
         11   -1    0    0    0    0 -0.00000000000E+00 -0.00000000000E+00 -0.45593999997E+02  0.45594000000E+02  0.51100000000E-03 0.  1.
         23    2    1    2    0    0  0.35527136788E-14  0.00000000000E+00  0.00000000000E+00  0.91188000000E+02  0.91188000000E+02 0.  0.
    9900012    2    3    3    0    0  0.30327911298E+02  0.12896668765E+02 -0.16421760189E+02  0.54367075560E+02  0.39999980353E+02 0.  0.
         12    1    3    3    0    0 -0.30327911298E+02 -0.12896668765E+02  0.16421760189E+02  0.36820924440E+02  0.00000000000E+00 0. -1.
         11    1    4    4    0    0  0.26697295670E-01  0.69831387916E+01 -0.77289748973E+01  0.10416429012E+02  0.51100000000E-03 0. -1.
        -11    1    4    4    0    0  0.33354168120E+02  0.95788566502E+01 -0.13446262692E+02  0.37216354017E+02  0.51100000000E-03 0.  1.
        -12    1    4    4    0    0 -0.30529541173E+01 -0.36653266769E+01  0.47534774007E+01  0.67342925307E+01  0.00000000000E+00 0.  1.
</event>
<event>
 8    1  0.2558382E-006  0.9118800E+02  0.7816164E-02  0.1184000E+00
        -11   -1    0    0    0    0  0.00000000000E+00  0.00000000000E+00  0.45593999997E+02  0.45594000000E+02  0.51100000000E-03 0. -1.
         11   -1    0    0    0    0 -0.00000000000E+00 -0.00000000000E+00 -0.45593999997E+02  0.45594000000E+02  0.51100000000E-03 0.  1.
         23    2    1    2    0    0 -0.35527136788E-14  0.00000000000E+00 -0.71054273576E-14  0.91188000000E+02  0.91188000000E+02 0.  0.
    9900012    2    3    3    0    0  0.27102792082E+02 -0.95263806096E+01  0.23031856048E+02  0.54367086660E+02  0.40000005659E+02 0.  0.
        -12    1    3    3    0    0 -0.27102792082E+02  0.95263806096E+01 -0.23031856048E+02  0.36820913340E+02  0.00000000000E+00 0.  1.
         11    1    4    4    0    0  0.29578051978E+01 -0.47191121195E+01  0.18972828973E+01  0.58837329509E+01  0.51100000000E-03 0. -1.
        -11    1    4    4    0    0 -0.61635400681E+01 -0.76601061528E+01 -0.22619942545E+01  0.10088759622E+02  0.51100000000E-03 0.  1.
        -12    1    4    4    0    0  0.30308526952E+02  0.28528376626E+01  0.23396567406E+02  0.38394594087E+02  0.00000000000E+00 0.  1.
</event>
<event>
 8    1  0.2558382E-006  0.9118800E+02  0.7816164E-02  0.1184000E+00
        -11   -1    0    0    0    0  0.00000000000E+00  0.00000000000E+00  0.45593999997E+02  0.45594000000E+02  0.51100000000E-03 0.  1.
         11   -1    0    0    0    0 -0.00000000000E+00 -0.00000000000E+00 -0.45593999997E+02  0.45594000000E+02  0.51100000000E-03 0. -1.
         23    2    1    2    0    0 -0.35527136788E-14  0.35527136788E-14 -0.35527136788E-14  0.91188000000E+02  0.91188000000E+02 0.  0.
    9900012    2    3    3    0    0  0.21688523254E+02 -0.26567259453E+02  0.13400341233E+02  0.54367075773E+02  0.39999980839E+02 0.  0.
         12    1    3    3    0    0 -0.21688523254E+02  0.26567259453E+02 -0.13400341233E+02  0.36820924227E+02  0.00000000000E+00 0. -1.
         11    1    4    4    0    0 -0.44639729184E+01 -0.20584364851E+02 -0.39229820592E-01  0.21062874205E+02  0.51100000000E-03 0. -1.
        -11    1    4    4    0    0  0.81508899509E+01 -0.31906212531E+01 -0.24948414534E+01  0.91017198986E+01  0.51100000000E-03 0.  1.
         12    1    4    4    0    0  0.18001606221E+02 -0.27922733492E+01  0.15934412507E+02  0.24202481669E+02  0.00000000000E+00 0. -1.
</event>
<event>
 8    1  0.2558382E-006  0.9118800E+02  0.7816164E-02  0.1184000E+00
        -11   -1    0    0    0    0  0.00000000000E+00  0.00000000000E+00  0.45593999997E+02  0.45594000000E+02  0.51100000000E-03 0.  1.
         11   -1    0    0    0    0 -0.00000000000E+00 -0.00000000000E+00 -0.45593999997E+02  0.45594000000E+02  0.51100000000E-03 0. -1.
         23    2    1    2    0    0  0.17763568394E-14  0.00000000000E+00  0.00000000000E+00  0.91188000000E+02  0.91188000000E+02 0.  0.
    9900012    2    3    3    0    0 -0.10502264538E+02  0.33291531582E+02  0.11711385157E+02  0.54367079618E+02  0.39999989604E+02 0.  0.
        -12    1    3    3    0    0  0.10502264538E+02 -0.33291531582E+02 -0.11711385157E+02  0.36820920382E+02  0.00000000000E+00 0.  1.
         11    1    4    4    0    0 -0.21856990354E+02  0.21697445748E+02  0.35495383779E+01  0.31001716118E+02  0.51100000000E-03 0. -1.
        -11    1    4    4    0    0  0.13672760702E+02  0.11863043482E+02  0.97326126459E+01  0.20552370546E+02  0.51100000000E-03 0.  1.
        -12    1    4    4    0    0 -0.23180348856E+01 -0.26895764826E+00 -0.15707658670E+01  0.28129929535E+01  0.00000000000E+00 0.  1.
</event>
<event>
 8    1  0.2558382E-006  0.9118800E+02  0.7816164E-02  0.1184000E+00
        -11   -1    0    0    0    0  0.00000000000E+00  0.00000000000E+00  0.45593999997E+02  0.45594000000E+02  0.51100000000E-03 0. -1.
         11   -1    0    0    0    0 -0.00000000000E+00 -0.00000000000E+00 -0.45593999997E+02  0.45594000000E+02  0.51100000000E-03 0.  1.
         23    2    1    2    0    0  0.88817841970E-15 -0.88817841970E-15  0.00000000000E+00  0.91188000000E+02  0.91188000000E+02 0.  0.
    9900012    2    3    3    0    0  0.76192925501E+01 -0.21530887829E+01  0.35959568196E+02  0.54367082641E+02  0.39999996498E+02 0.  0.
        -12    1    3    3    0    0 -0.76192925501E+01  0.21530887829E+01 -0.35959568196E+02  0.36820917359E+02  0.00000000000E+00 0.  1.
         11    1    4    4    0    0  0.11092805391E+02  0.48202498396E+01  0.22054834850E+02  0.25153546082E+02  0.51100000000E-03 0. -1.
        -11    1    4    4    0    0  0.65584195031E+01  0.48102629188E+01  0.10648131477E+02  0.13399037277E+02  0.51100000000E-03 0.  1.
        -12    1    4    4    0    0 -0.10031932344E+02 -0.11783601541E+02  0.32566018688E+01  0.15814499283E+02  0.00000000000E+00 0.  1.
</event>
<event>
 8    1  0.2558382E-006  0.9118800E+02  0.7816164E-02  0.1184000E+00
        -11   -1    0    0    0    0  0.00000000000E+00  0.00000000000E+00  0.45593999997E+02  0.45594000000E+02  0.51100000000E-03 0.  1.
         11   -1    0    0    0    0 -0.00000000000E+00 -0.00000000000E+00 -0.45593999997E+02  0.45594000000E+02  0.51100000000E-03 0. -1.
         23    2    1    2    0    0  0.17763568394E-14  0.88817841970E-15 -0.71054273576E-14  0.91188000000E+02  0.91188000000E+02 0.  0.
    9900012    2    3    3    0    0  0.13438704043E+02  0.65529035672E+01 -0.33648786166E+02  0.54367080376E+02  0.39999991332E+02 0.  0.
        -12    1    3    3    0    0 -0.13438704043E+02 -0.65529035672E+01  0.33648786166E+02  0.36820919624E+02  0.00000000000E+00 0.  1.
         11    1    4    4    0    0  0.72929004872E+01 -0.51562929461E+00 -0.14914307612E+02  0.16609901953E+02  0.51100000000E-03 0. -1.
        -11    1    4    4    0    0  0.84674675659E+01 -0.10426664243E+02 -0.22723025463E+01  0.13622653682E+02  0.51100000000E-03 0.  1.
         12    1    4    4    0    0 -0.23216640100E+01  0.17495197105E+02 -0.16462176008E+02  0.24134524741E+02  0.00000000000E+00 0. -1.
</event>
<event>
 8    1  0.2558382E-006  0.9118800E+02  0.7816164E-02  0.1184000E+00
        -11   -1    0    0    0    0  0.00000000000E+00  0.00000000000E+00  0.45593999997E+02  0.45594000000E+02  0.51100000000E-03 0. -1.
         11   -1    0    0    0    0 -0.00000000000E+00 -0.00000000000E+00 -0.45593999997E+02  0.45594000000E+02  0.51100000000E-03 0.  1.
         23    2    1    2    0    0  0.00000000000E+00  0.00000000000E+00  0.00000000000E+00  0.91188000000E+02  0.91188000000E+02 0.  0.
    9900012    2    3    3    0    0  0.28237613020E+02  0.58825696172E+01 -0.22886970611E+02  0.54367070651E+02  0.39999969164E+02 0.  0.
         12    1    3    3    0    0 -0.28237613020E+02 -0.58825696172E+01  0.22886970611E+02  0.36820929349E+02  0.00000000000E+00 0. -1.
         11    1    4    4    0    0  0.36803916245E+01  0.94573521818E+01 -0.94091051377E+01  0.13839004753E+02  0.51100000000E-03 0. -1.
        -11    1    4    4    0    0  0.27652819194E+02  0.19245715215E+01 -0.17742297077E+02  0.32911570773E+02  0.51100000000E-03 0.  1.
         12    1    4    4    0    0 -0.30955977986E+01 -0.54993540862E+01  0.42644316039E+01  0.76164951257E+01  0.00000000000E+00 0. -1.
</event>
<event>
 8    1  0.2558382E-006  0.9118800E+02  0.7816164E-02  0.1184000E+00
        -11   -1    0    0    0    0  0.00000000000E+00  0.00000000000E+00  0.45593999997E+02  0.45594000000E+02  0.51100000000E-03 0.  1.
         11   -1    0    0    0    0 -0.00000000000E+00 -0.00000000000E+00 -0.45593999997E+02  0.45594000000E+02  0.51100000000E-03 0. -1.
         23    2    1    2    0    0 -0.35527136788E-14  0.00000000000E+00  0.00000000000E+00  0.91188000000E+02  0.91188000000E+02 0.  0.
    9900012    2    3    3    0    0 -0.31706597470E+02  0.17224043298E+02  0.73351247280E+01  0.54367081415E+02  0.39999993702E+02 0.  0.
         12    1    3    3    0    0  0.31706597470E+02 -0.17224043298E+02 -0.73351247280E+01  0.36820918585E+02  0.00000000000E+00 0. -1.
         11    1    4    4    0    0 -0.52201625406E+00 -0.40737585694E+01  0.21254482418E+01  0.46244502745E+01  0.51100000000E-03 0. -1.
        -11    1    4    4    0    0 -0.34767627357E+02  0.87168402890E+01  0.70563886668E+01  0.36531682660E+02  0.51100000000E-03 0.  1.
         12    1    4    4    0    0  0.35830461412E+01  0.12580961578E+02 -0.18467121806E+01  0.13210948481E+02  0.00000000000E+00 0. -1.
</event>
<event>
 8    1  0.2558382E-006  0.9118800E+02  0.7816164E-02  0.1184000E+00
        -11   -1    0    0    0    0  0.00000000000E+00  0.00000000000E+00  0.45593999997E+02  0.45594000000E+02  0.51100000000E-03 0.  1.
         11   -1    0    0    0    0 -0.00000000000E+00 -0.00000000000E+00 -0.45593999997E+02  0.45594000000E+02  0.51100000000E-03 0. -1.
         23    2    1    2    0    0  0.00000000000E+00 -0.17763568394E-14  0.00000000000E+00  0.91188000000E+02  0.91188000000E+02 0.  0.
    9900012    2    3    3    0    0  0.35033865005E+02 -0.59200969446E+01 -0.96623234367E+01  0.54367085573E+02  0.40000003181E+02 0.  0.
        -12    1    3    3    0    0 -0.35033865005E+02  0.59200969446E+01  0.96623234367E+01  0.36820914427E+02  0.00000000000E+00 0.  1.
         11    1    4    4    0    0  0.15539607291E+02 -0.17854682928E+02 -0.48327671984E+01  0.24158326437E+02  0.51100000000E-03 0. -1.
        -11    1    4    4    0    0 -0.20108667985E+01 -0.15073738474E+01  0.27640750204E+01  0.37357559043E+01  0.51100000000E-03 0.  1.
         12    1    4    4    0    0  0.21505124513E+02  0.13441959831E+02 -0.75936312587E+01  0.26473003232E+02  0.00000000000E+00 0. -1.
</event>
<event>
 8    1  0.2558382E-006  0.9118800E+02  0.7816164E-02  0.1184000E+00
        -11   -1    0    0    0    0  0.00000000000E+00  0.00000000000E+00  0.45593999997E+02  0.45594000000E+02  0.51100000000E-03 0.  1.
         11   -1    0    0    0    0 -0.00000000000E+00 -0.00000000000E+00 -0.45593999997E+02  0.45594000000E+02  0.51100000000E-03 0. -1.
         23    2    1    2    0    0  0.00000000000E+00  0.00000000000E+00 -0.44408920985E-15  0.91188000000E+02  0.91188000000E+02 0.  0.
    9900012    2    3    3    0    0  0.32017371683E+02 -0.18092994263E+02 -0.18156059309E+01  0.54367286321E+02  0.40000460824E+02 0.  0.
         12    1    3    3    0    0 -0.32017371683E+02  0.18092994263E+02  0.18156059309E+01  0.36820713679E+02  0.00000000000E+00 0. -1.
         11    1    4    4    0    0  0.84370049514E+01  0.45144512239E+01 -0.27307365881E+01  0.99508916675E+01  0.51100000000E-03 0. -1.
        -11    1    4    4    0    0 -0.35114590371E+01  0.36200399536E+01  0.42041646054E+01  0.65658231872E+01  0.51100000000E-03 0.  1.
        -12    1    4    4    0    0  0.27091825769E+02 -0.26227485441E+02 -0.32890339482E+01  0.37850571467E+02  0.00000000000E+00 0.  1.
</event>
<event>
 8    1  0.2558382E-006  0.9118800E+02  0.7816164E-02  0.1184000E+00
        -11   -1    0    0    0    0  0.00000000000E+00  0.00000000000E+00  0.45593999997E+02  0.45594000000E+02  0.51100000000E-03 0.  1.
         11   -1    0    0    0    0 -0.00000000000E+00 -0.00000000000E+00 -0.45593999997E+02  0.45594000000E+02  0.51100000000E-03 0. -1.
         23    2    1    2    0    0  0.00000000000E+00  0.00000000000E+00 -0.44408920985E-15  0.91188000000E+02  0.91188000000E+02 0.  0.
    9900012    2    3    3    0    0  0.17370985375E+02  0.32294721052E+02  0.33285705614E+01  0.54367088513E+02  0.40000009883E+02 0.  0.
        -12    1    3    3    0    0 -0.17370985375E+02 -0.32294721052E+02 -0.33285705614E+01  0.36820911487E+02  0.00000000000E+00 0.  1.
         11    1    4    4    0    0  0.19902571338E+02  0.14126652296E+02  0.69844567043E+01  0.25386163292E+02  0.51100000000E-03 0. -1.
        -11    1    4    4    0    0 -0.10453024001E+02  0.17029923583E+02 -0.55869679169E+01  0.20748450997E+02  0.51100000000E-03 0.  1.
         12    1    4    4    0    0  0.79214380382E+01  0.11381451728E+01  0.19310817740E+01  0.82324742238E+01  0.00000000000E+00 0. -1.
</event>
<event>
 8    1  0.2558382E-006  0.9118800E+02  0.7816164E-02  0.1184000E+00
        -11   -1    0    0    0    0  0.00000000000E+00  0.00000000000E+00  0.45593999997E+02  0.45594000000E+02  0.51100000000E-03 0.  1.
         11   -1    0    0    0    0 -0.00000000000E+00 -0.00000000000E+00 -0.45593999997E+02  0.45594000000E+02  0.51100000000E-03 0. -1.
         23    2    1    2    0    0  0.88817841970E-15 -0.71054273576E-14 -0.71054273576E-14  0.91188000000E+02  0.91188000000E+02 0.  0.
    9900012    2    3    3    0    0  0.46994322908E+01 -0.17054335240E+02 -0.32293108241E+02  0.54367084012E+02  0.39999999623E+02 0.  0.
        -12    1    3    3    0    0 -0.46994322908E+01  0.17054335240E+02  0.32293108241E+02  0.36820915988E+02  0.00000000000E+00 0.  1.
         11    1    4    4    0    0  0.37783005265E+01 -0.24901263772E+02 -0.34162299183E+02  0.42443034505E+02  0.51100000000E-03 0. -1.
        -11    1    4    4    0    0  0.24835657118E+01  0.14777946254E+01 -0.26810528708E+01  0.39420832509E+01  0.51100000000E-03 0.  1.
        -12    1    4    4    0    0 -0.15624339475E+01  0.63691339065E+01  0.45502438128E+01  0.79819662562E+01  0.00000000000E+00 0.  1.
</event>
<event>
 8    1  0.2558382E-006  0.9118800E+02  0.7816164E-02  0.1184000E+00
        -11   -1    0    0    0    0  0.00000000000E+00  0.00000000000E+00  0.45593999997E+02  0.45594000000E+02  0.51100000000E-03 0.  1.
         11   -1    0    0    0    0 -0.00000000000E+00 -0.00000000000E+00 -0.45593999997E+02  0.45594000000E+02  0.51100000000E-03 0. -1.
         23    2    1    2    0    0 -0.44408920985E-15  0.35527136788E-14 -0.71054273576E-14  0.91188000000E+02  0.91188000000E+02 0.  0.
    9900012    2    3    3    0    0 -0.38761268435E+01 -0.24467335003E+02  0.27241491839E+02  0.54367167322E+02  0.40000189545E+02 0.  0.
         12    1    3    3    0    0  0.38761268435E+01  0.24467335003E+02 -0.27241491839E+02  0.36820832678E+02  0.00000000000E+00 0. -1.
         11    1    4    4    0    0  0.38150480122E+01 -0.15180876102E+01 -0.85535793596E+01  0.94880399161E+01  0.51100000000E-03 0. -1.
        -11    1    4    4    0    0 -0.47652757739E+00 -0.14952565074E+02  0.27420828788E+02  0.31236327129E+02  0.51100000000E-03 0.  1.
         12    1    4    4    0    0 -0.72146472783E+01 -0.79966823184E+01  0.83742424103E+01  0.13642800277E+02  0.00000000000E+00 0. -1.
</event>
<event>
 8    1  0.2558382E-006  0.9118800E+02  0.7816164E-02  0.1184000E+00
        -11   -1    0    0    0    0  0.00000000000E+00  0.00000000000E+00  0.45593999997E+02  0.45594000000E+02  0.51100000000E-03 0.  1.
         11   -1    0    0    0    0 -0.00000000000E+00 -0.00000000000E+00 -0.45593999997E+02  0.45594000000E+02  0.51100000000E-03 0. -1.
         23    2    1    2    0    0  0.00000000000E+00  0.00000000000E+00  0.00000000000E+00  0.91188000000E+02  0.91188000000E+02 0.  0.
    9900012    2    3    3    0    0 -0.24412553004E+02 -0.18413146357E+02  0.20512493375E+02  0.54367094425E+02  0.40000023360E+02 0.  0.
         12    1    3    3    0    0  0.24412553004E+02  0.18413146357E+02 -0.20512493375E+02  0.36820905575E+02  0.00000000000E+00 0. -1.
         11    1    4    4    0    0 -0.14898954819E+02 -0.10358327719E+02 -0.31578847089E+01  0.18418633063E+02  0.51100000000E-03 0. -1.
        -11    1    4    4    0    0 -0.10633903999E+02  0.64702425648E+01  0.11879821039E+02  0.17206803925E+02  0.51100000000E-03 0.  1.
        -12    1    4    4    0    0  0.11203058144E+01 -0.14525061203E+02  0.11790557044E+02  0.18741657437E+02  0.00000000000E+00 0.  1.
</event>
<event>
 8    1  0.2558382E-006  0.9118800E+02  0.7816164E-02  0.1184000E+00
        -11   -1    0    0    0    0  0.00000000000E+00  0.00000000000E+00  0.45593999997E+02  0.45594000000E+02  0.51100000000E-03 0. -1.
         11   -1    0    0    0    0 -0.00000000000E+00 -0.00000000000E+00 -0.45593999997E+02  0.45594000000E+02  0.51100000000E-03 0.  1.
         23    2    1    2    0    0 -0.35527136788E-14  0.00000000000E+00  0.88817841970E-15  0.91188000000E+02  0.91188000000E+02 0.  0.
    9900012    2    3    3    0    0 -0.13905144857E+02  0.33270278515E+02 -0.74508601103E+01  0.54367084716E+02  0.40000001227E+02 0.  0.
        -12    1    3    3    0    0  0.13905144857E+02 -0.33270278515E+02  0.74508601103E+01  0.36820915284E+02  0.00000000000E+00 0.  1.
         11    1    4    4    0    0 -0.10469011184E+01 -0.70692904141E+01 -0.28638072506E+01  0.76988480399E+01  0.51100000000E-03 0. -1.
        -11    1    4    4    0    0  0.38774807067E+01  0.47066913148E+01 -0.40066223737E+01  0.72966309260E+01  0.51100000000E-03 0.  1.
         12    1    4    4    0    0 -0.16735724445E+02  0.35632877614E+02 -0.58043048602E+00  0.39371605750E+02  0.00000000000E+00 0. -1.
</event>
<event>
 8    1  0.2558382E-006  0.9118800E+02  0.7816164E-02  0.1184000E+00
        -11   -1    0    0    0    0  0.00000000000E+00  0.00000000000E+00  0.45593999997E+02  0.45594000000E+02  0.51100000000E-03 0. -1.
         11   -1    0    0    0    0 -0.00000000000E+00 -0.00000000000E+00 -0.45593999997E+02  0.45594000000E+02  0.51100000000E-03 0.  1.
         23    2    1    2    0    0  0.00000000000E+00  0.00000000000E+00 -0.35527136788E-14  0.91188000000E+02  0.91188000000E+02 0.  0.
    9900012    2    3    3    0    0  0.24506194466E+02 -0.33681601914E+01 -0.27274302371E+02  0.54367005444E+02  0.39999820510E+02 0.  0.
         12    1    3    3    0    0 -0.24506194466E+02  0.33681601914E+01  0.27274302371E+02  0.36820994556E+02  0.00000000000E+00 0. -1.
         11    1    4    4    0    0  0.14237867936E+02 -0.47376414156E+01  0.22106886875E+01  0.15167375326E+02  0.51100000000E-03 0. -1.
        -11    1    4    4    0    0  0.15487585416E+01 -0.96555177081E+01 -0.19939966785E+02  0.22208780941E+02  0.51100000000E-03 0.  1.
         12    1    4    4    0    0  0.87195679882E+01  0.11024998932E+02 -0.95450242736E+01  0.16990849177E+02  0.00000000000E+00 0. -1.
</event>
<event>
 8    1  0.2558382E-006  0.9118800E+02  0.7816164E-02  0.1184000E+00
        -11   -1    0    0    0    0  0.00000000000E+00  0.00000000000E+00  0.45593999997E+02  0.45594000000E+02  0.51100000000E-03 0. -1.
         11   -1    0    0    0    0 -0.00000000000E+00 -0.00000000000E+00 -0.45593999997E+02  0.45594000000E+02  0.51100000000E-03 0.  1.
         23    2    1    2    0    0  0.00000000000E+00  0.17763568394E-14  0.00000000000E+00  0.91188000000E+02  0.91188000000E+02 0.  0.
    9900012    2    3    3    0    0  0.33644622115E+02  0.73780008179E+01 -0.13014683381E+02  0.54367116294E+02  0.40000073216E+02 0.  0.
         12    1    3    3    0    0 -0.33644622115E+02 -0.73780008179E+01  0.13014683381E+02  0.36820883706E+02  0.00000000000E+00 0. -1.
         11    1    4    4    0    0  0.17424904444E+02  0.10987648146E+01  0.45434461192E+01  0.18040994482E+02  0.51100000000E-03 0.  1.
        -11    1    4    4    0    0  0.25457282929E+01 -0.82625591030E+01  0.14452660994E+01  0.87658091373E+01  0.51100000000E-03 0. -1.
        -12    1    4    4    0    0  0.13673989378E+02  0.14541795106E+02 -0.19003395600E+02  0.27560312675E+02  0.00000000000E+00 0.  1.
</event>
<event>
 8    1  0.2558382E-006  0.9118800E+02  0.7816164E-02  0.1184000E+00
        -11   -1    0    0    0    0  0.00000000000E+00  0.00000000000E+00  0.45593999997E+02  0.45594000000E+02  0.51100000000E-03 0.  1.
         11   -1    0    0    0    0 -0.00000000000E+00 -0.00000000000E+00 -0.45593999997E+02  0.45594000000E+02  0.51100000000E-03 0. -1.
         23    2    1    2    0    0  0.00000000000E+00 -0.35527136788E-14  0.00000000000E+00  0.91188000000E+02  0.91188000000E+02 0.  0.
    9900012    2    3    3    0    0 -0.15206174941E+02  0.30574259967E+02  0.13775870963E+02  0.54366976798E+02  0.39999755206E+02 0.  0.
         12    1    3    3    0    0  0.15206174941E+02 -0.30574259967E+02 -0.13775870963E+02  0.36821023202E+02  0.00000000000E+00 0. -1.
         11    1    4    4    0    0 -0.21526858254E+01  0.23982436719E+02 -0.45484299045E+01  0.24504684085E+02  0.51100000000E-03 0. -1.
        -11    1    4    4    0    0 -0.15322742339E+02  0.37162711440E+01  0.57782536036E+01  0.16792418497E+02  0.51100000000E-03 0.  1.
         12    1    4    4    0    0  0.22692532233E+01  0.28755521034E+01  0.12546047264E+02  0.13069874216E+02  0.00000000000E+00 0. -1.
</event>
<event>
 8    1  0.2558382E-006  0.9118800E+02  0.7816164E-02  0.1184000E+00
        -11   -1    0    0    0    0  0.00000000000E+00  0.00000000000E+00  0.45593999997E+02  0.45594000000E+02  0.51100000000E-03 0.  1.
         11   -1    0    0    0    0 -0.00000000000E+00 -0.00000000000E+00 -0.45593999997E+02  0.45594000000E+02  0.51100000000E-03 0. -1.
         23    2    1    2    0    0  0.00000000000E+00  0.00000000000E+00  0.00000000000E+00  0.91188000000E+02  0.91188000000E+02 0.  0.
    9900012    2    3    3    0    0  0.29873850462E+02 -0.15674761013E+02 -0.14752448320E+02  0.54367084671E+02  0.40000001125E+02 0.  0.
        -12    1    3    3    0    0 -0.29873850462E+02  0.15674761013E+02  0.14752448320E+02  0.36820915329E+02  0.00000000000E+00 0.  1.
         11    1    4    4    0    0  0.35417167948E+01  0.56588669280E+01 -0.99382291835E+01  0.11972256777E+02  0.51100000000E-03 0. -1.
        -11    1    4    4    0    0  0.11171640644E+02 -0.14113525079E+02 -0.14407356316E+02  0.23055781512E+02  0.51100000000E-03 0.  1.
         12    1    4    4    0    0  0.15160493022E+02 -0.72201028623E+01  0.95931371804E+01  0.19339046383E+02  0.00000000000E+00 0. -1.
</event>
<event>
 8    1  0.2558382E-006  0.9118800E+02  0.7816164E-02  0.1184000E+00
        -11   -1    0    0    0    0  0.00000000000E+00  0.00000000000E+00  0.45593999997E+02  0.45594000000E+02  0.51100000000E-03 0. -1.
         11   -1    0    0    0    0 -0.00000000000E+00 -0.00000000000E+00 -0.45593999997E+02  0.45594000000E+02  0.51100000000E-03 0.  1.
         23    2    1    2    0    0  0.88817841970E-15  0.00000000000E+00  0.00000000000E+00  0.91188000000E+02  0.91188000000E+02 0.  0.
    9900012    2    3    3    0    0  0.60844788920E+01  0.32416971883E+02  0.16367637980E+02  0.54367074937E+02  0.39999978933E+02 0.  0.
        -12    1    3    3    0    0 -0.60844788920E+01 -0.32416971883E+02 -0.16367637980E+02  0.36820925063E+02  0.00000000000E+00 0.  1.
         11    1    4    4    0    0  0.61797739133E+01  0.24470316547E+02 -0.15441700610E+01  0.25285775823E+02  0.51100000000E-03 0. -1.
        -11    1    4    4    0    0 -0.94231004271E+01  0.83466766982E+00  0.26338173913E+01  0.98198007154E+01  0.51100000000E-03 0.  1.
         12    1    4    4    0    0  0.93278054057E+01  0.71119876662E+01  0.15277990649E+02  0.19261498398E+02  0.00000000000E+00 0. -1.
</event>
<event>
 8    1  0.2558382E-006  0.9118800E+02  0.7816164E-02  0.1184000E+00
        -11   -1    0    0    0    0  0.00000000000E+00  0.00000000000E+00  0.45593999997E+02  0.45594000000E+02  0.51100000000E-03 0.  1.
         11   -1    0    0    0    0 -0.00000000000E+00 -0.00000000000E+00 -0.45593999997E+02  0.45594000000E+02  0.51100000000E-03 0. -1.
         23    2    1    2    0    0  0.35527136788E-14  0.71054273576E-14  0.00000000000E+00  0.91188000000E+02  0.91188000000E+02 0.  0.
    9900012    2    3    3    0    0 -0.24551249976E+02 -0.19645561393E+02 -0.19159023547E+02  0.54367080116E+02  0.39999990741E+02 0.  0.
        -12    1    3    3    0    0  0.24551249976E+02  0.19645561393E+02  0.19159023547E+02  0.36820919884E+02  0.00000000000E+00 0.  1.
         11    1    4    4    0    0  0.83796735374E+01 -0.35566654766E+01 -0.94054114670E+01  0.13089330122E+02  0.51100000000E-03 0. -1.
        -11    1    4    4    0    0 -0.15178705328E+02  0.41626995524E+00 -0.74939626970E+01  0.16932981228E+02  0.51100000000E-03 0.  1.
         12    1    4    4    0    0 -0.17752218185E+02 -0.16505165872E+02 -0.22596493831E+01  0.24344768766E+02  0.00000000000E+00 0. -1.
</event>
<event>
 8    1  0.2558382E-006  0.9118800E+02  0.7816164E-02  0.1184000E+00
        -11   -1    0    0    0    0  0.00000000000E+00  0.00000000000E+00  0.45593999997E+02  0.45594000000E+02  0.51100000000E-03 0.  1.
         11   -1    0    0    0    0 -0.00000000000E+00 -0.00000000000E+00 -0.45593999997E+02  0.45594000000E+02  0.51100000000E-03 0. -1.
         23    2    1    2    0    0  0.00000000000E+00 -0.17763568394E-14  0.00000000000E+00  0.91188000000E+02  0.91188000000E+02 0.  0.
    9900012    2    3    3    0    0 -0.21125633662E+02  0.13969990916E+02  0.26726899516E+02  0.54367079295E+02  0.39999988869E+02 0.  0.
         12    1    3    3    0    0  0.21125633662E+02 -0.13969990916E+02 -0.26726899516E+02  0.36820920705E+02  0.00000000000E+00 0. -1.
         11    1    4    4    0    0 -0.19381879352E+01 -0.10642908924E+02  0.10589673689E+02  0.15138337819E+02  0.51100000000E-03 0. -1.
        -11    1    4    4    0    0 -0.10958034652E+02  0.24739397653E+02  0.14950252303E+02  0.30913206948E+02  0.51100000000E-03 0.  1.
        -12    1    4    4    0    0 -0.82294110745E+01 -0.12649781251E+00  0.11869735250E+01  0.83155345275E+01  0.00000000000E+00 0.  1.
</event>
<event>
 8    1  0.2558382E-006  0.9118800E+02  0.7816164E-02  0.1184000E+00
        -11   -1    0    0    0    0  0.00000000000E+00  0.00000000000E+00  0.45593999997E+02  0.45594000000E+02  0.51100000000E-03 0.  1.
         11   -1    0    0    0    0 -0.00000000000E+00 -0.00000000000E+00 -0.45593999997E+02  0.45594000000E+02  0.51100000000E-03 0. -1.
         23    2    1    2    0    0  0.00000000000E+00 -0.35527136788E-14  0.35527136788E-14  0.91188000000E+02  0.91188000000E+02 0.  0.
    9900012    2    3    3    0    0  0.59970364205E+01  0.21242542470E+02 -0.29471502508E+02  0.54367088598E+02  0.40000010077E+02 0.  0.
        -12    1    3    3    0    0 -0.59970364205E+01 -0.21242542470E+02  0.29471502508E+02  0.36820911402E+02  0.00000000000E+00 0.  1.
         11    1    4    4    0    0 -0.18765623281E+01  0.15232700866E+02 -0.29137725975E+02  0.32932715301E+02  0.51100000000E-03 0. -1.
        -11    1    4    4    0    0 -0.46874212532E+01 -0.22590309913E+01 -0.32233538072E+01  0.61208781275E+01  0.51100000000E-03 0.  1.
        -12    1    4    4    0    0  0.12561020002E+02  0.82688725954E+01  0.28895772742E+01  0.15313495170E+02  0.00000000000E+00 0.  1.
</event>
<event>
 8    1  0.2558382E-006  0.9118800E+02  0.7816164E-02  0.1184000E+00
        -11   -1    0    0    0    0  0.00000000000E+00  0.00000000000E+00  0.45593999997E+02  0.45594000000E+02  0.51100000000E-03 0.  1.
         11   -1    0    0    0    0 -0.00000000000E+00 -0.00000000000E+00 -0.45593999997E+02  0.45594000000E+02  0.51100000000E-03 0. -1.
         23    2    1    2    0    0  0.00000000000E+00  0.00000000000E+00  0.00000000000E+00  0.91188000000E+02  0.91188000000E+02 0.  0.
    9900012    2    3    3    0    0 -0.35119732745E+02 -0.44344581193E+01  0.10135178498E+02  0.54367056366E+02  0.39999936598E+02 0.  0.
         12    1    3    3    0    0  0.35119732745E+02  0.44344581193E+01 -0.10135178498E+02  0.36820943634E+02  0.00000000000E+00 0. -1.
         11    1    4    4    0    0 -0.11340870769E+02 -0.11026164267E+02 -0.71243789458E+01  0.17347865110E+02  0.51100000000E-03 0. -1.
        -11    1    4    4    0    0  0.11645640816E+01  0.32484116313E+01  0.10366490181E+02  0.10925772584E+02  0.51100000000E-03 0.  1.
        -12    1    4    4    0    0 -0.24943426058E+02  0.33432945161E+01  0.68930672635E+01  0.26093418673E+02  0.00000000000E+00 0.  1.
</event>
<event>
 8    1  0.2558382E-006  0.9118800E+02  0.7816164E-02  0.1184000E+00
        -11   -1    0    0    0    0  0.00000000000E+00  0.00000000000E+00  0.45593999997E+02  0.45594000000E+02  0.51100000000E-03 0.  1.
         11   -1    0    0    0    0 -0.00000000000E+00 -0.00000000000E+00 -0.45593999997E+02  0.45594000000E+02  0.51100000000E-03 0. -1.
         23    2    1    2    0    0  0.00000000000E+00  0.00000000000E+00  0.00000000000E+00  0.91188000000E+02  0.91188000000E+02 0.  0.
    9900012    2    3    3    0    0 -0.25189371634E+02 -0.16224642746E+02  0.21401814790E+02  0.54367066391E+02  0.39999959451E+02 0.  0.
         12    1    3    3    0    0  0.25189371634E+02  0.16224642746E+02 -0.21401814790E+02  0.36820933609E+02  0.00000000000E+00 0. -1.
         11    1    4    4    0    0 -0.26845621958E+01  0.22785735070E+01  0.80854510307E+01  0.88189166024E+01  0.51100000000E-03 0. -1.
        -11    1    4    4    0    0 -0.29109083727E+02 -0.21256593917E+02  0.88548026278E+01  0.37115887033E+02  0.51100000000E-03 0.  1.
        -12    1    4    4    0    0  0.66042742890E+01  0.27533776644E+01  0.44615611317E+01  0.84322627556E+01  0.00000000000E+00 0.  1.
</event>
<event>
 8    1  0.2558382E-006  0.9118800E+02  0.7816164E-02  0.1184000E+00
        -11   -1    0    0    0    0  0.00000000000E+00  0.00000000000E+00  0.45593999997E+02  0.45594000000E+02  0.51100000000E-03 0.  1.
         11   -1    0    0    0    0 -0.00000000000E+00 -0.00000000000E+00 -0.45593999997E+02  0.45594000000E+02  0.51100000000E-03 0. -1.
         23    2    1    2    0    0  0.00000000000E+00 -0.26645352591E-14  0.00000000000E+00  0.91188000000E+02  0.91188000000E+02 0.  0.
    9900012    2    3    3    0    0 -0.91277811927E+01 -0.38762440489E+01  0.35460377232E+02  0.54367081884E+02  0.39999994771E+02 0.  0.
         12    1    3    3    0    0  0.91277811927E+01  0.38762440489E+01 -0.35460377232E+02  0.36820918116E+02  0.00000000000E+00 0. -1.
         11    1    4    4    0    0 -0.10826558139E+02 -0.16705642286E+02  0.12157753982E+02  0.23326033257E+02  0.51100000000E-03 0. -1.
        -11    1    4    4    0    0 -0.63855171417E+01  0.81052421011E+01  0.16525610905E+02  0.19482443243E+02  0.51100000000E-03 0.  1.
         12    1    4    4    0    0  0.80842940879E+01  0.47241561363E+01  0.67770123451E+01  0.11558605384E+02  0.00000000000E+00 0. -1.
</event>
<event>
 8    1  0.2558382E-006  0.9118800E+02  0.7816164E-02  0.1184000E+00
        -11   -1    0    0    0    0  0.00000000000E+00  0.00000000000E+00  0.45593999997E+02  0.45594000000E+02  0.51100000000E-03 0.  1.
         11   -1    0    0    0    0 -0.00000000000E+00 -0.00000000000E+00 -0.45593999997E+02  0.45594000000E+02  0.51100000000E-03 0. -1.
         23    2    1    2    0    0  0.00000000000E+00  0.00000000000E+00  0.00000000000E+00  0.91188000000E+02  0.91188000000E+02 0.  0.
    9900012    2    3    3    0    0  0.24643427164E+02  0.10205138201E+02  0.25383788618E+02  0.54367081045E+02  0.39999992858E+02 0.  0.
         12    1    3    3    0    0 -0.24643427164E+02 -0.10205138201E+02 -0.25383788618E+02  0.36820918955E+02  0.00000000000E+00 0. -1.
         11    1    4    4    0    0  0.33051956811E+01  0.99478101507E+01  0.23462413069E+01  0.10741885022E+02  0.51100000000E-03 0. -1.
        -11    1    4    4    0    0  0.22876610862E+02  0.11531891888E+02  0.14910918713E+02  0.29642188721E+02  0.51100000000E-03 0.  1.
         12    1    4    4    0    0 -0.15383793789E+01 -0.11274563838E+02  0.81266285982E+01  0.13983007302E+02  0.00000000000E+00 0. -1.
</event>
<event>
 8    1  0.2558382E-006  0.9118800E+02  0.7816164E-02  0.1184000E+00
        -11   -1    0    0    0    0  0.00000000000E+00  0.00000000000E+00  0.45593999997E+02  0.45594000000E+02  0.51100000000E-03 0. -1.
         11   -1    0    0    0    0 -0.00000000000E+00 -0.00000000000E+00 -0.45593999997E+02  0.45594000000E+02  0.51100000000E-03 0.  1.
         23    2    1    2    0    0  0.00000000000E+00 -0.88817841970E-15 -0.35527136788E-14  0.91188000000E+02  0.91188000000E+02 0.  0.
    9900012    2    3    3    0    0  0.30679745458E+02  0.73012343082E+01  0.19005950396E+02  0.54367069074E+02  0.39999965568E+02 0.  0.
        -12    1    3    3    0    0 -0.30679745458E+02 -0.73012343082E+01 -0.19005950396E+02  0.36820930926E+02  0.00000000000E+00 0.  1.
         11    1    4    4    0    0  0.20607489050E+02  0.14203585965E+02  0.12598100441E+02  0.28020039154E+02  0.51100000000E-03 0. -1.
        -11    1    4    4    0    0 -0.51059465854E+01 -0.73437972031E+01  0.66742170303E+01  0.11160072631E+02  0.51100000000E-03 0.  1.
        -12    1    4    4    0    0  0.15178202994E+02  0.44144554606E+00 -0.26636707594E+00  0.15186957289E+02  0.00000000000E+00 0.  1.
</event>
<event>
 8    1  0.2558382E-006  0.9118800E+02  0.7816164E-02  0.1184000E+00
        -11   -1    0    0    0    0  0.00000000000E+00  0.00000000000E+00  0.45593999997E+02  0.45594000000E+02  0.51100000000E-03 0. -1.
         11   -1    0    0    0    0 -0.00000000000E+00 -0.00000000000E+00 -0.45593999997E+02  0.45594000000E+02  0.51100000000E-03 0.  1.
         23    2    1    2    0    0 -0.35527136788E-14  0.00000000000E+00  0.00000000000E+00  0.91188000000E+02  0.91188000000E+02 0.  0.
    9900012    2    3    3    0    0 -0.17157179075E+02  0.27977060043E+02 -0.16694226609E+02  0.54367056441E+02  0.39999936769E+02 0.  0.
         12    1    3    3    0    0  0.17157179075E+02 -0.27977060043E+02  0.16694226609E+02  0.36820943559E+02  0.00000000000E+00 0. -1.
         11    1    4    4    0    0 -0.17573395857E+02  0.13911514496E+02 -0.19818085564E+02  0.29918405592E+02  0.51100000000E-03 0. -1.
        -11    1    4    4    0    0  0.95275399263E+00 -0.43736245566E+01 -0.25464911099E+01  0.51498494314E+01  0.51100000000E-03 0.  1.
         12    1    4    4    0    0 -0.53653721061E+00  0.18439170104E+02  0.56703500642E+01  0.19298801418E+02  0.00000000000E+00 0. -1.
</event>
<event>
 8    1  0.2558382E-006  0.9118800E+02  0.7816164E-02  0.1184000E+00
        -11   -1    0    0    0    0  0.00000000000E+00  0.00000000000E+00  0.45593999997E+02  0.45594000000E+02  0.51100000000E-03 0.  1.
         11   -1    0    0    0    0 -0.00000000000E+00 -0.00000000000E+00 -0.45593999997E+02  0.45594000000E+02  0.51100000000E-03 0. -1.
         23    2    1    2    0    0  0.00000000000E+00  0.00000000000E+00  0.00000000000E+00  0.91188000000E+02  0.91188000000E+02 0.  0.
    9900012    2    3    3    0    0  0.84237416876E+01 -0.10778388296E+02  0.34185457728E+02  0.54367101065E+02  0.40000038499E+02 0.  0.
         12    1    3    3    0    0 -0.84237416876E+01  0.10778388296E+02 -0.34185457728E+02  0.36820898935E+02  0.00000000000E+00 0. -1.
         11    1    4    4    0    0  0.12315916534E+02 -0.81041885893E+01  0.12824022275E+02  0.19540092639E+02  0.51100000000E-03 0. -1.
        -11    1    4    4    0    0  0.35846509410E+01 -0.13667759979E+02  0.12341654518E+02  0.18760965372E+02  0.51100000000E-03 0.  1.
         12    1    4    4    0    0 -0.74768257871E+01  0.10993560272E+02  0.90197809353E+01  0.16066043054E+02  0.00000000000E+00 0. -1.
</event>
<event>
 8    1  0.2558382E-006  0.9118800E+02  0.7816164E-02  0.1184000E+00
        -11   -1    0    0    0    0  0.00000000000E+00  0.00000000000E+00  0.45593999997E+02  0.45594000000E+02  0.51100000000E-03 0.  1.
         11   -1    0    0    0    0 -0.00000000000E+00 -0.00000000000E+00 -0.45593999997E+02  0.45594000000E+02  0.51100000000E-03 0. -1.
         23    2    1    2    0    0  0.77715611724E-15 -0.35527136788E-14  0.00000000000E+00  0.91188000000E+02  0.91188000000E+02 0.  0.
    9900012    2    3    3    0    0 -0.76578894585E+00  0.31175565474E+02  0.19577445423E+02  0.54367099894E+02  0.40000035829E+02 0.  0.
         12    1    3    3    0    0  0.76578894585E+00 -0.31175565474E+02 -0.19577445423E+02  0.36820900106E+02  0.00000000000E+00 0. -1.
         11    1    4    4    0    0  0.47848503963E+01  0.15588145791E+02  0.69248237326E+01  0.17715480984E+02  0.51100000000E-03 0. -1.
        -11    1    4    4    0    0 -0.41223846974E+01  0.22977879536E+02  0.17596891595E+01  0.23410969860E+02  0.51100000000E-03 0.  1.
         12    1    4    4    0    0 -0.14282546447E+01 -0.73904598529E+01  0.10892932531E+02  0.13240649051E+02  0.00000000000E+00 0. -1.
</event>
<event>
 8    1  0.2558382E-006  0.9118800E+02  0.7816164E-02  0.1184000E+00
        -11   -1    0    0    0    0  0.00000000000E+00  0.00000000000E+00  0.45593999997E+02  0.45594000000E+02  0.51100000000E-03 0.  1.
         11   -1    0    0    0    0 -0.00000000000E+00 -0.00000000000E+00 -0.45593999997E+02  0.45594000000E+02  0.51100000000E-03 0. -1.
         23    2    1    2    0    0  0.88817841970E-15  0.35527136788E-14  0.71054273576E-14  0.91188000000E+02  0.91188000000E+02 0.  0.
    9900012    2    3    3    0    0 -0.35464756023E+01  0.19870733672E+02  0.30795396541E+02  0.54367082114E+02  0.39999995295E+02 0.  0.
         12    1    3    3    0    0  0.35464756023E+01 -0.19870733672E+02 -0.30795396541E+02  0.36820917886E+02  0.00000000000E+00 0. -1.
         11    1    4    4    0    0  0.59157198232E+01  0.12989116070E+02  0.49696507487E+01  0.15113249357E+02  0.51100000000E-03 0. -1.
        -11    1    4    4    0    0  0.71026821748E+01  0.73376487782E+01  0.22837528156E+01  0.10464449859E+02  0.51100000000E-03 0.  1.
        -12    1    4    4    0    0 -0.16564877600E+02 -0.45603117601E+00  0.23541992976E+02  0.28789382898E+02  0.00000000000E+00 0.  1.
</event>
<event>
 8    1  0.2558382E-006  0.9118800E+02  0.7816164E-02  0.1184000E+00
        -11   -1    0    0    0    0  0.00000000000E+00  0.00000000000E+00  0.45593999997E+02  0.45594000000E+02  0.51100000000E-03 0.  1.
         11   -1    0    0    0    0 -0.00000000000E+00 -0.00000000000E+00 -0.45593999997E+02  0.45594000000E+02  0.51100000000E-03 0. -1.
         23    2    1    2    0    0 -0.35527136788E-14 -0.88817841970E-15  0.71054273576E-14  0.91188000000E+02  0.91188000000E+02 0.  0.
    9900012    2    3    3    0    0 -0.15061795117E+02 -0.77815875053E+01  0.32685909173E+02  0.54367089708E+02  0.40000012608E+02 0.  0.
         12    1    3    3    0    0  0.15061795117E+02  0.77815875053E+01 -0.32685909173E+02  0.36820910292E+02  0.00000000000E+00 0. -1.
         11    1    4    4    0    0 -0.42240353311E+01 -0.24773878060E+01  0.22999594371E+02  0.23515128456E+02  0.51100000000E-03 0. -1.
        -11    1    4    4    0    0 -0.15336720873E+02 -0.52764422213E+01  0.16207750950E+02  0.22929174446E+02  0.51100000000E-03 0.  1.
         12    1    4    4    0    0  0.44989610879E+01 -0.27757478048E-01 -0.65214361478E+01  0.79227868063E+01  0.00000000000E+00 0. -1.
</event>
<event>
 8    1  0.2558382E-006  0.9118800E+02  0.7816164E-02  0.1184000E+00
        -11   -1    0    0    0    0  0.00000000000E+00  0.00000000000E+00  0.45593999997E+02  0.45594000000E+02  0.51100000000E-03 0.  1.
         11   -1    0    0    0    0 -0.00000000000E+00 -0.00000000000E+00 -0.45593999997E+02  0.45594000000E+02  0.51100000000E-03 0. -1.
         23    2    1    2    0    0  0.88817841970E-15  0.00000000000E+00  0.00000000000E+00  0.91188000000E+02  0.91188000000E+02 0.  0.
    9900012    2    3    3    0    0  0.37935670650E+01 -0.35694416723E+02 -0.82037413999E+01  0.54367028948E+02  0.39999874092E+02 0.  0.
        -12    1    3    3    0    0 -0.37935670650E+01  0.35694416723E+02  0.82037413999E+01  0.36820971052E+02  0.00000000000E+00 0.  1.
         11    1    4    4    0    0  0.80140206223E+01 -0.29549506968E+02  0.26542586812E+01  0.30731790999E+02  0.51100000000E-03 0. -1.
        -11    1    4    4    0    0 -0.62598839173E+01 -0.82121456493E+01  0.19445655008E+01  0.10507464874E+02  0.51100000000E-03 0.  1.
        -12    1    4    4    0    0  0.20394303600E+01  0.20672358946E+01 -0.12802565582E+02  0.13127773075E+02  0.00000000000E+00 0.  1.
</event>
<event>
 8    1  0.2558382E-006  0.9118800E+02  0.7816164E-02  0.1184000E+00
        -11   -1    0    0    0    0  0.00000000000E+00  0.00000000000E+00  0.45593999997E+02  0.45594000000E+02  0.51100000000E-03 0. -1.
         11   -1    0    0    0    0 -0.00000000000E+00 -0.00000000000E+00 -0.45593999997E+02  0.45594000000E+02  0.51100000000E-03 0.  1.
         23    2    1    2    0    0  0.00000000000E+00 -0.71054273576E-14  0.17763568394E-14  0.91188000000E+02  0.91188000000E+02 0.  0.
    9900012    2    3    3    0    0 -0.22690238379E+02  0.25391296067E+02 -0.14007696089E+02  0.54367076826E+02  0.39999983241E+02 0.  0.
         12    1    3    3    0    0  0.22690238379E+02 -0.25391296067E+02  0.14007696089E+02  0.36820923174E+02  0.00000000000E+00 0. -1.
         11    1    4    4    0    0 -0.74846287395E+00  0.16348788155E+01 -0.89892293847E+01  0.91672935268E+01  0.51100000000E-03 0. -1.
        -11    1    4    4    0    0 -0.11225938587E+02  0.46857322191E+01 -0.16496177903E+02  0.20496381858E+02  0.51100000000E-03 0.  1.
         12    1    4    4    0    0 -0.10715836918E+02  0.19070685032E+02  0.11477711199E+02  0.24703401442E+02  0.00000000000E+00 0. -1.
</event>
<event>
 8    1  0.2558382E-006  0.9118800E+02  0.7816164E-02  0.1184000E+00
        -11   -1    0    0    0    0  0.00000000000E+00  0.00000000000E+00  0.45593999997E+02  0.45594000000E+02  0.51100000000E-03 0.  1.
         11   -1    0    0    0    0 -0.00000000000E+00 -0.00000000000E+00 -0.45593999997E+02  0.45594000000E+02  0.51100000000E-03 0. -1.
         23    2    1    2    0    0  0.88817841970E-15  0.00000000000E+00  0.00000000000E+00  0.91188000000E+02  0.91188000000E+02 0.  0.
    9900012    2    3    3    0    0  0.23734230689E+01  0.35166916346E+02  0.10650546738E+02  0.54367091698E+02  0.40000017144E+02 0.  0.
        -12    1    3    3    0    0 -0.23734230689E+01 -0.35166916346E+02 -0.10650546738E+02  0.36820908302E+02  0.00000000000E+00 0.  1.
         11    1    4    4    0    0  0.26710725578E+01  0.98858097979E+01  0.94931893221E+01  0.13963685321E+02  0.51100000000E-03 0. -1.
        -11    1    4    4    0    0 -0.11951069474E+02  0.17928273366E+02  0.10284891682E+02  0.23875301980E+02  0.51100000000E-03 0.  1.
         12    1    4    4    0    0  0.11653419985E+02  0.73528331824E+01 -0.91275342668E+01  0.16528104397E+02  0.00000000000E+00 0. -1.
</event>
<event>
 8    1  0.2558382E-006  0.9118800E+02  0.7816164E-02  0.1184000E+00
        -11   -1    0    0    0    0  0.00000000000E+00  0.00000000000E+00  0.45593999997E+02  0.45594000000E+02  0.51100000000E-03 0.  1.
         11   -1    0    0    0    0 -0.00000000000E+00 -0.00000000000E+00 -0.45593999997E+02  0.45594000000E+02  0.51100000000E-03 0. -1.
         23    2    1    2    0    0  0.00000000000E+00  0.00000000000E+00 -0.27755575616E-15  0.91188000000E+02  0.91188000000E+02 0.  0.
    9900012    2    3    3    0    0  0.90514948580E+01 -0.35690245111E+02  0.23602353937E+00  0.54367097481E+02  0.40000030327E+02 0.  0.
        -12    1    3    3    0    0 -0.90514948580E+01  0.35690245111E+02 -0.23602353937E+00  0.36820902519E+02  0.00000000000E+00 0.  1.
         11    1    4    4    0    0  0.10423539131E+02 -0.17290206246E+02 -0.43668750385E+01  0.20656016022E+02  0.51100000000E-03 0. -1.
        -11    1    4    4    0    0 -0.51443306764E+01 -0.15572558899E+02 -0.94226631639E+01  0.18914420692E+02  0.51100000000E-03 0.  1.
        -12    1    4    4    0    0  0.37722864033E+01 -0.28274799664E+01  0.14025561742E+02  0.14796660767E+02  0.00000000000E+00 0.  1.
</event>
<event>
 8    1  0.2558382E-006  0.9118800E+02  0.7816164E-02  0.1184000E+00
        -11   -1    0    0    0    0  0.00000000000E+00  0.00000000000E+00  0.45593999997E+02  0.45594000000E+02  0.51100000000E-03 0. -1.
         11   -1    0    0    0    0 -0.00000000000E+00 -0.00000000000E+00 -0.45593999997E+02  0.45594000000E+02  0.51100000000E-03 0.  1.
         23    2    1    2    0    0  0.71054273576E-14  0.17763568394E-14  0.44408920985E-15  0.91188000000E+02  0.91188000000E+02 0.  0.
    9900012    2    3    3    0    0 -0.33726239332E+02 -0.14309817666E+02 -0.36809545931E+01  0.54367088444E+02  0.40000009725E+02 0.  0.
         12    1    3    3    0    0  0.33726239332E+02  0.14309817666E+02  0.36809545931E+01  0.36820911556E+02  0.00000000000E+00 0. -1.
         11    1    4    4    0    0 -0.46850665539E+01  0.31635814316E+01  0.57378862134E+01  0.80549012748E+01  0.51100000000E-03 0. -1.
        -11    1    4    4    0    0 -0.85070557365E+01 -0.22198988255E+02 -0.15630385637E+01  0.23824528677E+02  0.51100000000E-03 0.  1.
        -12    1    4    4    0    0 -0.20534117042E+02  0.47255891577E+01 -0.78558022428E+01  0.22487658492E+02  0.00000000000E+00 0.  1.
</event>
<event>
 8    1  0.2558382E-006  0.9118800E+02  0.7816164E-02  0.1184000E+00
        -11   -1    0    0    0    0  0.00000000000E+00  0.00000000000E+00  0.45593999997E+02  0.45594000000E+02  0.51100000000E-03 0.  1.
         11   -1    0    0    0    0 -0.00000000000E+00 -0.00000000000E+00 -0.45593999997E+02  0.45594000000E+02  0.51100000000E-03 0. -1.
         23    2    1    2    0    0  0.00000000000E+00  0.00000000000E+00  0.35527136788E-14  0.91188000000E+02  0.91188000000E+02 0.  0.
    9900012    2    3    3    0    0 -0.27460719472E+02  0.74279545293E+01  0.23377612890E+02  0.54367103666E+02  0.40000044428E+02 0.  0.
         12    1    3    3    0    0  0.27460719472E+02 -0.74279545293E+01 -0.23377612890E+02  0.36820896334E+02  0.00000000000E+00 0. -1.
         11    1    4    4    0    0 -0.25139558173E+02 -0.21968551482E+01  0.23531467169E+02  0.34504398344E+02  0.51100000000E-03 0. -1.
        -11    1    4    4    0    0 -0.51814365119E+01  0.53538121700E+01  0.75462234764E+01  0.10604531017E+02  0.51100000000E-03 0.  1.
         12    1    4    4    0    0  0.28602752137E+01  0.42709975075E+01 -0.77000777559E+01  0.92581743046E+01  0.00000000000E+00 0. -1.
</event>
<event>
 8    1  0.2558382E-006  0.9118800E+02  0.7816164E-02  0.1184000E+00
        -11   -1    0    0    0    0  0.00000000000E+00  0.00000000000E+00  0.45593999997E+02  0.45594000000E+02  0.51100000000E-03 0. -1.
         11   -1    0    0    0    0 -0.00000000000E+00 -0.00000000000E+00 -0.45593999997E+02  0.45594000000E+02  0.51100000000E-03 0.  1.
         23    2    1    2    0    0  0.88817841970E-15  0.00000000000E+00 -0.35527136788E-14  0.91188000000E+02  0.91188000000E+02 0.  0.
    9900012    2    3    3    0    0  0.79305674425E+01  0.19742219607E+02 -0.30052133206E+02  0.54367084135E+02  0.39999999902E+02 0.  0.
         12    1    3    3    0    0 -0.79305674425E+01 -0.19742219607E+02  0.30052133206E+02  0.36820915865E+02  0.00000000000E+00 0. -1.
         11    1    4    4    0    0  0.20527798929E+01  0.50827735846E+01  0.73433624383E+01  0.91637036597E+01  0.51100000000E-03 0. -1.
        -11    1    4    4    0    0  0.56305264325E+01  0.17702262400E+02 -0.19058128349E+02  0.26613627682E+02  0.51100000000E-03 0.  1.
        -12    1    4    4    0    0  0.24726111710E+00 -0.30428163784E+01 -0.18337367295E+02  0.18589752792E+02  0.00000000000E+00 0.  1.
</event>
<event>
 8    1  0.2558382E-006  0.9118800E+02  0.7816164E-02  0.1184000E+00
        -11   -1    0    0    0    0  0.00000000000E+00  0.00000000000E+00  0.45593999997E+02  0.45594000000E+02  0.51100000000E-03 0. -1.
         11   -1    0    0    0    0 -0.00000000000E+00 -0.00000000000E+00 -0.45593999997E+02  0.45594000000E+02  0.51100000000E-03 0.  1.
         23    2    1    2    0    0 -0.35527136788E-14  0.00000000000E+00  0.00000000000E+00  0.91188000000E+02  0.91188000000E+02 0.  0.
    9900012    2    3    3    0    0  0.30255180320E+02 -0.49836191091E+01  0.20385346144E+02  0.54367153554E+02  0.40000158156E+02 0.  0.
        -12    1    3    3    0    0 -0.30255180320E+02  0.49836191091E+01 -0.20385346144E+02  0.36820846446E+02  0.00000000000E+00 0.  1.
         11    1    4    4    0    0  0.29255952949E+02  0.11209145865E+01  0.28364497957E+02  0.40764101574E+02  0.51100000000E-03 0. -1.
        -11    1    4    4    0    0 -0.90817785902E+00 -0.22373290492E+01  0.17360337826E+01  0.29739270088E+01  0.51100000000E-03 0.  1.
         12    1    4    4    0    0  0.19074052301E+01 -0.38672046464E+01 -0.97151855961E+01  0.10629124971E+02  0.00000000000E+00 0. -1.
</event>
<event>
 8    1  0.2558382E-006  0.9118800E+02  0.7816164E-02  0.1184000E+00
        -11   -1    0    0    0    0  0.00000000000E+00  0.00000000000E+00  0.45593999997E+02  0.45594000000E+02  0.51100000000E-03 0.  1.
         11   -1    0    0    0    0 -0.00000000000E+00 -0.00000000000E+00 -0.45593999997E+02  0.45594000000E+02  0.51100000000E-03 0. -1.
         23    2    1    2    0    0  0.71054273576E-14  0.00000000000E+00  0.00000000000E+00  0.91188000000E+02  0.91188000000E+02 0.  0.
    9900012    2    3    3    0    0  0.32856284404E+02 -0.16490098077E+02  0.20790423770E+01  0.54367066054E+02  0.39999958683E+02 0.  0.
        -12    1    3    3    0    0 -0.32856284404E+02  0.16490098077E+02 -0.20790423770E+01  0.36820933946E+02  0.00000000000E+00 0.  1.
         11    1    4    4    0    0  0.13356597942E+02  0.58478110545E+01 -0.21304529269E+01  0.14735482097E+02  0.51100000000E-03 0. -1.
        -11    1    4    4    0    0  0.18924109882E+02 -0.33747970137E+01  0.69960367706E+01  0.20456190272E+02  0.51100000000E-03 0.  1.
        -12    1    4    4    0    0  0.57557658093E+00 -0.18963112118E+02 -0.27865414667E+01  0.19175393684E+02  0.00000000000E+00 0.  1.
</event>
<event>
 8    1  0.2558382E-006  0.9118800E+02  0.7816164E-02  0.1184000E+00
        -11   -1    0    0    0    0  0.00000000000E+00  0.00000000000E+00  0.45593999997E+02  0.45594000000E+02  0.51100000000E-03 0.  1.
         11   -1    0    0    0    0 -0.00000000000E+00 -0.00000000000E+00 -0.45593999997E+02  0.45594000000E+02  0.51100000000E-03 0. -1.
         23    2    1    2    0    0 -0.44408920985E-15  0.00000000000E+00  0.00000000000E+00  0.91188000000E+02  0.91188000000E+02 0.  0.
    9900012    2    3    3    0    0 -0.14410821930E+01 -0.36010456002E+02 -0.75466519140E+01  0.54367060109E+02  0.39999945131E+02 0.  0.
        -12    1    3    3    0    0  0.14410821930E+01  0.36010456002E+02  0.75466519140E+01  0.36820939891E+02  0.00000000000E+00 0.  1.
         11    1    4    4    0    0  0.12985325408E+02 -0.29352554367E+02 -0.10393726024E+01  0.32113414946E+02  0.51100000000E-03 0. -1.
        -11    1    4    4    0    0 -0.46164423425E+01 -0.41246044164E+01  0.42245736760E+01  0.74947264458E+01  0.51100000000E-03 0.  1.
        -12    1    4    4    0    0 -0.98099652585E+01 -0.25332972184E+01 -0.10731852988E+02  0.14758918718E+02  0.00000000000E+00 0.  1.
</event>
<event>
 8    1  0.2558382E-006  0.9118800E+02  0.7816164E-02  0.1184000E+00
        -11   -1    0    0    0    0  0.00000000000E+00  0.00000000000E+00  0.45593999997E+02  0.45594000000E+02  0.51100000000E-03 0.  1.
         11   -1    0    0    0    0 -0.00000000000E+00 -0.00000000000E+00 -0.45593999997E+02  0.45594000000E+02  0.51100000000E-03 0. -1.
         23    2    1    2    0    0  0.00000000000E+00  0.00000000000E+00  0.88817841970E-15  0.91188000000E+02  0.91188000000E+02 0.  0.
    9900012    2    3    3    0    0  0.28235319295E+02 -0.22714888993E+02  0.65254768321E+01  0.54367064576E+02  0.39999955314E+02 0.  0.
         12    1    3    3    0    0 -0.28235319295E+02  0.22714888993E+02 -0.65254768321E+01  0.36820935424E+02  0.00000000000E+00 0. -1.
         11    1    4    4    0    0 -0.63753834152E+00  0.57877169506E+01 -0.11298126083E+01  0.59313235815E+01  0.51100000000E-03 0. -1.
        -11    1    4    4    0    0  0.15994636136E+02 -0.44512342359E+01  0.12428602044E+02  0.20739142228E+02  0.51100000000E-03 0.  1.
        -12    1    4    4    0    0  0.12878221501E+02 -0.24051371707E+02 -0.47733126031E+01  0.27696598766E+02  0.00000000000E+00 0.  1.
</event>
<event>
 8    1  0.2558382E-006  0.9118800E+02  0.7816164E-02  0.1184000E+00
        -11   -1    0    0    0    0  0.00000000000E+00  0.00000000000E+00  0.45593999997E+02  0.45594000000E+02  0.51100000000E-03 0.  1.
         11   -1    0    0    0    0 -0.00000000000E+00 -0.00000000000E+00 -0.45593999997E+02  0.45594000000E+02  0.51100000000E-03 0. -1.
         23    2    1    2    0    0 -0.35527136788E-14 -0.88817841970E-15 -0.71054273576E-14  0.91188000000E+02  0.91188000000E+02 0.  0.
    9900012    2    3    3    0    0 -0.16687676627E+02  0.77612848498E+01 -0.31891390510E+02  0.54367124367E+02  0.40000091620E+02 0.  0.
        -12    1    3    3    0    0  0.16687676627E+02 -0.77612848498E+01  0.31891390510E+02  0.36820875633E+02  0.00000000000E+00 0.  1.
         11    1    4    4    0    0 -0.10541215423E+02  0.11898484158E+02 -0.22204591374E+02  0.27308149447E+02  0.51100000000E-03 0. -1.
        -11    1    4    4    0    0 -0.13889877333E+01 -0.39778586815E+01 -0.17450616263E+02  0.17952065475E+02  0.51100000000E-03 0.  1.
        -12    1    4    4    0    0 -0.47574734709E+01 -0.15934062698E+00  0.77638171270E+01  0.91069094453E+01  0.00000000000E+00 0.  1.
</event>
<event>
 8    1  0.2558382E-006  0.9118800E+02  0.7816164E-02  0.1184000E+00
        -11   -1    0    0    0    0  0.00000000000E+00  0.00000000000E+00  0.45593999997E+02  0.45594000000E+02  0.51100000000E-03 0.  1.
         11   -1    0    0    0    0 -0.00000000000E+00 -0.00000000000E+00 -0.45593999997E+02  0.45594000000E+02  0.51100000000E-03 0. -1.
         23    2    1    2    0    0  0.00000000000E+00  0.00000000000E+00 -0.17763568394E-14  0.91188000000E+02  0.91188000000E+02 0.  0.
    9900012    2    3    3    0    0 -0.30956268134E+02  0.16378098322E+02 -0.11367874548E+02  0.54367337144E+02  0.40000576683E+02 0.  0.
        -12    1    3    3    0    0  0.30956268134E+02 -0.16378098322E+02  0.11367874548E+02  0.36820662856E+02  0.00000000000E+00 0.  1.
         11    1    4    4    0    0 -0.28299506102E+02  0.14953147591E+02 -0.94848713973E+01  0.33382951550E+02  0.51100000000E-03 0. -1.
        -11    1    4    4    0    0 -0.55717582071E+01  0.14522195955E+01  0.84627388703E+01  0.10235789208E+02  0.51100000000E-03 0.  1.
        -12    1    4    4    0    0  0.29149961752E+01 -0.27268864728E-01 -0.10345742021E+02  0.10748596386E+02  0.00000000000E+00 0.  1.
</event>
<event>
 8    1  0.2558382E-006  0.9118800E+02  0.7816164E-02  0.1184000E+00
        -11   -1    0    0    0    0  0.00000000000E+00  0.00000000000E+00  0.45593999997E+02  0.45594000000E+02  0.51100000000E-03 0.  1.
         11   -1    0    0    0    0 -0.00000000000E+00 -0.00000000000E+00 -0.45593999997E+02  0.45594000000E+02  0.51100000000E-03 0. -1.
         23    2    1    2    0    0  0.71054273576E-14  0.17763568394E-14  0.00000000000E+00  0.91188000000E+02  0.91188000000E+02 0.  0.
    9900012    2    3    3    0    0  0.33152978694E+02  0.14945354572E+02 -0.57702473409E+01  0.54367090533E+02  0.40000014489E+02 0.  0.
         12    1    3    3    0    0 -0.33152978694E+02 -0.14945354572E+02  0.57702473409E+01  0.36820909467E+02  0.00000000000E+00 0. -1.
         11    1    4    4    0    0  0.88655861006E+01  0.32850631433E+01 -0.11483371879E+02  0.14874746611E+02  0.51100000000E-03 0. -1.
        -11    1    4    4    0    0  0.10213543916E+02 -0.90047999007E+01 -0.85038051697E+00  0.13642802053E+02  0.51100000000E-03 0.  1.
        -12    1    4    4    0    0  0.14073848678E+02  0.20665091329E+02  0.65635050550E+01  0.25849541870E+02  0.00000000000E+00 0.  1.
</event>
<event>
 8    1  0.2558382E-006  0.9118800E+02  0.7816164E-02  0.1184000E+00
        -11   -1    0    0    0    0  0.00000000000E+00  0.00000000000E+00  0.45593999997E+02  0.45594000000E+02  0.51100000000E-03 0. -1.
         11   -1    0    0    0    0 -0.00000000000E+00 -0.00000000000E+00 -0.45593999997E+02  0.45594000000E+02  0.51100000000E-03 0.  1.
         23    2    1    2    0    0  0.35527136788E-14  0.35527136788E-14  0.00000000000E+00  0.91188000000E+02  0.91188000000E+02 0.  0.
    9900012    2    3    3    0    0  0.25233892006E+02 -0.23137244949E+02 -0.13553620894E+02  0.54367054210E+02  0.39999931681E+02 0.  0.
         12    1    3    3    0    0 -0.25233892006E+02  0.23137244949E+02  0.13553620894E+02  0.36820945790E+02  0.00000000000E+00 0. -1.
         11    1    4    4    0    0 -0.77377586566E+01  0.11826031623E+01 -0.18344333612E+01  0.80396893774E+01  0.51100000000E-03 0. -1.
        -11    1    4    4    0    0  0.25945661813E+02 -0.95514955189E+01 -0.11572662568E+02  0.29972236365E+02  0.51100000000E-03 0.  1.
         12    1    4    4    0    0  0.70259888489E+01 -0.14768352592E+02 -0.14652496470E+00  0.16355128467E+02  0.00000000000E+00 0. -1.
</event>
<event>
 8    1  0.2558382E-006  0.9118800E+02  0.7816164E-02  0.1184000E+00
        -11   -1    0    0    0    0  0.00000000000E+00  0.00000000000E+00  0.45593999997E+02  0.45594000000E+02  0.51100000000E-03 0.  1.
         11   -1    0    0    0    0 -0.00000000000E+00 -0.00000000000E+00 -0.45593999997E+02  0.45594000000E+02  0.51100000000E-03 0. -1.
         23    2    1    2    0    0  0.17763568394E-14 -0.35527136788E-14  0.00000000000E+00  0.91188000000E+02  0.91188000000E+02 0.  0.
    9900012    2    3    3    0    0  0.11985712820E+02 -0.22411380212E+02 -0.26642971385E+02  0.54367147226E+02  0.40000143731E+02 0.  0.
        -12    1    3    3    0    0 -0.11985712820E+02  0.22411380212E+02  0.26642971385E+02  0.36820852774E+02  0.00000000000E+00 0.  1.
         11    1    4    4    0    0  0.13121821738E+02 -0.22950339087E+02 -0.20653084797E+02  0.33547729906E+02  0.51100000000E-03 0. -1.
        -11    1    4    4    0    0  0.30349022924E+01  0.34959714348E+01  0.61203818937E+01  0.76740812469E+01  0.51100000000E-03 0.  1.
        -12    1    4    4    0    0 -0.41710112102E+01 -0.29570125600E+01 -0.12110268481E+02  0.13145336073E+02  0.00000000000E+00 0.  1.
</event>
<event>
 8    1  0.2558382E-006  0.9118800E+02  0.7816164E-02  0.1184000E+00
        -11   -1    0    0    0    0  0.00000000000E+00  0.00000000000E+00  0.45593999997E+02  0.45594000000E+02  0.51100000000E-03 0.  1.
         11   -1    0    0    0    0 -0.00000000000E+00 -0.00000000000E+00 -0.45593999997E+02  0.45594000000E+02  0.51100000000E-03 0. -1.
         23    2    1    2    0    0  0.00000000000E+00  0.00000000000E+00  0.17763568394E-14  0.91188000000E+02  0.91188000000E+02 0.  0.
    9900012    2    3    3    0    0  0.18803751403E+02 -0.31553210494E+02 -0.25679207413E+01  0.54367076923E+02  0.39999983462E+02 0.  0.
         12    1    3    3    0    0 -0.18803751403E+02  0.31553210494E+02  0.25679207413E+01  0.36820923077E+02  0.00000000000E+00 0. -1.
         11    1    4    4    0    0  0.29395267155E+01 -0.17499289415E+01  0.10282505600E+02  0.10836650326E+02  0.51100000000E-03 0. -1.
        -11    1    4    4    0    0  0.17386009089E+02 -0.11791218260E+02  0.57304491286E+00  0.21015102209E+02  0.51100000000E-03 0.  1.
         12    1    4    4    0    0 -0.15217844015E+01 -0.18012063292E+02 -0.13423471254E+02  0.22515324388E+02  0.00000000000E+00 0. -1.
</event>
<event>
 8    1  0.2558382E-006  0.9118800E+02  0.7816164E-02  0.1184000E+00
        -11   -1    0    0    0    0  0.00000000000E+00  0.00000000000E+00  0.45593999997E+02  0.45594000000E+02  0.51100000000E-03 0.  1.
         11   -1    0    0    0    0 -0.00000000000E+00 -0.00000000000E+00 -0.45593999997E+02  0.45594000000E+02  0.51100000000E-03 0. -1.
         23    2    1    2    0    0  0.00000000000E+00 -0.44408920985E-15  0.00000000000E+00  0.91188000000E+02  0.91188000000E+02 0.  0.
    9900012    2    3    3    0    0 -0.29156076830E+02  0.36119338542E+01 -0.22195895104E+02  0.54367073318E+02  0.39999975243E+02 0.  0.
        -12    1    3    3    0    0  0.29156076830E+02 -0.36119338542E+01  0.22195895104E+02  0.36820926682E+02  0.00000000000E+00 0.  1.
         11    1    4    4    0    0 -0.14431759998E+02  0.47172006359E+01 -0.26630154145E+02  0.30654408957E+02  0.51100000000E-03 0. -1.
        -11    1    4    4    0    0 -0.15368933845E+02 -0.70913040665E+01  0.14362162254E+01  0.16986860751E+02  0.51100000000E-03 0.  1.
         12    1    4    4    0    0  0.64461701282E+00  0.59860372848E+01  0.29980428155E+01  0.67258036094E+01  0.00000000000E+00 0. -1.
</event>
<event>
 8    1  0.2558382E-006  0.9118800E+02  0.7816164E-02  0.1184000E+00
        -11   -1    0    0    0    0  0.00000000000E+00  0.00000000000E+00  0.45593999997E+02  0.45594000000E+02  0.51100000000E-03 0. -1.
         11   -1    0    0    0    0 -0.00000000000E+00 -0.00000000000E+00 -0.45593999997E+02  0.45594000000E+02  0.51100000000E-03 0.  1.
         23    2    1    2    0    0 -0.35527136788E-14  0.00000000000E+00  0.00000000000E+00  0.91188000000E+02  0.91188000000E+02 0.  0.
    9900012    2    3    3    0    0 -0.27651077762E+02 -0.20070120739E+02 -0.13725450871E+02  0.54367084076E+02  0.39999999767E+02 0.  0.
         12    1    3    3    0    0  0.27651077762E+02  0.20070120739E+02  0.13725450871E+02  0.36820915924E+02  0.00000000000E+00 0. -1.
         11    1    4    4    0    0  0.53004406751E+01 -0.32333276516E+01 -0.82618666830E+01  0.10334772392E+02  0.51100000000E-03 0. -1.
        -11    1    4    4    0    0 -0.86499682052E+01 -0.16603677431E+02 -0.61907743824E+01  0.19718766237E+02  0.51100000000E-03 0.  1.
         12    1    4    4    0    0 -0.24301550232E+02 -0.23311565571E+00  0.72719019396E+00  0.24313545446E+02  0.00000000000E+00 0. -1.
</event>
<event>
 8    1  0.2558382E-006  0.9118800E+02  0.7816164E-02  0.1184000E+00
        -11   -1    0    0    0    0  0.00000000000E+00  0.00000000000E+00  0.45593999997E+02  0.45594000000E+02  0.51100000000E-03 0. -1.
         11   -1    0    0    0    0 -0.00000000000E+00 -0.00000000000E+00 -0.45593999997E+02  0.45594000000E+02  0.51100000000E-03 0.  1.
         23    2    1    2    0    0  0.88817841970E-15  0.35527136788E-14  0.00000000000E+00  0.91188000000E+02  0.91188000000E+02 0.  0.
    9900012    2    3    3    0    0 -0.96342018158E+00  0.24242070429E+02 -0.27697877916E+02  0.54367101068E+02  0.40000038504E+02 0.  0.
         12    1    3    3    0    0  0.96342018158E+00 -0.24242070429E+02  0.27697877916E+02  0.36820898932E+02  0.00000000000E+00 0. -1.
         11    1    4    4    0    0  0.42297143293E+01  0.34850767444E+01 -0.10521368519E+01  0.55806124608E+01  0.51100000000E-03 0. -1.
        -11    1    4    4    0    0  0.10059191242E+02  0.71845224649E+01 -0.25499233984E+02  0.28337530336E+02  0.51100000000E-03 0.  1.
         12    1    4    4    0    0 -0.15252325753E+02  0.13572471220E+02 -0.11465070800E+01  0.20448958271E+02  0.00000000000E+00 0. -1.
</event>
<event>
 8    1  0.2558382E-006  0.9118800E+02  0.7816164E-02  0.1184000E+00
        -11   -1    0    0    0    0  0.00000000000E+00  0.00000000000E+00  0.45593999997E+02  0.45594000000E+02  0.51100000000E-03 0. -1.
         11   -1    0    0    0    0 -0.00000000000E+00 -0.00000000000E+00 -0.45593999997E+02  0.45594000000E+02  0.51100000000E-03 0.  1.
         23    2    1    2    0    0  0.35527136788E-14 -0.35527136788E-14  0.35527136788E-14  0.91188000000E+02  0.91188000000E+02 0.  0.
    9900012    2    3    3    0    0 -0.17917065219E+02  0.18854141737E+02 -0.26062972593E+02  0.54367103391E+02  0.40000043800E+02 0.  0.
         12    1    3    3    0    0  0.17917065219E+02 -0.18854141737E+02  0.26062972593E+02  0.36820896609E+02  0.00000000000E+00 0. -1.
         11    1    4    4    0    0 -0.11456500624E+02 -0.40041062829E+01 -0.15864300983E+02  0.19973991078E+02  0.51100000000E-03 0. -1.
        -11    1    4    4    0    0 -0.10057830251E+02  0.65196020176E+01 -0.12716245393E+02  0.17474783461E+02  0.51100000000E-03 0.  1.
         12    1    4    4    0    0  0.35972656566E+01  0.16338646002E+02  0.25175737827E+01  0.16918328852E+02  0.00000000000E+00 0. -1.
</event>
<event>
 8    1  0.2558382E-006  0.9118800E+02  0.7816164E-02  0.1184000E+00
        -11   -1    0    0    0    0  0.00000000000E+00  0.00000000000E+00  0.45593999997E+02  0.45594000000E+02  0.51100000000E-03 0. -1.
         11   -1    0    0    0    0 -0.00000000000E+00 -0.00000000000E+00 -0.45593999997E+02  0.45594000000E+02  0.51100000000E-03 0.  1.
         23    2    1    2    0    0  0.00000000000E+00  0.00000000000E+00  0.88817841970E-15  0.91188000000E+02  0.91188000000E+02 0.  0.
    9900012    2    3    3    0    0 -0.34012052127E+02 -0.13511872666E+02  0.40483718294E+01  0.54367086007E+02  0.40000004170E+02 0.  0.
        -12    1    3    3    0    0  0.34012052127E+02  0.13511872666E+02 -0.40483718294E+01  0.36820913993E+02  0.00000000000E+00 0.  1.
         11    1    4    4    0    0 -0.48271575835E+01 -0.12240718101E+02  0.78114238125E+01  0.15302123127E+02  0.51100000000E-03 0. -1.
        -11    1    4    4    0    0 -0.13959231034E+01 -0.95108690070E+01 -0.30003075165E+01  0.10070108045E+02  0.51100000000E-03 0.  1.
        -12    1    4    4    0    0 -0.27788971440E+02  0.82397144425E+01 -0.76274446667E+00  0.28994854835E+02  0.00000000000E+00 0.  1.
</event>
<event>
 8    1  0.2558382E-006  0.9118800E+02  0.7816164E-02  0.1184000E+00
        -11   -1    0    0    0    0  0.00000000000E+00  0.00000000000E+00  0.45593999997E+02  0.45594000000E+02  0.51100000000E-03 0.  1.
         11   -1    0    0    0    0 -0.00000000000E+00 -0.00000000000E+00 -0.45593999997E+02  0.45594000000E+02  0.51100000000E-03 0. -1.
         23    2    1    2    0    0  0.00000000000E+00  0.00000000000E+00  0.00000000000E+00  0.91188000000E+02  0.91188000000E+02 0.  0.
    9900012    2    3    3    0    0 -0.14525749007E+02  0.33113994284E+02 -0.69459067738E+01  0.54367087157E+02  0.40000006793E+02 0.  0.
        -12    1    3    3    0    0  0.14525749007E+02 -0.33113994284E+02  0.69459067738E+01  0.36820912843E+02  0.00000000000E+00 0.  1.
         11    1    4    4    0    0  0.28941392117E+01 -0.37951713678E+01  0.32096387380E+01  0.57516213868E+01  0.51100000000E-03 0. -1.
        -11    1    4    4    0    0 -0.10929765777E+02  0.84385778319E+01 -0.13391905696E+02  0.19235709350E+02  0.51100000000E-03 0.  1.
         12    1    4    4    0    0 -0.64901224422E+01  0.28470587820E+02  0.32363601839E+01  0.29379756421E+02  0.00000000000E+00 0. -1.
</event>
<event>
 8    1  0.2558382E-006  0.9118800E+02  0.7816164E-02  0.1184000E+00
        -11   -1    0    0    0    0  0.00000000000E+00  0.00000000000E+00  0.45593999997E+02  0.45594000000E+02  0.51100000000E-03 0. -1.
         11   -1    0    0    0    0 -0.00000000000E+00 -0.00000000000E+00 -0.45593999997E+02  0.45594000000E+02  0.51100000000E-03 0.  1.
         23    2    1    2    0    0  0.00000000000E+00  0.00000000000E+00 -0.88817841970E-15  0.91188000000E+02  0.91188000000E+02 0.  0.
    9900012    2    3    3    0    0 -0.18672451072E+02  0.30819453594E+02  0.75683218132E+01  0.54367100446E+02  0.40000037088E+02 0.  0.
        -12    1    3    3    0    0  0.18672451072E+02 -0.30819453594E+02 -0.75683218132E+01  0.36820899554E+02  0.00000000000E+00 0.  1.
         11    1    4    4    0    0  0.32839378013E+01  0.12578689307E+02 -0.11315808712E+02  0.17235289357E+02  0.51100000000E-03 0. -1.
        -11    1    4    4    0    0 -0.13333445045E+02  0.25950602788E+01  0.11512869248E+02  0.17806213893E+02  0.51100000000E-03 0.  1.
         12    1    4    4    0    0 -0.86229438281E+01  0.15645704009E+02  0.73712612773E+01  0.19325597197E+02  0.00000000000E+00 0. -1.
</event>
<event>
 8    1  0.2558382E-006  0.9118800E+02  0.7816164E-02  0.1184000E+00
        -11   -1    0    0    0    0  0.00000000000E+00  0.00000000000E+00  0.45593999997E+02  0.45594000000E+02  0.51100000000E-03 0.  1.
         11   -1    0    0    0    0 -0.00000000000E+00 -0.00000000000E+00 -0.45593999997E+02  0.45594000000E+02  0.51100000000E-03 0. -1.
         23    2    1    2    0    0  0.00000000000E+00 -0.71054273576E-14 -0.17763568394E-14  0.91188000000E+02  0.91188000000E+02 0.  0.
    9900012    2    3    3    0    0  0.67103960284E+01  0.33462954583E+02  0.13819553558E+02  0.54367098262E+02  0.40000032108E+02 0.  0.
        -12    1    3    3    0    0 -0.67103960284E+01 -0.33462954583E+02 -0.13819553558E+02  0.36820901738E+02  0.00000000000E+00 0.  1.
         11    1    4    4    0    0 -0.52534312492E+01  0.31029162693E+02  0.14819960136E+01  0.31505615210E+02  0.51100000000E-03 0. -1.
        -11    1    4    4    0    0  0.81084009775E+01 -0.47540388153E+01  0.11207219348E+02  0.14626989343E+02  0.51100000000E-03 0.  1.
        -12    1    4    4    0    0  0.38554263001E+01  0.71878307049E+01  0.11303381966E+01  0.82344937086E+01  0.00000000000E+00 0.  1.
</event>
<event>
 8    1  0.2558382E-006  0.9118800E+02  0.7816164E-02  0.1184000E+00
        -11   -1    0    0    0    0  0.00000000000E+00  0.00000000000E+00  0.45593999997E+02  0.45594000000E+02  0.51100000000E-03 0.  1.
         11   -1    0    0    0    0 -0.00000000000E+00 -0.00000000000E+00 -0.45593999997E+02  0.45594000000E+02  0.51100000000E-03 0. -1.
         23    2    1    2    0    0  0.00000000000E+00  0.00000000000E+00  0.00000000000E+00  0.91188000000E+02  0.91188000000E+02 0.  0.
    9900012    2    3    3    0    0  0.16022975262E+02 -0.26876485860E+01  0.33042716033E+02  0.54367078311E+02  0.39999986625E+02 0.  0.
         12    1    3    3    0    0 -0.16022975262E+02  0.26876485860E+01 -0.33042716033E+02  0.36820921689E+02  0.00000000000E+00 0. -1.
         11    1    4    4    0    0  0.71748372892E+01 -0.10100884231E+02  0.74755590933E+01  0.14470319153E+02  0.51100000000E-03 0. -1.
        -11    1    4    4    0    0 -0.76749211903E+01  0.58405952220E+01  0.20314540681E+02  0.22487719564E+02  0.51100000000E-03 0.  1.
        -12    1    4    4    0    0  0.16523059164E+02  0.15726404229E+01  0.52526162590E+01  0.17409039594E+02  0.00000000000E+00 0.  1.
</event>
<event>
 8    1  0.2558382E-006  0.9118800E+02  0.7816164E-02  0.1184000E+00
        -11   -1    0    0    0    0  0.00000000000E+00  0.00000000000E+00  0.45593999997E+02  0.45594000000E+02  0.51100000000E-03 0.  1.
         11   -1    0    0    0    0 -0.00000000000E+00 -0.00000000000E+00 -0.45593999997E+02  0.45594000000E+02  0.51100000000E-03 0. -1.
         23    2    1    2    0    0  0.00000000000E+00  0.00000000000E+00  0.35527136788E-14  0.91188000000E+02  0.91188000000E+02 0.  0.
    9900012    2    3    3    0    0  0.16650588805E+02 -0.23351833132E+02 -0.23091754891E+02  0.54367090694E+02  0.40000014855E+02 0.  0.
        -12    1    3    3    0    0 -0.16650588805E+02  0.23351833132E+02  0.23091754891E+02  0.36820909306E+02  0.00000000000E+00 0.  1.
         11    1    4    4    0    0  0.17854268246E+02 -0.36193757419E+01 -0.11093919110E+02  0.21329552664E+02  0.51100000000E-03 0. -1.
        -11    1    4    4    0    0 -0.68360812783E+01 -0.14545051658E+02  0.28587868739E+01  0.16323700488E+02  0.51100000000E-03 0.  1.
        -12    1    4    4    0    0  0.56324018381E+01 -0.51874057322E+01 -0.14856622654E+02  0.16713837542E+02  0.00000000000E+00 0.  1.
</event>
<event>
 8    1  0.2558382E-006  0.9118800E+02  0.7816164E-02  0.1184000E+00
        -11   -1    0    0    0    0  0.00000000000E+00  0.00000000000E+00  0.45593999997E+02  0.45594000000E+02  0.51100000000E-03 0.  1.
         11   -1    0    0    0    0 -0.00000000000E+00 -0.00000000000E+00 -0.45593999997E+02  0.45594000000E+02  0.51100000000E-03 0. -1.
         23    2    1    2    0    0 -0.71054273576E-14  0.88817841970E-15 -0.88817841970E-15  0.91188000000E+02  0.91188000000E+02 0.  0.
    9900012    2    3    3    0    0  0.35938891000E+02 -0.53783697364E+01 -0.59370938938E+01  0.54367084324E+02  0.40000000334E+02 0.  0.
        -12    1    3    3    0    0 -0.35938891000E+02  0.53783697364E+01  0.59370938938E+01  0.36820915676E+02  0.00000000000E+00 0.  1.
         11    1    4    4    0    0  0.32227355681E+02 -0.81048313384E+01 -0.17990323373E+01  0.33279532191E+02  0.51100000000E-03 0. -1.
        -11    1    4    4    0    0  0.11234363682E+02  0.30547419108E+01  0.14198688836E+01  0.11728529464E+02  0.51100000000E-03 0.  1.
         12    1    4    4    0    0 -0.75228283635E+01 -0.32828030870E+00 -0.55579304401E+01  0.93590226693E+01  0.00000000000E+00 0. -1.
</event>
<event>
 8    1  0.2558382E-006  0.9118800E+02  0.7816164E-02  0.1184000E+00
        -11   -1    0    0    0    0  0.00000000000E+00  0.00000000000E+00  0.45593999997E+02  0.45594000000E+02  0.51100000000E-03 0.  1.
         11   -1    0    0    0    0 -0.00000000000E+00 -0.00000000000E+00 -0.45593999997E+02  0.45594000000E+02  0.51100000000E-03 0. -1.
         23    2    1    2    0    0  0.00000000000E+00 -0.17763568394E-14  0.00000000000E+00  0.91188000000E+02  0.91188000000E+02 0.  0.
    9900012    2    3    3    0    0 -0.61941576637E+01  0.61896792042E+01  0.35764524191E+02  0.54367069697E+02  0.39999966988E+02 0.  0.
         12    1    3    3    0    0  0.61941576637E+01 -0.61896792042E+01 -0.35764524191E+02  0.36820930303E+02  0.00000000000E+00 0. -1.
         11    1    4    4    0    0 -0.51717025281E-01  0.32722625372E+01 -0.21371784042E+01  0.39086965290E+01  0.51100000000E-03 0. -1.
        -11    1    4    4    0    0 -0.23510038280E+01 -0.13796720957E+02  0.26206386706E+02  0.29709450224E+02  0.51100000000E-03 0.  1.
        -12    1    4    4    0    0 -0.37914368104E+01  0.16714137624E+02  0.11695315889E+02  0.20748922944E+02  0.00000000000E+00 0.  1.
</event>
<event>
 8    1  0.2558382E-006  0.9118800E+02  0.7816164E-02  0.1184000E+00
        -11   -1    0    0    0    0  0.00000000000E+00  0.00000000000E+00  0.45593999997E+02  0.45594000000E+02  0.51100000000E-03 0. -1.
         11   -1    0    0    0    0 -0.00000000000E+00 -0.00000000000E+00 -0.45593999997E+02  0.45594000000E+02  0.51100000000E-03 0.  1.
         23    2    1    2    0    0  0.35527136788E-14  0.17763568394E-14  0.71054273576E-14  0.91188000000E+02  0.91188000000E+02 0.  0.
    9900012    2    3    3    0    0  0.11487028120E+02  0.13494458506E+02  0.32275817573E+02  0.54367073539E+02  0.39999975748E+02 0.  0.
        -12    1    3    3    0    0 -0.11487028120E+02 -0.13494458506E+02 -0.32275817573E+02  0.36820926461E+02  0.00000000000E+00 0.  1.
         11    1    4    4    0    0 -0.15673837138E+01  0.76917038520E+01  0.12998405912E+02  0.15184780419E+02  0.51100000000E-03 0. -1.
        -11    1    4    4    0    0  0.28357225083E+01 -0.99739708384E+01 -0.22425285816E+01  0.10608975027E+02  0.51100000000E-03 0.  1.
        -12    1    4    4    0    0  0.10218689326E+02  0.15776725492E+02  0.21519940243E+02  0.28573318093E+02  0.00000000000E+00 0.  1.
</event>
<event>
 8    1  0.2558382E-006  0.9118800E+02  0.7816164E-02  0.1184000E+00
        -11   -1    0    0    0    0  0.00000000000E+00  0.00000000000E+00  0.45593999997E+02  0.45594000000E+02  0.51100000000E-03 0.  1.
         11   -1    0    0    0    0 -0.00000000000E+00 -0.00000000000E+00 -0.45593999997E+02  0.45594000000E+02  0.51100000000E-03 0. -1.
         23    2    1    2    0    0  0.26645352591E-14  0.17763568394E-14 -0.71054273576E-14  0.91188000000E+02  0.91188000000E+02 0.  0.
    9900012    2    3    3    0    0  0.36323331083E+01  0.95992685354E+01 -0.35361570374E+02  0.54367075792E+02  0.39999980883E+02 0.  0.
        -12    1    3    3    0    0 -0.36323331083E+01 -0.95992685354E+01  0.35361570374E+02  0.36820924208E+02  0.00000000000E+00 0.  1.
         11    1    4    4    0    0 -0.53222136419E+01  0.26385145087E+01 -0.83603095532E+01  0.10255851644E+02  0.51100000000E-03 0. -1.
        -11    1    4    4    0    0  0.95173800108E+01 -0.12207710922E+02 -0.95882273746E+01  0.18208317678E+02  0.51100000000E-03 0.  1.
         12    1    4    4    0    0 -0.56283326065E+00  0.19168464949E+02 -0.17413033446E+02  0.25902906469E+02  0.00000000000E+00 0. -1.
</event>
<event>
 8    1  0.2558382E-006  0.9118800E+02  0.7816164E-02  0.1184000E+00
        -11   -1    0    0    0    0  0.00000000000E+00  0.00000000000E+00  0.45593999997E+02  0.45594000000E+02  0.51100000000E-03 0. -1.
         11   -1    0    0    0    0 -0.00000000000E+00 -0.00000000000E+00 -0.45593999997E+02  0.45594000000E+02  0.51100000000E-03 0.  1.
         23    2    1    2    0    0  0.00000000000E+00 -0.17763568394E-14  0.00000000000E+00  0.91188000000E+02  0.91188000000E+02 0.  0.
    9900012    2    3    3    0    0  0.25204940580E+02  0.13361940295E+02 -0.23279779666E+02  0.54367100779E+02  0.40000037847E+02 0.  0.
         12    1    3    3    0    0 -0.25204940580E+02 -0.13361940295E+02  0.23279779666E+02  0.36820899221E+02  0.00000000000E+00 0. -1.
         11    1    4    4    0    0  0.19101293897E+02  0.18937493467E+02  0.11404547263E+01  0.26921900464E+02  0.51100000000E-03 0. -1.
        -11    1    4    4    0    0 -0.45345746592E+00 -0.50820011464E+01 -0.59427609592E+01  0.78325453976E+01  0.51100000000E-03 0.  1.
         12    1    4    4    0    0  0.65571041494E+01 -0.49355202602E+00 -0.18477473434E+02  0.19612654918E+02  0.00000000000E+00 0. -1.
</event>
<event>
 8    1  0.2558382E-006  0.9118800E+02  0.7816164E-02  0.1184000E+00
        -11   -1    0    0    0    0  0.00000000000E+00  0.00000000000E+00  0.45593999997E+02  0.45594000000E+02  0.51100000000E-03 0. -1.
         11   -1    0    0    0    0 -0.00000000000E+00 -0.00000000000E+00 -0.45593999997E+02  0.45594000000E+02  0.51100000000E-03 0.  1.
         23    2    1    2    0    0 -0.71054273576E-14  0.00000000000E+00  0.17763568394E-14  0.91188000000E+02  0.91188000000E+02 0.  0.
    9900012    2    3    3    0    0 -0.35689583861E+02  0.85426556689E+01  0.30094755162E+01  0.54367077892E+02  0.39999985670E+02 0.  0.
        -12    1    3    3    0    0  0.35689583861E+02 -0.85426556689E+01 -0.30094755162E+01  0.36820922108E+02  0.00000000000E+00 0.  1.
         11    1    4    4    0    0 -0.18831205939E+02  0.10498299451E+02  0.13568737310E+02  0.25474285877E+02  0.51100000000E-03 0. -1.
        -11    1    4    4    0    0 -0.21004504742E+02 -0.12582544400E+01 -0.45003503106E+01  0.21518029112E+02  0.51100000000E-03 0.  1.
         12    1    4    4    0    0  0.41461268203E+01 -0.69738934215E+00 -0.60589114835E+01  0.73747629026E+01  0.00000000000E+00 0. -1.
</event>
<event>
 8    1  0.2558382E-006  0.9118800E+02  0.7816164E-02  0.1184000E+00
        -11   -1    0    0    0    0  0.00000000000E+00  0.00000000000E+00  0.45593999997E+02  0.45594000000E+02  0.51100000000E-03 0.  1.
         11   -1    0    0    0    0 -0.00000000000E+00 -0.00000000000E+00 -0.45593999997E+02  0.45594000000E+02  0.51100000000E-03 0. -1.
         23    2    1    2    0    0  0.00000000000E+00  0.00000000000E+00  0.00000000000E+00  0.91188000000E+02  0.91188000000E+02 0.  0.
    9900012    2    3    3    0    0 -0.25555307083E+02 -0.87417766890E+01  0.25025741469E+02  0.54367080459E+02  0.39999991523E+02 0.  0.
         12    1    3    3    0    0  0.25555307083E+02  0.87417766890E+01 -0.25025741469E+02  0.36820919541E+02  0.00000000000E+00 0. -1.
         11    1    4    4    0    0 -0.16522601362E+02 -0.31881864817E+01  0.23903495483E+02  0.29232481683E+02  0.51100000000E-03 0. -1.
        -11    1    4    4    0    0  0.29181197547E+01 -0.64916577721E+01  0.84784984047E+01  0.11069868066E+02  0.51100000000E-03 0.  1.
         12    1    4    4    0    0 -0.11950825476E+02  0.93806756483E+00 -0.73562524187E+01  0.14064730710E+02  0.00000000000E+00 0. -1.
</event>
<event>
 8    1  0.2558382E-006  0.9118800E+02  0.7816164E-02  0.1184000E+00
        -11   -1    0    0    0    0  0.00000000000E+00  0.00000000000E+00  0.45593999997E+02  0.45594000000E+02  0.51100000000E-03 0.  1.
         11   -1    0    0    0    0 -0.00000000000E+00 -0.00000000000E+00 -0.45593999997E+02  0.45594000000E+02  0.51100000000E-03 0. -1.
         23    2    1    2    0    0  0.77715611724E-15  0.00000000000E+00 -0.71054273576E-14  0.91188000000E+02  0.91188000000E+02 0.  0.
    9900012    2    3    3    0    0 -0.82113696101E+00 -0.51715111019E+01 -0.36446687648E+02  0.54367084293E+02  0.40000000264E+02 0.  0.
        -12    1    3    3    0    0  0.82113696101E+00  0.51715111019E+01  0.36446687648E+02  0.36820915707E+02  0.00000000000E+00 0.  1.
         11    1    4    4    0    0 -0.96098419814E+01 -0.10398214031E+02 -0.24864495787E+02  0.28613197461E+02  0.51100000000E-03 0. -1.
        -11    1    4    4    0    0 -0.67122589364E+01  0.28145463387E+01 -0.30022751176E+01  0.78733567977E+01  0.51100000000E-03 0.  1.
        -12    1    4    4    0    0  0.15500963957E+02  0.24121565902E+01 -0.85799167429E+01  0.17880530035E+02  0.00000000000E+00 0.  1.
</event>
<event>
 8    1  0.2558382E-006  0.9118800E+02  0.7816164E-02  0.1184000E+00
        -11   -1    0    0    0    0  0.00000000000E+00  0.00000000000E+00  0.45593999997E+02  0.45594000000E+02  0.51100000000E-03 0.  1.
         11   -1    0    0    0    0 -0.00000000000E+00 -0.00000000000E+00 -0.45593999997E+02  0.45594000000E+02  0.51100000000E-03 0. -1.
         23    2    1    2    0    0  0.00000000000E+00  0.00000000000E+00  0.35527136788E-14  0.91188000000E+02  0.91188000000E+02 0.  0.
    9900012    2    3    3    0    0 -0.17804337900E+02 -0.25990687376E+02 -0.19059602975E+02  0.54367099089E+02  0.40000033993E+02 0.  0.
        -12    1    3    3    0    0  0.17804337900E+02  0.25990687376E+02  0.19059602975E+02  0.36820900911E+02  0.00000000000E+00 0.  1.
         11    1    4    4    0    0 -0.14367350828E+02 -0.25578824214E+01  0.32836059595E+00  0.14596963836E+02  0.51100000000E-03 0.  1.
        -11    1    4    4    0    0  0.54665734879E+01 -0.14874123494E+02  0.10596905858E+01  0.15882251724E+02  0.51100000000E-03 0. -1.
        -12    1    4    4    0    0 -0.89035605596E+01 -0.85586814606E+01 -0.20447654156E+02  0.23887883529E+02  0.00000000000E+00 0.  1.
</event>
<event>
 8    1  0.2558382E-006  0.9118800E+02  0.7816164E-02  0.1184000E+00
        -11   -1    0    0    0    0  0.00000000000E+00  0.00000000000E+00  0.45593999997E+02  0.45594000000E+02  0.51100000000E-03 0. -1.
         11   -1    0    0    0    0 -0.00000000000E+00 -0.00000000000E+00 -0.45593999997E+02  0.45594000000E+02  0.51100000000E-03 0.  1.
         23    2    1    2    0    0  0.00000000000E+00 -0.88817841970E-15  0.00000000000E+00  0.91188000000E+02  0.91188000000E+02 0.  0.
    9900012    2    3    3    0    0  0.16505677215E+02  0.51922791426E+01  0.32502010092E+02  0.54367111865E+02  0.40000063118E+02 0.  0.
        -12    1    3    3    0    0 -0.16505677215E+02 -0.51922791426E+01 -0.32502010092E+02  0.36820888135E+02  0.00000000000E+00 0.  1.
         11    1    4    4    0    0  0.99585116283E+01 -0.11029065305E+02  0.77455614519E+01  0.16757265822E+02  0.51100000000E-03 0. -1.
        -11    1    4    4    0    0 -0.64180020879E+01  0.10161349616E+02  0.18336821641E+02  0.21924479582E+02  0.51100000000E-03 0.  1.
        -12    1    4    4    0    0  0.12965167674E+02  0.60599948323E+01  0.64196269995E+01  0.15685366461E+02  0.00000000000E+00 0.  1.
</event>
<event>
 8    1  0.2558382E-006  0.9118800E+02  0.7816164E-02  0.1184000E+00
        -11   -1    0    0    0    0  0.00000000000E+00  0.00000000000E+00  0.45593999997E+02  0.45594000000E+02  0.51100000000E-03 0.  1.
         11   -1    0    0    0    0 -0.00000000000E+00 -0.00000000000E+00 -0.45593999997E+02  0.45594000000E+02  0.51100000000E-03 0. -1.
         23    2    1    2    0    0  0.00000000000E+00  0.00000000000E+00  0.00000000000E+00  0.91188000000E+02  0.91188000000E+02 0.  0.
    9900012    2    3    3    0    0 -0.15058358577E+02 -0.28453867752E+01  0.33480280871E+02  0.54367087516E+02  0.40000007611E+02 0.  0.
         12    1    3    3    0    0  0.15058358577E+02  0.28453867752E+01 -0.33480280871E+02  0.36820912484E+02  0.00000000000E+00 0. -1.
         11    1    4    4    0    0  0.88777922825E+00  0.11473883242E+01 -0.19425742878E+01  0.24245096513E+01  0.51100000000E-03 0. -1.
        -11    1    4    4    0    0  0.12699169316E+01  0.11213665666E+02  0.21143956025E+01  0.11481709616E+02  0.51100000000E-03 0.  1.
        -12    1    4    4    0    0 -0.17216054736E+02 -0.15206440765E+02  0.33308459556E+02  0.40460868249E+02  0.00000000000E+00 0.  1.
</event>
<event>
 8    1  0.2558382E-006  0.9118800E+02  0.7816164E-02  0.1184000E+00
        -11   -1    0    0    0    0  0.00000000000E+00  0.00000000000E+00  0.45593999997E+02  0.45594000000E+02  0.51100000000E-03 0. -1.
         11   -1    0    0    0    0 -0.00000000000E+00 -0.00000000000E+00 -0.45593999997E+02  0.45594000000E+02  0.51100000000E-03 0.  1.
         23    2    1    2    0    0  0.35527136788E-14 -0.17763568394E-14  0.35527136788E-14  0.91188000000E+02  0.91188000000E+02 0.  0.
    9900012    2    3    3    0    0 -0.27434832452E+02  0.82489943786E+01 -0.23131454301E+02  0.54367080430E+02  0.39999991456E+02 0.  0.
         12    1    3    3    0    0  0.27434832452E+02 -0.82489943786E+01  0.23131454301E+02  0.36820919570E+02  0.00000000000E+00 0. -1.
         11    1    4    4    0    0 -0.63484379491E+01  0.16410974372E+02  0.86402312165E+00  0.17617300600E+02  0.51100000000E-03 0. -1.
        -11    1    4    4    0    0 -0.20151556067E+02 -0.32812732813E+01 -0.11802140120E+02  0.23582673257E+02  0.51100000000E-03 0.  1.
        -12    1    4    4    0    0 -0.93483843569E+00 -0.48807067120E+01 -0.12193337303E+02  0.13167106573E+02  0.00000000000E+00 0.  1.
</event>
<event>
 8    1  0.2558382E-006  0.9118800E+02  0.7816164E-02  0.1184000E+00
        -11   -1    0    0    0    0  0.00000000000E+00  0.00000000000E+00  0.45593999997E+02  0.45594000000E+02  0.51100000000E-03 0.  1.
         11   -1    0    0    0    0 -0.00000000000E+00 -0.00000000000E+00 -0.45593999997E+02  0.45594000000E+02  0.51100000000E-03 0. -1.
         23    2    1    2    0    0 -0.71054273576E-14 -0.17763568394E-14 -0.17763568394E-14  0.91188000000E+02  0.91188000000E+02 0.  0.
    9900012    2    3    3    0    0  0.32097440291E+02  0.14082551269E+02  0.11279014662E+02  0.54367080739E+02  0.39999992160E+02 0.  0.
         12    1    3    3    0    0 -0.32097440291E+02 -0.14082551269E+02 -0.11279014662E+02  0.36820919261E+02  0.00000000000E+00 0. -1.
         11    1    4    4    0    0 -0.18943152696E+01 -0.42831968574E+01 -0.48603765759E+00  0.47085495140E+01  0.51100000000E-03 0. -1.
        -11    1    4    4    0    0  0.16591880696E+02  0.17034603698E+00  0.17203949290E+02  0.23901786423E+02  0.51100000000E-03 0.  1.
        -12    1    4    4    0    0  0.17399874865E+02  0.18195402090E+02 -0.54388969701E+01  0.25756744802E+02  0.00000000000E+00 0.  1.
</event>
<event>
 8    1  0.2558382E-006  0.9118800E+02  0.7816164E-02  0.1184000E+00
        -11   -1    0    0    0    0  0.00000000000E+00  0.00000000000E+00  0.45593999997E+02  0.45594000000E+02  0.51100000000E-03 0.  1.
         11   -1    0    0    0    0 -0.00000000000E+00 -0.00000000000E+00 -0.45593999997E+02  0.45594000000E+02  0.51100000000E-03 0. -1.
         23    2    1    2    0    0 -0.35527136788E-14  0.00000000000E+00  0.00000000000E+00  0.91188000000E+02  0.91188000000E+02 0.  0.
    9900012    2    3    3    0    0  0.14982320658E+02 -0.25671608015E+02  0.21731971627E+02  0.54367082287E+02  0.39999995691E+02 0.  0.
         12    1    3    3    0    0 -0.14982320658E+02  0.25671608015E+02 -0.21731971627E+02  0.36820917713E+02  0.00000000000E+00 0. -1.
         11    1    4    4    0    0  0.75054997836E+00 -0.38965363118E+01 -0.11130724449E+02  0.11816909390E+02  0.51100000000E-03 0. -1.
        -11    1    4    4    0    0  0.62094634223E+01 -0.15348044872E+02  0.22688732353E+02  0.28087336887E+02  0.51100000000E-03 0.  1.
         12    1    4    4    0    0  0.80223072575E+01 -0.64270268312E+01  0.10173963723E+02  0.14462836011E+02  0.00000000000E+00 0. -1.
</event>
<event>
 8    1  0.2558382E-006  0.9118800E+02  0.7816164E-02  0.1184000E+00
        -11   -1    0    0    0    0  0.00000000000E+00  0.00000000000E+00  0.45593999997E+02  0.45594000000E+02  0.51100000000E-03 0. -1.
         11   -1    0    0    0    0 -0.00000000000E+00 -0.00000000000E+00 -0.45593999997E+02  0.45594000000E+02  0.51100000000E-03 0.  1.
         23    2    1    2    0    0 -0.17763568394E-14  0.00000000000E+00 -0.35527136788E-14  0.91188000000E+02  0.91188000000E+02 0.  0.
    9900012    2    3    3    0    0  0.13919417400E+02  0.28325652334E+02  0.18965371753E+02  0.54367108014E+02  0.40000054340E+02 0.  0.
        -12    1    3    3    0    0 -0.13919417400E+02 -0.28325652334E+02 -0.18965371753E+02  0.36820891986E+02  0.00000000000E+00 0.  1.
         11    1    4    4    0    0  0.65460373571E+01  0.87150838805E+00 -0.71395558961E+01  0.97253992517E+01  0.51100000000E-03 0. -1.
        -11    1    4    4    0    0 -0.54048287306E+01  0.12770138266E+02  0.25750199671E+01  0.14103876525E+02  0.51100000000E-03 0.  1.
         12    1    4    4    0    0  0.12778208773E+02  0.14684005680E+02  0.23529907682E+02  0.30537832238E+02  0.00000000000E+00 0. -1.
</event>
<event>
 8    1  0.2558382E-006  0.9118800E+02  0.7816164E-02  0.1184000E+00
        -11   -1    0    0    0    0  0.00000000000E+00  0.00000000000E+00  0.45593999997E+02  0.45594000000E+02  0.51100000000E-03 0. -1.
         11   -1    0    0    0    0 -0.00000000000E+00 -0.00000000000E+00 -0.45593999997E+02  0.45594000000E+02  0.51100000000E-03 0.  1.
         23    2    1    2    0    0 -0.44408920985E-15  0.00000000000E+00  0.00000000000E+00  0.91188000000E+02  0.91188000000E+02 0.  0.
    9900012    2    3    3    0    0 -0.29099004932E+01 -0.27276808343E+02 -0.24561917950E+02  0.54367087360E+02  0.40000007254E+02 0.  0.
         12    1    3    3    0    0  0.29099004932E+01  0.27276808343E+02  0.24561917950E+02  0.36820912640E+02  0.00000000000E+00 0. -1.
         11    1    4    4    0    0  0.33211881303E+01 -0.30816986108E+02 -0.38928684505E+01  0.31238939617E+02  0.51100000000E-03 0. -1.
        -11    1    4    4    0    0  0.10242421940E+01  0.25616013077E+01 -0.83935977410E+01  0.88353470011E+01  0.51100000000E-03 0.  1.
         12    1    4    4    0    0 -0.72553308175E+01  0.97857645725E+00 -0.12275451759E+02  0.14292800741E+02  0.00000000000E+00 0. -1.
</event>
<event>
 8    1  0.2558382E-006  0.9118800E+02  0.7816164E-02  0.1184000E+00
        -11   -1    0    0    0    0  0.00000000000E+00  0.00000000000E+00  0.45593999997E+02  0.45594000000E+02  0.51100000000E-03 0. -1.
         11   -1    0    0    0    0 -0.00000000000E+00 -0.00000000000E+00 -0.45593999997E+02  0.45594000000E+02  0.51100000000E-03 0.  1.
         23    2    1    2    0    0  0.00000000000E+00  0.00000000000E+00  0.35527136788E-14  0.91188000000E+02  0.91188000000E+02 0.  0.
    9900012    2    3    3    0    0 -0.27641814152E+02  0.96320672195E+01  0.22336800509E+02  0.54367092006E+02  0.40000017847E+02 0.  0.
        -12    1    3    3    0    0  0.27641814152E+02 -0.96320672195E+01 -0.22336800509E+02  0.36820907994E+02  0.00000000000E+00 0.  1.
         11    1    4    4    0    0 -0.11451879116E+02  0.53855541174E+01  0.46196313561E+01  0.13471849263E+02  0.51100000000E-03 0. -1.
        -11    1    4    4    0    0 -0.22313005712E+02  0.72891898839E+01  0.17652357095E+01  0.23539723244E+02  0.51100000000E-03 0.  1.
        -12    1    4    4    0    0  0.61230706759E+01 -0.30426767818E+01  0.15951933443E+02  0.17355519499E+02  0.00000000000E+00 0.  1.
</event>
<event>
 8    1  0.2558382E-006  0.9118800E+02  0.7816164E-02  0.1184000E+00
        -11   -1    0    0    0    0  0.00000000000E+00  0.00000000000E+00  0.45593999997E+02  0.45594000000E+02  0.51100000000E-03 0.  1.
         11   -1    0    0    0    0 -0.00000000000E+00 -0.00000000000E+00 -0.45593999997E+02  0.45594000000E+02  0.51100000000E-03 0. -1.
         23    2    1    2    0    0  0.53290705182E-14  0.00000000000E+00  0.00000000000E+00  0.91188000000E+02  0.91188000000E+02 0.  0.
    9900012    2    3    3    0    0 -0.10404569342E+02  0.14505624521E+02  0.32204213943E+02  0.54367087442E+02  0.40000007441E+02 0.  0.
         12    1    3    3    0    0  0.10404569342E+02 -0.14505624521E+02 -0.32204213943E+02  0.36820912558E+02  0.00000000000E+00 0. -1.
         11    1    4    4    0    0  0.89794933319E+01 -0.28314838764E+01  0.52735311084E+01  0.10791604702E+02  0.51100000000E-03 0. -1.
        -11    1    4    4    0    0 -0.67999275561E+01  0.90961231833E+01 -0.14556930536E+01  0.11449782280E+02  0.51100000000E-03 0.  1.
         12    1    4    4    0    0 -0.12584135118E+02  0.82409852142E+01  0.28386375888E+02  0.32125700459E+02  0.00000000000E+00 0. -1.
</event>
<event>
 8    1  0.2558382E-006  0.9118800E+02  0.7816164E-02  0.1184000E+00
        -11   -1    0    0    0    0  0.00000000000E+00  0.00000000000E+00  0.45593999997E+02  0.45594000000E+02  0.51100000000E-03 0.  1.
         11   -1    0    0    0    0 -0.00000000000E+00 -0.00000000000E+00 -0.45593999997E+02  0.45594000000E+02  0.51100000000E-03 0. -1.
         23    2    1    2    0    0 -0.17763568394E-14  0.00000000000E+00 -0.17763568394E-14  0.91188000000E+02  0.91188000000E+02 0.  0.
    9900012    2    3    3    0    0 -0.15783763407E+02  0.31114605626E+02  0.11770025086E+02  0.54367090708E+02  0.40000014887E+02 0.  0.
        -12    1    3    3    0    0  0.15783763407E+02 -0.31114605626E+02 -0.11770025086E+02  0.36820909292E+02  0.00000000000E+00 0.  1.
         11    1    4    4    0    0 -0.38110502724E+01  0.22595478619E+02 -0.50739218904E+01  0.23469649376E+02  0.51100000000E-03 0. -1.
        -11    1    4    4    0    0 -0.16957547115E+02  0.10857481509E+02  0.11326523840E+02  0.23102671955E+02  0.51100000000E-03 0.  1.
        -12    1    4    4    0    0  0.49848339804E+01 -0.23383545020E+01  0.55174231355E+01  0.77947693773E+01  0.00000000000E+00 0.  1.
</event>
<event>
 8    1  0.2558382E-006  0.9118800E+02  0.7816164E-02  0.1184000E+00
        -11   -1    0    0    0    0  0.00000000000E+00  0.00000000000E+00  0.45593999997E+02  0.45594000000E+02  0.51100000000E-03 0. -1.
         11   -1    0    0    0    0 -0.00000000000E+00 -0.00000000000E+00 -0.45593999997E+02  0.45594000000E+02  0.51100000000E-03 0.  1.
         23    2    1    2    0    0  0.35527136788E-14  0.00000000000E+00 -0.35527136788E-14  0.91188000000E+02  0.91188000000E+02 0.  0.
    9900012    2    3    3    0    0  0.18037774181E+02 -0.12561664263E+02  0.29540195767E+02  0.54367083764E+02  0.39999999058E+02 0.  0.
        -12    1    3    3    0    0 -0.18037774181E+02  0.12561664263E+02 -0.29540195767E+02  0.36820916236E+02  0.00000000000E+00 0.  1.
         11    1    4    4    0    0  0.25219183126E+02 -0.35224479845E+01  0.62496673027E+01  0.26219709743E+02  0.51100000000E-03 0. -1.
        -11    1    4    4    0    0 -0.56003306934E+01 -0.70088834746E+01  0.23878041503E+02  0.25507822677E+02  0.51100000000E-03 0.  1.
        -12    1    4    4    0    0 -0.15810782514E+01 -0.20303328038E+01 -0.58751303833E+00  0.26395513447E+01  0.00000000000E+00 0.  1.
</event>
<event>
 8    1  0.2558382E-006  0.9118800E+02  0.7816164E-02  0.1184000E+00
        -11   -1    0    0    0    0  0.00000000000E+00  0.00000000000E+00  0.45593999997E+02  0.45594000000E+02  0.51100000000E-03 0.  1.
         11   -1    0    0    0    0 -0.00000000000E+00 -0.00000000000E+00 -0.45593999997E+02  0.45594000000E+02  0.51100000000E-03 0. -1.
         23    2    1    2    0    0  0.00000000000E+00 -0.71054273576E-14  0.44408920985E-15  0.91188000000E+02  0.91188000000E+02 0.  0.
    9900012    2    3    3    0    0 -0.53291430000E+01  0.36267629351E+02 -0.34697557968E+01  0.54367083266E+02  0.39999997921E+02 0.  0.
         12    1    3    3    0    0  0.53291430000E+01 -0.36267629351E+02  0.34697557968E+01  0.36820916734E+02  0.00000000000E+00 0. -1.
         11    1    4    4    0    0 -0.43860106956E+01 -0.63498257273E+01 -0.25686725710E+01  0.81336004098E+01  0.51100000000E-03 0. -1.
        -11    1    4    4    0    0 -0.53702982084E+01  0.81912205650E+01  0.50457883198E+01  0.11017993339E+02  0.51100000000E-03 0.  1.
        -12    1    4    4    0    0  0.44271659040E+01  0.34426234513E+02 -0.59468715455E+01  0.35215489517E+02  0.00000000000E+00 0.  1.
</event>
<event>
 8    1  0.2558382E-006  0.9118800E+02  0.7816164E-02  0.1184000E+00
        -11   -1    0    0    0    0  0.00000000000E+00  0.00000000000E+00  0.45593999997E+02  0.45594000000E+02  0.51100000000E-03 0.  1.
         11   -1    0    0    0    0 -0.00000000000E+00 -0.00000000000E+00 -0.45593999997E+02  0.45594000000E+02  0.51100000000E-03 0. -1.
         23    2    1    2    0    0  0.35527136788E-14  0.88817841970E-15  0.00000000000E+00  0.91188000000E+02  0.91188000000E+02 0.  0.
    9900012    2    3    3    0    0  0.14414894024E+02  0.71785188723E+01  0.33112742144E+02  0.54367163572E+02  0.40000180995E+02 0.  0.
         12    1    3    3    0    0 -0.14414894024E+02 -0.71785188723E+01 -0.33112742144E+02  0.36820836428E+02  0.00000000000E+00 0. -1.
         11    1    4    4    0    0  0.20217863055E+02 -0.56317450576E+00  0.71542365529E+01  0.21453723522E+02  0.51100000000E-03 0.  1.
        -11    1    4    4    0    0 -0.40556306069E+01 -0.49490345015E+01  0.13981882673E+02  0.15376414584E+02  0.51100000000E-03 0. -1.
        -12    1    4    4    0    0 -0.17473384234E+01  0.12690727880E+02  0.11976622918E+02  0.17537025466E+02  0.00000000000E+00 0.  1.
</event>
<event>
 8    1  0.2558382E-006  0.9118800E+02  0.7816164E-02  0.1184000E+00
        -11   -1    0    0    0    0  0.00000000000E+00  0.00000000000E+00  0.45593999997E+02  0.45594000000E+02  0.51100000000E-03 0.  1.
         11   -1    0    0    0    0 -0.00000000000E+00 -0.00000000000E+00 -0.45593999997E+02  0.45594000000E+02  0.51100000000E-03 0. -1.
         23    2    1    2    0    0  0.00000000000E+00 -0.35527136788E-14  0.00000000000E+00  0.91188000000E+02  0.91188000000E+02 0.  0.
    9900012    2    3    3    0    0 -0.13447869590E+02 -0.25978362228E+02 -0.22362007250E+02  0.54367083814E+02  0.39999999170E+02 0.  0.
        -12    1    3    3    0    0  0.13447869590E+02  0.25978362228E+02  0.22362007250E+02  0.36820916186E+02  0.00000000000E+00 0.  1.
         11    1    4    4    0    0  0.95367714550E+01 -0.15272897434E+02  0.85776314024E+00  0.18026290902E+02  0.51100000000E-03 0. -1.
        -11    1    4    4    0    0 -0.56781764750E+01 -0.19090940860E+01  0.10811013306E+00  0.59914953370E+01  0.51100000000E-03 0.  1.
         12    1    4    4    0    0 -0.17306464570E+02 -0.87963707075E+01 -0.23327880524E+02  0.30349297574E+02  0.00000000000E+00 0. -1.
</event>
<event>
 8    1  0.2558382E-006  0.9118800E+02  0.7816164E-02  0.1184000E+00
        -11   -1    0    0    0    0  0.00000000000E+00  0.00000000000E+00  0.45593999997E+02  0.45594000000E+02  0.51100000000E-03 0.  1.
         11   -1    0    0    0    0 -0.00000000000E+00 -0.00000000000E+00 -0.45593999997E+02  0.45594000000E+02  0.51100000000E-03 0. -1.
         23    2    1    2    0    0  0.00000000000E+00  0.00000000000E+00  0.17763568394E-14  0.91188000000E+02  0.91188000000E+02 0.  0.
    9900012    2    3    3    0    0 -0.19219153596E+02 -0.27489121159E+02 -0.15190533877E+02  0.54367082487E+02  0.39999996146E+02 0.  0.
        -12    1    3    3    0    0  0.19219153596E+02  0.27489121159E+02  0.15190533877E+02  0.36820917513E+02  0.00000000000E+00 0.  1.
         11    1    4    4    0    0 -0.47346114954E+01 -0.11650763416E+02 -0.14990464612E+02  0.19567086235E+02  0.51100000000E-03 0. -1.
        -11    1    4    4    0    0 -0.13876698853E+02 -0.12319118366E+02 -0.12248129386E+02  0.22233760862E+02  0.51100000000E-03 0.  1.
        -12    1    4    4    0    0 -0.60784324768E+00 -0.35192393774E+01  0.12048060121E+02  0.12566235390E+02  0.00000000000E+00 0.  1.
</event>
<event>
 8    1  0.2558382E-006  0.9118800E+02  0.7816164E-02  0.1184000E+00
        -11   -1    0    0    0    0  0.00000000000E+00  0.00000000000E+00  0.45593999997E+02  0.45594000000E+02  0.51100000000E-03 0.  1.
         11   -1    0    0    0    0 -0.00000000000E+00 -0.00000000000E+00 -0.45593999997E+02  0.45594000000E+02  0.51100000000E-03 0. -1.
         23    2    1    2    0    0  0.00000000000E+00 -0.17763568394E-14  0.00000000000E+00  0.91188000000E+02  0.91188000000E+02 0.  0.
    9900012    2    3    3    0    0  0.43381946392E+01 -0.58113264685E+01  0.36099674109E+02  0.54367110293E+02  0.40000059535E+02 0.  0.
         12    1    3    3    0    0 -0.43381946392E+01  0.58113264685E+01 -0.36099674109E+02  0.36820889707E+02  0.00000000000E+00 0. -1.
         11    1    4    4    0    0 -0.73388522471E+00  0.12303953888E+02  0.19436546082E+02  0.23015325170E+02  0.51100000000E-03 0. -1.
        -11    1    4    4    0    0  0.17485726558E+01 -0.35003075281E+01 -0.41499366122E+01  0.57036508721E+01  0.51100000000E-03 0.  1.
        -12    1    4    4    0    0  0.33235072082E+01 -0.14614972828E+02  0.20813064639E+02  0.25648134252E+02  0.00000000000E+00 0.  1.
</event>
<event>
 8    1  0.2558382E-006  0.9118800E+02  0.7816164E-02  0.1184000E+00
        -11   -1    0    0    0    0  0.00000000000E+00  0.00000000000E+00  0.45593999997E+02  0.45594000000E+02  0.51100000000E-03 0. -1.
         11   -1    0    0    0    0 -0.00000000000E+00 -0.00000000000E+00 -0.45593999997E+02  0.45594000000E+02  0.51100000000E-03 0.  1.
         23    2    1    2    0    0 -0.13322676296E-14 -0.17763568394E-14 -0.71054273576E-14  0.91188000000E+02  0.91188000000E+02 0.  0.
    9900012    2    3    3    0    0 -0.25808000211E+01  0.89380582214E+01  0.35626216614E+02  0.54367126521E+02  0.40000096529E+02 0.  0.
        -12    1    3    3    0    0  0.25808000211E+01 -0.89380582214E+01 -0.35626216614E+02  0.36820873479E+02  0.00000000000E+00 0.  1.
         11    1    4    4    0    0  0.11445097598E+02  0.70741579401E+01  0.23551174503E+01  0.13659449039E+02  0.51100000000E-03 0.  1.
        -11    1    4    4    0    0 -0.62281151812E+01 -0.10995082692E+01 -0.84294686705E-01  0.63249856126E+01  0.51100000000E-03 0. -1.
        -12    1    4    4    0    0 -0.77977824381E+01  0.29634085504E+01  0.33355393851E+02  0.34382691869E+02  0.00000000000E+00 0.  1.
</event>
<event>
 8    1  0.2558382E-006  0.9118800E+02  0.7816164E-02  0.1184000E+00
        -11   -1    0    0    0    0  0.00000000000E+00  0.00000000000E+00  0.45593999997E+02  0.45594000000E+02  0.51100000000E-03 0.  1.
         11   -1    0    0    0    0 -0.00000000000E+00 -0.00000000000E+00 -0.45593999997E+02  0.45594000000E+02  0.51100000000E-03 0. -1.
         23    2    1    2    0    0  0.00000000000E+00 -0.17763568394E-14  0.35527136788E-14  0.91188000000E+02  0.91188000000E+02 0.  0.
    9900012    2    3    3    0    0 -0.27416945504E+02 -0.12409167809E+02 -0.21215637740E+02  0.54367087040E+02  0.40000006525E+02 0.  0.
        -12    1    3    3    0    0  0.27416945504E+02  0.12409167809E+02  0.21215637740E+02  0.36820912960E+02  0.00000000000E+00 0.  1.
         11    1    4    4    0    0  0.59816537417E+01  0.60348456201E+01 -0.10208629942E+02  0.13282156026E+02  0.51100000000E-03 0. -1.
        -11    1    4    4    0    0 -0.15207435710E+02 -0.14408741348E+02 -0.59022086908E+01  0.21764971762E+02  0.51100000000E-03 0.  1.
         12    1    4    4    0    0 -0.18191163536E+02 -0.40352720807E+01 -0.51047991072E+01  0.19319959252E+02  0.00000000000E+00 0. -1.
</event>
<event>
 8    1  0.2558382E-006  0.9118800E+02  0.7816164E-02  0.1184000E+00
        -11   -1    0    0    0    0  0.00000000000E+00  0.00000000000E+00  0.45593999997E+02  0.45594000000E+02  0.51100000000E-03 0. -1.
         11   -1    0    0    0    0 -0.00000000000E+00 -0.00000000000E+00 -0.45593999997E+02  0.45594000000E+02  0.51100000000E-03 0.  1.
         23    2    1    2    0    0  0.00000000000E+00 -0.11102230246E-15  0.00000000000E+00  0.91188000000E+02  0.91188000000E+02 0.  0.
    9900012    2    3    3    0    0  0.36153454910E+02 -0.99769912426E+00  0.69077518873E+01  0.54367017645E+02  0.39999848325E+02 0.  0.
        -12    1    3    3    0    0 -0.36153454910E+02  0.99769912426E+00 -0.69077518873E+01  0.36820982355E+02  0.00000000000E+00 0.  1.
         11    1    4    4    0    0  0.92693965834E+01  0.73986753340E+01 -0.19447918324E+01  0.12018499293E+02  0.51100000000E-03 0. -1.
        -11    1    4    4    0    0  0.78470772285E+01 -0.12794532807E+02 -0.75835518935E+01  0.16816270406E+02  0.51100000000E-03 0.  1.
         12    1    4    4    0    0  0.19036981098E+02  0.43981583485E+01  0.16436095613E+02  0.25532247946E+02  0.00000000000E+00 0. -1.
</event>
<event>
 8    1  0.2558382E-006  0.9118800E+02  0.7816164E-02  0.1184000E+00
        -11   -1    0    0    0    0  0.00000000000E+00  0.00000000000E+00  0.45593999997E+02  0.45594000000E+02  0.51100000000E-03 0. -1.
         11   -1    0    0    0    0 -0.00000000000E+00 -0.00000000000E+00 -0.45593999997E+02  0.45594000000E+02  0.51100000000E-03 0.  1.
         23    2    1    2    0    0  0.00000000000E+00  0.35527136788E-14 -0.35527136788E-14  0.91188000000E+02  0.91188000000E+02 0.  0.
    9900012    2    3    3    0    0 -0.10798050680E+02  0.17408712060E+02 -0.30596068427E+02  0.54367074465E+02  0.39999977857E+02 0.  0.
         12    1    3    3    0    0  0.10798050680E+02 -0.17408712060E+02  0.30596068427E+02  0.36820925535E+02  0.00000000000E+00 0. -1.
         11    1    4    4    0    0 -0.23813298848E+01  0.22413438759E+02 -0.16562388508E+02  0.27970443014E+02  0.51100000000E-03 0. -1.
        -11    1    4    4    0    0 -0.47985508924E+01 -0.93354663254E+00 -0.18635640686E+02  0.19266154365E+02  0.51100000000E-03 0.  1.
        -12    1    4    4    0    0 -0.36181699026E+01 -0.40711800669E+01  0.46019607664E+01  0.71304770862E+01  0.00000000000E+00 0.  1.
</event>
<event>
 8    1  0.2558382E-006  0.9118800E+02  0.7816164E-02  0.1184000E+00
        -11   -1    0    0    0    0  0.00000000000E+00  0.00000000000E+00  0.45593999997E+02  0.45594000000E+02  0.51100000000E-03 0. -1.
         11   -1    0    0    0    0 -0.00000000000E+00 -0.00000000000E+00 -0.45593999997E+02  0.45594000000E+02  0.51100000000E-03 0.  1.
         23    2    1    2    0    0  0.00000000000E+00 -0.35527136788E-14 -0.44408920985E-15  0.91188000000E+02  0.91188000000E+02 0.  0.
    9900012    2    3    3    0    0 -0.32567790195E+02  0.17169944457E+02 -0.55778740156E+00  0.54367094557E+02  0.40000023662E+02 0.  0.
        -12    1    3    3    0    0  0.32567790195E+02 -0.17169944457E+02  0.55778740156E+00  0.36820905443E+02  0.00000000000E+00 0.  1.
         11    1    4    4    0    0  0.28523108368E+01 -0.30370509057E+01  0.33601374918E+01  0.53525582237E+01  0.51100000000E-03 0. -1.
        -11    1    4    4    0    0 -0.92877840291E+01 -0.66194769015E+01 -0.10867648591E+01  0.11456939589E+02  0.51100000000E-03 0.  1.
         12    1    4    4    0    0 -0.26132317003E+02  0.26826472264E+02 -0.28311600342E+01  0.37557596745E+02  0.00000000000E+00 0. -1.
</event>
<event>
 8    1  0.2558382E-006  0.9118800E+02  0.7816164E-02  0.1184000E+00
        -11   -1    0    0    0    0  0.00000000000E+00  0.00000000000E+00  0.45593999997E+02  0.45594000000E+02  0.51100000000E-03 0.  1.
         11   -1    0    0    0    0 -0.00000000000E+00 -0.00000000000E+00 -0.45593999997E+02  0.45594000000E+02  0.51100000000E-03 0. -1.
         23    2    1    2    0    0  0.00000000000E+00  0.00000000000E+00  0.00000000000E+00  0.91188000000E+02  0.91188000000E+02 0.  0.
    9900012    2    3    3    0    0 -0.15276855565E+02 -0.15899808921E+02  0.29488904616E+02  0.54367058470E+02  0.39999941395E+02 0.  0.
         12    1    3    3    0    0  0.15276855565E+02  0.15899808921E+02 -0.29488904616E+02  0.36820941530E+02  0.00000000000E+00 0. -1.
         11    1    4    4    0    0  0.56826193692E+01 -0.90437863857E+01  0.68165809773E+01  0.12670754183E+02  0.51100000000E-03 0. -1.
        -11    1    4    4    0    0 -0.38816021745E+00 -0.90200656220E+01 -0.22536795273E+01  0.93054459244E+01  0.51100000000E-03 0.  1.
        -12    1    4    4    0    0 -0.20571314716E+02  0.21640430872E+01  0.24926003166E+02  0.32390858363E+02  0.00000000000E+00 0.  1.
</event>
<event>
 8    1  0.2558382E-006  0.9118800E+02  0.7816164E-02  0.1184000E+00
        -11   -1    0    0    0    0  0.00000000000E+00  0.00000000000E+00  0.45593999997E+02  0.45594000000E+02  0.51100000000E-03 0.  1.
         11   -1    0    0    0    0 -0.00000000000E+00 -0.00000000000E+00 -0.45593999997E+02  0.45594000000E+02  0.51100000000E-03 0. -1.
         23    2    1    2    0    0  0.00000000000E+00  0.00000000000E+00  0.00000000000E+00  0.91188000000E+02  0.91188000000E+02 0.  0.
    9900012    2    3    3    0    0  0.23793063768E+02 -0.19667344764E+02  0.20071503768E+02  0.54367087504E+02  0.40000007582E+02 0.  0.
         12    1    3    3    0    0 -0.23793063768E+02  0.19667344764E+02 -0.20071503768E+02  0.36820912496E+02  0.00000000000E+00 0. -1.
         11    1    4    4    0    0 -0.25719479089E+01  0.90235089858E-01  0.21573826569E+01  0.33581778700E+01  0.51100000000E-03 0. -1.
        -11    1    4    4    0    0  0.25016348643E+02  0.25864471824E+01  0.70026533669E+01  0.26106408464E+02  0.51100000000E-03 0.  1.
        -12    1    4    4    0    0  0.13486630345E+01 -0.22344027036E+02  0.10911467744E+02  0.24902501170E+02  0.00000000000E+00 0.  1.
</event>
<event>
 8    1  0.2558382E-006  0.9118800E+02  0.7816164E-02  0.1184000E+00
        -11   -1    0    0    0    0  0.00000000000E+00  0.00000000000E+00  0.45593999997E+02  0.45594000000E+02  0.51100000000E-03 0. -1.
         11   -1    0    0    0    0 -0.00000000000E+00 -0.00000000000E+00 -0.45593999997E+02  0.45594000000E+02  0.51100000000E-03 0.  1.
         23    2    1    2    0    0  0.00000000000E+00 -0.17763568394E-14  0.00000000000E+00  0.91188000000E+02  0.91188000000E+02 0.  0.
    9900012    2    3    3    0    0  0.26382581818E+01 -0.13829887838E+02  0.34022835222E+02  0.54367088545E+02  0.40000009956E+02 0.  0.
        -12    1    3    3    0    0 -0.26382581818E+01  0.13829887838E+02 -0.34022835222E+02  0.36820911455E+02  0.00000000000E+00 0.  1.
         11    1    4    4    0    0 -0.34909195567E+01 -0.82150151311E+00 -0.23681665718E+01  0.42976269336E+01  0.51100000000E-03 0. -1.
        -11    1    4    4    0    0 -0.10705368225E+02 -0.10081699212E+02  0.75091006578E+01  0.16511576569E+02  0.51100000000E-03 0.  1.
         12    1    4    4    0    0  0.16834545964E+02 -0.29266871129E+01  0.28881901136E+02  0.33557885042E+02  0.00000000000E+00 0. -1.
</event>
<event>
 8    1  0.2558382E-006  0.9118800E+02  0.7816164E-02  0.1184000E+00
        -11   -1    0    0    0    0  0.00000000000E+00  0.00000000000E+00  0.45593999997E+02  0.45594000000E+02  0.51100000000E-03 0.  1.
         11   -1    0    0    0    0 -0.00000000000E+00 -0.00000000000E+00 -0.45593999997E+02  0.45594000000E+02  0.51100000000E-03 0. -1.
         23    2    1    2    0    0 -0.88817841970E-15  0.71054273576E-14  0.17763568394E-14  0.91188000000E+02  0.91188000000E+02 0.  0.
    9900012    2    3    3    0    0 -0.58470550452E+01  0.35380561019E+02  0.83552272096E+01  0.54367055248E+02  0.39999934049E+02 0.  0.
         12    1    3    3    0    0  0.58470550452E+01 -0.35380561019E+02 -0.83552272096E+01  0.36820944752E+02  0.00000000000E+00 0. -1.
         11    1    4    4    0    0  0.10915488009E+02  0.25289576182E+00  0.33488688302E+01  0.11420453470E+02  0.51100000000E-03 0. -1.
        -11    1    4    4    0    0 -0.44410777422E+01  0.94832945384E+01 -0.64244003333E+01  0.12285315084E+02  0.51100000000E-03 0.  1.
        -12    1    4    4    0    0 -0.12321465312E+02  0.25644370719E+02  0.11430758713E+02  0.30661286694E+02  0.00000000000E+00 0.  1.
</event>
<event>
 8    1  0.2558382E-006  0.9118800E+02  0.7816164E-02  0.1184000E+00
        -11   -1    0    0    0    0  0.00000000000E+00  0.00000000000E+00  0.45593999997E+02  0.45594000000E+02  0.51100000000E-03 0.  1.
         11   -1    0    0    0    0 -0.00000000000E+00 -0.00000000000E+00 -0.45593999997E+02  0.45594000000E+02  0.51100000000E-03 0. -1.
         23    2    1    2    0    0  0.00000000000E+00 -0.17763568394E-14  0.00000000000E+00  0.91188000000E+02  0.91188000000E+02 0.  0.
    9900012    2    3    3    0    0  0.34140661690E+02  0.11009683908E+02 -0.83055379841E+01  0.54367083640E+02  0.39999998775E+02 0.  0.
        -12    1    3    3    0    0 -0.34140661690E+02 -0.11009683908E+02  0.83055379841E+01  0.36820916360E+02  0.00000000000E+00 0.  1.
         11    1    4    4    0    0  0.62149427528E+01 -0.61192273100E+00  0.67187413759E+01  0.91728648080E+01  0.51100000000E-03 0. -1.
        -11    1    4    4    0    0  0.14479659286E+01 -0.62350620423E+01  0.44433745409E+01  0.77920588790E+01  0.51100000000E-03 0.  1.
         12    1    4    4    0    0  0.26477753008E+02  0.17856668681E+02 -0.19467653901E+02  0.37402159953E+02  0.00000000000E+00 0. -1.
</event>
<event>
 8    1  0.2558382E-006  0.9118800E+02  0.7816164E-02  0.1184000E+00
        -11   -1    0    0    0    0  0.00000000000E+00  0.00000000000E+00  0.45593999997E+02  0.45594000000E+02  0.51100000000E-03 0.  1.
         11   -1    0    0    0    0 -0.00000000000E+00 -0.00000000000E+00 -0.45593999997E+02  0.45594000000E+02  0.51100000000E-03 0. -1.
         23    2    1    2    0    0  0.00000000000E+00  0.00000000000E+00  0.00000000000E+00  0.91188000000E+02  0.91188000000E+02 0.  0.
    9900012    2    3    3    0    0 -0.27063577626E+02 -0.17988062260E+01 -0.24901933636E+02  0.54367092399E+02  0.40000018741E+02 0.  0.
        -12    1    3    3    0    0  0.27063577626E+02  0.17988062260E+01  0.24901933636E+02  0.36820907601E+02  0.00000000000E+00 0.  1.
         11    1    4    4    0    0 -0.46906676952E+01 -0.49247706939E+01 -0.14798690018E+02  0.16286711034E+02  0.51100000000E-03 0. -1.
        -11    1    4    4    0    0 -0.10194831214E+02  0.11691470010E+02 -0.15797296815E+02  0.22140000935E+02  0.51100000000E-03 0.  1.
         12    1    4    4    0    0 -0.12178078717E+02 -0.85655055419E+01  0.56940531970E+01  0.15940380429E+02  0.00000000000E+00 0. -1.
</event>
<event>
 8    1  0.2558382E-006  0.9118800E+02  0.7816164E-02  0.1184000E+00
        -11   -1    0    0    0    0  0.00000000000E+00  0.00000000000E+00  0.45593999997E+02  0.45594000000E+02  0.51100000000E-03 0.  1.
         11   -1    0    0    0    0 -0.00000000000E+00 -0.00000000000E+00 -0.45593999997E+02  0.45594000000E+02  0.51100000000E-03 0. -1.
         23    2    1    2    0    0  0.35527136788E-14  0.00000000000E+00  0.35527136788E-14  0.91188000000E+02  0.91188000000E+02 0.  0.
    9900012    2    3    3    0    0  0.24677963951E+02 -0.17739178907E+02 -0.20787073692E+02  0.54367043932E+02  0.39999908253E+02 0.  0.
        -12    1    3    3    0    0 -0.24677963951E+02  0.17739178907E+02  0.20787073692E+02  0.36820956068E+02  0.00000000000E+00 0.  1.
         11    1    4    4    0    0  0.26394588878E+02 -0.14252336117E+02 -0.16719393303E+02  0.34341542184E+02  0.51100000000E-03 0. -1.
        -11    1    4    4    0    0 -0.16959252669E+01 -0.27397391462E+01  0.76412041598E+01  0.82927880940E+01  0.51100000000E-03 0.  1.
        -12    1    4    4    0    0 -0.20699660530E-01 -0.74710364318E+00 -0.11708884549E+02  0.11732713655E+02  0.00000000000E+00 0.  1.
</event>
<event>
 8    1  0.2558382E-006  0.9118800E+02  0.7816164E-02  0.1184000E+00
        -11   -1    0    0    0    0  0.00000000000E+00  0.00000000000E+00  0.45593999997E+02  0.45594000000E+02  0.51100000000E-03 0. -1.
         11   -1    0    0    0    0 -0.00000000000E+00 -0.00000000000E+00 -0.45593999997E+02  0.45594000000E+02  0.51100000000E-03 0.  1.
         23    2    1    2    0    0  0.00000000000E+00  0.00000000000E+00 -0.88817841970E-15  0.91188000000E+02  0.91188000000E+02 0.  0.
    9900012    2    3    3    0    0 -0.24063672115E+02  0.27568580684E+02  0.40855779243E+01  0.54367096921E+02  0.40000029050E+02 0.  0.
        -12    1    3    3    0    0  0.24063672115E+02 -0.27568580684E+02 -0.40855779243E+01  0.36820903079E+02  0.00000000000E+00 0.  1.
         11    1    4    4    0    0 -0.17278614732E+02 -0.27967430887E+01  0.80176252756E+01  0.19252392430E+02  0.51100000000E-03 0. -1.
        -11    1    4    4    0    0 -0.10386956929E+02  0.26257577771E+02  0.24359305333E+00  0.28238424221E+02  0.51100000000E-03 0.  1.
        -12    1    4    4    0    0  0.36018995459E+01  0.41077460021E+01 -0.41756404047E+01  0.68762802696E+01  0.00000000000E+00 0.  1.
</event>
<event>
 8    1  0.2558382E-006  0.9118800E+02  0.7816164E-02  0.1184000E+00
        -11   -1    0    0    0    0  0.00000000000E+00  0.00000000000E+00  0.45593999997E+02  0.45594000000E+02  0.51100000000E-03 0.  1.
         11   -1    0    0    0    0 -0.00000000000E+00 -0.00000000000E+00 -0.45593999997E+02  0.45594000000E+02  0.51100000000E-03 0. -1.
         23    2    1    2    0    0  0.71054273576E-14 -0.35527136788E-14  0.17763568394E-14  0.91188000000E+02  0.91188000000E+02 0.  0.
    9900012    2    3    3    0    0  0.27537497783E+02 -0.19362337288E+02 -0.14918651417E+02  0.54367081360E+02  0.39999993576E+02 0.  0.
        -12    1    3    3    0    0 -0.27537497783E+02  0.19362337288E+02  0.14918651417E+02  0.36820918640E+02  0.00000000000E+00 0.  1.
         11    1    4    4    0    0  0.11133217121E+02 -0.18870802451E+02  0.86290414830E+01  0.23548164807E+02  0.51100000000E-03 0. -1.
        -11    1    4    4    0    0  0.96447855899E+01 -0.32202677655E+01 -0.20567559888E+02  0.22943768949E+02  0.51100000000E-03 0.  1.
        -12    1    4    4    0    0  0.67594950723E+01  0.27287329278E+01 -0.29801330117E+01  0.78751476044E+01  0.00000000000E+00 0.  1.
</event>
<event>
 8    1  0.2558382E-006  0.9118800E+02  0.7816164E-02  0.1184000E+00
        -11   -1    0    0    0    0  0.00000000000E+00  0.00000000000E+00  0.45593999997E+02  0.45594000000E+02  0.51100000000E-03 0. -1.
         11   -1    0    0    0    0 -0.00000000000E+00 -0.00000000000E+00 -0.45593999997E+02  0.45594000000E+02  0.51100000000E-03 0.  1.
         23    2    1    2    0    0  0.00000000000E+00 -0.17763568394E-14  0.17763568394E-14  0.91188000000E+02  0.91188000000E+02 0.  0.
    9900012    2    3    3    0    0  0.33818149844E+02  0.96530962577E+01  0.10905514445E+02  0.54367085135E+02  0.40000002181E+02 0.  0.
         12    1    3    3    0    0 -0.33818149844E+02 -0.96530962577E+01 -0.10905514445E+02  0.36820914865E+02  0.00000000000E+00 0. -1.
         11    1    4    4    0    0  0.31251195657E+01 -0.24949123383E+01  0.19350471651E+01  0.44424506376E+01  0.51100000000E-03 0. -1.
        -11    1    4    4    0    0 -0.20281697915E+01  0.30094062582E+01 -0.10262274017E+02  0.10885047864E+02  0.51100000000E-03 0.  1.
        -12    1    4    4    0    0  0.32721200070E+02  0.91386023378E+01  0.19232741297E+02  0.39039586633E+02  0.00000000000E+00 0.  1.
</event>
<event>
 8    1  0.2558382E-006  0.9118800E+02  0.7816164E-02  0.1184000E+00
        -11   -1    0    0    0    0  0.00000000000E+00  0.00000000000E+00  0.45593999997E+02  0.45594000000E+02  0.51100000000E-03 0. -1.
         11   -1    0    0    0    0 -0.00000000000E+00 -0.00000000000E+00 -0.45593999997E+02  0.45594000000E+02  0.51100000000E-03 0.  1.
         23    2    1    2    0    0 -0.35527136788E-14  0.00000000000E+00  0.35527136788E-14  0.91188000000E+02  0.91188000000E+02 0.  0.
    9900012    2    3    3    0    0 -0.23794657986E+02  0.22657623222E+02  0.16620181035E+02  0.54367026950E+02  0.39999869537E+02 0.  0.
         12    1    3    3    0    0  0.23794657986E+02 -0.22657623222E+02 -0.16620181035E+02  0.36820973050E+02  0.00000000000E+00 0. -1.
         11    1    4    4    0    0  0.17049116062E+01 -0.18984607432E+01 -0.89753663134E+01  0.93310276765E+01  0.51100000000E-03 0. -1.
        -11    1    4    4    0    0 -0.24006539496E+02  0.19117474031E+02  0.18008121229E+02  0.35582076701E+02  0.51100000000E-03 0.  1.
         12    1    4    4    0    0 -0.14930300969E+01  0.54386099337E+01  0.75874261197E+01  0.94539225723E+01  0.00000000000E+00 0. -1.
</event>
<event>
 8    1  0.2558382E-006  0.9118800E+02  0.7816164E-02  0.1184000E+00
        -11   -1    0    0    0    0  0.00000000000E+00  0.00000000000E+00  0.45593999997E+02  0.45594000000E+02  0.51100000000E-03 0.  1.
         11   -1    0    0    0    0 -0.00000000000E+00 -0.00000000000E+00 -0.45593999997E+02  0.45594000000E+02  0.51100000000E-03 0. -1.
         23    2    1    2    0    0  0.17763568394E-14 -0.35527136788E-14  0.00000000000E+00  0.91188000000E+02  0.91188000000E+02 0.  0.
    9900012    2    3    3    0    0  0.68207509785E+01 -0.27003327093E+02 -0.24084780449E+02  0.54367096055E+02  0.40000027078E+02 0.  0.
        -12    1    3    3    0    0 -0.68207509785E+01  0.27003327093E+02  0.24084780449E+02  0.36820903945E+02  0.00000000000E+00 0.  1.
         11    1    4    4    0    0  0.36613952395E+01 -0.88567958108E+01 -0.11942068317E+02  0.15312140382E+02  0.51100000000E-03 0. -1.
        -11    1    4    4    0    0 -0.10696067439E+02 -0.13482007681E+02  0.35880713178E+01  0.17579665691E+02  0.51100000000E-03 0.  1.
        -12    1    4    4    0    0  0.13855423178E+02 -0.46645236015E+01 -0.15730783449E+02  0.21475289982E+02  0.00000000000E+00 0.  1.
</event>
<event>
 8    1  0.2558382E-006  0.9118800E+02  0.7816164E-02  0.1184000E+00
        -11   -1    0    0    0    0  0.00000000000E+00  0.00000000000E+00  0.45593999997E+02  0.45594000000E+02  0.51100000000E-03 0.  1.
         11   -1    0    0    0    0 -0.00000000000E+00 -0.00000000000E+00 -0.45593999997E+02  0.45594000000E+02  0.51100000000E-03 0. -1.
         23    2    1    2    0    0  0.44408920985E-15  0.00000000000E+00  0.00000000000E+00  0.91188000000E+02  0.91188000000E+02 0.  0.
    9900012    2    3    3    0    0  0.17176963103E+01  0.82407884143E+01  0.35845766601E+02  0.54367081252E+02  0.39999993329E+02 0.  0.
         12    1    3    3    0    0 -0.17176963103E+01 -0.82407884143E+01 -0.35845766601E+02  0.36820918748E+02  0.00000000000E+00 0. -1.
         11    1    4    4    0    0  0.40539681747E+01 -0.39346628450E+01  0.19358949755E+02  0.20166436610E+02  0.51100000000E-03 0. -1.
        -11    1    4    4    0    0 -0.36528069891E+01 -0.63955183083E+00  0.20402078030E+02  0.20736364524E+02  0.51100000000E-03 0.  1.
         12    1    4    4    0    0  0.13165351246E+01  0.12815003090E+02 -0.39152611851E+01  0.13464280118E+02  0.00000000000E+00 0. -1.
</event>
<event>
 8    1  0.2558382E-006  0.9118800E+02  0.7816164E-02  0.1184000E+00
        -11   -1    0    0    0    0  0.00000000000E+00  0.00000000000E+00  0.45593999997E+02  0.45594000000E+02  0.51100000000E-03 0.  1.
         11   -1    0    0    0    0 -0.00000000000E+00 -0.00000000000E+00 -0.45593999997E+02  0.45594000000E+02  0.51100000000E-03 0. -1.
         23    2    1    2    0    0  0.00000000000E+00  0.35527136788E-14  0.00000000000E+00  0.91188000000E+02  0.91188000000E+02 0.  0.
    9900012    2    3    3    0    0  0.24525109570E+02  0.27005582550E+02 -0.49999042796E+01  0.54367061241E+02  0.39999947711E+02 0.  0.
        -12    1    3    3    0    0 -0.24525109570E+02 -0.27005582550E+02  0.49999042796E+01  0.36820938759E+02  0.00000000000E+00 0.  1.
         11    1    4    4    0    0  0.12846163442E+02  0.35868369874E+02 -0.72236427793E+01  0.38778149619E+02  0.51100000000E-03 0. -1.
        -11    1    4    4    0    0  0.38693729802E+01 -0.58727786394E+01  0.49948151918E+00  0.70506069424E+01  0.51100000000E-03 0.  1.
         12    1    4    4    0    0  0.78095731470E+01 -0.29900086843E+01  0.17242569805E+01  0.85383046799E+01  0.00000000000E+00 0. -1.
</event>
<event>
 8    1  0.2558382E-006  0.9118800E+02  0.7816164E-02  0.1184000E+00
        -11   -1    0    0    0    0  0.00000000000E+00  0.00000000000E+00  0.45593999997E+02  0.45594000000E+02  0.51100000000E-03 0. -1.
         11   -1    0    0    0    0 -0.00000000000E+00 -0.00000000000E+00 -0.45593999997E+02  0.45594000000E+02  0.51100000000E-03 0.  1.
         23    2    1    2    0    0  0.17763568394E-14  0.71054273576E-14 -0.35527136788E-14  0.91188000000E+02  0.91188000000E+02 0.  0.
    9900012    2    3    3    0    0  0.13547802336E+02  0.27402539752E+02 -0.20526517766E+02  0.54367081155E+02  0.39999993108E+02 0.  0.
         12    1    3    3    0    0 -0.13547802336E+02 -0.27402539752E+02  0.20526517766E+02  0.36820918845E+02  0.00000000000E+00 0. -1.
         11    1    4    4    0    0  0.11114833251E+02  0.88193986561E+01 -0.45845523099E+01  0.14911050633E+02  0.51100000000E-03 0. -1.
        -11    1    4    4    0    0 -0.44437563753E+00 -0.86336839724E+01 -0.49558195510E+01  0.99648440191E+01  0.51100000000E-03 0.  1.
        -12    1    4    4    0    0  0.28773447229E+01  0.27216825069E+02 -0.10986145905E+02  0.29491186502E+02  0.00000000000E+00 0.  1.
</event>
<event>
 8    1  0.2558382E-006  0.9118800E+02  0.7816164E-02  0.1184000E+00
        -11   -1    0    0    0    0  0.00000000000E+00  0.00000000000E+00  0.45593999997E+02  0.45594000000E+02  0.51100000000E-03 0. -1.
         11   -1    0    0    0    0 -0.00000000000E+00 -0.00000000000E+00 -0.45593999997E+02  0.45594000000E+02  0.51100000000E-03 0.  1.
         23    2    1    2    0    0  0.00000000000E+00  0.88817841970E-15  0.00000000000E+00  0.91188000000E+02  0.91188000000E+02 0.  0.
    9900012    2    3    3    0    0  0.59046538164E+01  0.22414216034E+01  0.36275214973E+02  0.54367080283E+02  0.39999991120E+02 0.  0.
        -12    1    3    3    0    0 -0.59046538164E+01 -0.22414216034E+01 -0.36275214973E+02  0.36820919717E+02  0.00000000000E+00 0.  1.
         11    1    4    4    0    0  0.25855164116E+01 -0.46847501072E+01  0.22900531391E+02  0.23517357780E+02  0.51100000000E-03 0. -1.
        -11    1    4    4    0    0  0.10486494451E+02 -0.19368483472E+01 -0.28343915484E+01  0.11034116326E+02  0.51100000000E-03 0.  1.
         12    1    4    4    0    0 -0.71673570460E+01  0.88630200579E+01  0.16209075130E+02  0.19815606177E+02  0.00000000000E+00 0. -1.
</event>
<event>
 8    1  0.2558382E-006  0.9118800E+02  0.7816164E-02  0.1184000E+00
        -11   -1    0    0    0    0  0.00000000000E+00  0.00000000000E+00  0.45593999997E+02  0.45594000000E+02  0.51100000000E-03 0. -1.
         11   -1    0    0    0    0 -0.00000000000E+00 -0.00000000000E+00 -0.45593999997E+02  0.45594000000E+02  0.51100000000E-03 0.  1.
         23    2    1    2    0    0  0.00000000000E+00  0.00000000000E+00 -0.35527136788E-14  0.91188000000E+02  0.91188000000E+02 0.  0.
    9900012    2    3    3    0    0 -0.26128274141E+02  0.13213160159E+02  0.22327260353E+02  0.54367070274E+02  0.39999968304E+02 0.  0.
        -12    1    3    3    0    0  0.26128274141E+02 -0.13213160159E+02 -0.22327260353E+02  0.36820929726E+02  0.00000000000E+00 0.  1.
         11    1    4    4    0    0 -0.11926536234E+02 -0.50656051018E+01  0.16888894953E+02  0.21287024090E+02  0.51100000000E-03 0. -1.
        -11    1    4    4    0    0  0.12570002360E+01 -0.46388670469E+01 -0.41195066948E+00  0.48237786731E+01  0.51100000000E-03 0.  1.
        -12    1    4    4    0    0 -0.15458738143E+02  0.22917632308E+02  0.58503160697E+01  0.28256267512E+02  0.00000000000E+00 0.  1.
</event>
<event>
 8    1  0.2558382E-006  0.9118800E+02  0.7816164E-02  0.1184000E+00
        -11   -1    0    0    0    0  0.00000000000E+00  0.00000000000E+00  0.45593999997E+02  0.45594000000E+02  0.51100000000E-03 0. -1.
         11   -1    0    0    0    0 -0.00000000000E+00 -0.00000000000E+00 -0.45593999997E+02  0.45594000000E+02  0.51100000000E-03 0.  1.
         23    2    1    2    0    0 -0.35527136788E-14 -0.17763568394E-14  0.00000000000E+00  0.91188000000E+02  0.91188000000E+02 0.  0.
    9900012    2    3    3    0    0  0.24503151845E+02 -0.12215055163E+02 -0.24620695224E+02  0.54366937329E+02  0.39999665226E+02 0.  0.
         12    1    3    3    0    0 -0.24503151845E+02  0.12215055163E+02  0.24620695224E+02  0.36821062671E+02  0.00000000000E+00 0. -1.
         11    1    4    4    0    0  0.18414654032E+02 -0.21069854292E+02 -0.49819263708E+01  0.28422839999E+02  0.51100000000E-03 0. -1.
        -11    1    4    4    0    0  0.91980515344E+01  0.50987078132E+01 -0.17912017517E+02  0.20771166197E+02  0.51100000000E-03 0.  1.
         12    1    4    4    0    0 -0.31095537213E+01  0.37560913161E+01 -0.17267513356E+01  0.51729311319E+01  0.00000000000E+00 0. -1.
</event>
<event>
 8    1  0.2558382E-006  0.9118800E+02  0.7816164E-02  0.1184000E+00
        -11   -1    0    0    0    0  0.00000000000E+00  0.00000000000E+00  0.45593999997E+02  0.45594000000E+02  0.51100000000E-03 0. -1.
         11   -1    0    0    0    0 -0.00000000000E+00 -0.00000000000E+00 -0.45593999997E+02  0.45594000000E+02  0.51100000000E-03 0.  1.
         23    2    1    2    0    0  0.35527136788E-14  0.00000000000E+00  0.44408920985E-15  0.91188000000E+02  0.91188000000E+02 0.  0.
    9900012    2    3    3    0    0  0.19000159875E+02  0.31469045200E+02  0.21149968583E+01  0.54367080772E+02  0.39999992236E+02 0.  0.
         12    1    3    3    0    0 -0.19000159875E+02 -0.31469045200E+02 -0.21149968583E+01  0.36820919228E+02  0.00000000000E+00 0. -1.
         11    1    4    4    0    0  0.60800185930E+01 -0.18583129828E+01  0.42780429026E+01  0.76630023209E+01  0.51100000000E-03 0. -1.
        -11    1    4    4    0    0  0.89556502775E+00  0.34328461356E+02  0.51620459989E+00  0.34344020779E+02  0.51100000000E-03 0.  1.
        -12    1    4    4    0    0  0.12024576254E+02 -0.10011031732E+01 -0.26792506442E+01  0.12360057672E+02  0.00000000000E+00 0.  1.
</event>
<event>
 8    1  0.2558382E-006  0.9118800E+02  0.7816164E-02  0.1184000E+00
        -11   -1    0    0    0    0  0.00000000000E+00  0.00000000000E+00  0.45593999997E+02  0.45594000000E+02  0.51100000000E-03 0. -1.
         11   -1    0    0    0    0 -0.00000000000E+00 -0.00000000000E+00 -0.45593999997E+02  0.45594000000E+02  0.51100000000E-03 0.  1.
         23    2    1    2    0    0  0.35527136788E-14  0.00000000000E+00  0.71054273576E-14  0.91188000000E+02  0.91188000000E+02 0.  0.
    9900012    2    3    3    0    0  0.24680406017E+02 -0.20243397363E+02  0.18353841887E+02  0.54367067231E+02  0.39999961366E+02 0.  0.
        -12    1    3    3    0    0 -0.24680406017E+02  0.20243397363E+02 -0.18353841887E+02  0.36820932769E+02  0.00000000000E+00 0.  1.
         11    1    4    4    0    0 -0.43574409310E+00 -0.17264160735E+01 -0.19112246421E+01  0.26121189229E+01  0.51100000000E-03 0. -1.
        -11    1    4    4    0    0 -0.86481290766E+01  0.78690668912E+00  0.28357389614E+01  0.91351395381E+01  0.51100000000E-03 0.  1.
         12    1    4    4    0    0  0.33764279187E+02 -0.19303887979E+02  0.17429327568E+02  0.42619808770E+02  0.00000000000E+00 0. -1.
</event>
<event>
 8    1  0.2558382E-006  0.9118800E+02  0.7816164E-02  0.1184000E+00
        -11   -1    0    0    0    0  0.00000000000E+00  0.00000000000E+00  0.45593999997E+02  0.45594000000E+02  0.51100000000E-03 0.  1.
         11   -1    0    0    0    0 -0.00000000000E+00 -0.00000000000E+00 -0.45593999997E+02  0.45594000000E+02  0.51100000000E-03 0. -1.
         23    2    1    2    0    0  0.00000000000E+00 -0.17763568394E-14  0.88817841970E-15  0.91188000000E+02  0.91188000000E+02 0.  0.
    9900012    2    3    3    0    0  0.36488718816E+02 -0.44626149248E+01 -0.21068673169E+01  0.54367076292E+02  0.39999982023E+02 0.  0.
        -12    1    3    3    0    0 -0.36488718816E+02  0.44626149248E+01  0.21068673169E+01  0.36820923708E+02  0.00000000000E+00 0.  1.
         11    1    4    4    0    0  0.12007732563E+02  0.88918893259E+01 -0.57586321899E+01  0.16012906734E+02  0.51100000000E-03 0. -1.
        -11    1    4    4    0    0 -0.48986603763E+01  0.16470666118E+01  0.95942655885E+00  0.52564438063E+01  0.51100000000E-03 0.  1.
         12    1    4    4    0    0  0.29379646629E+02 -0.15001570862E+02  0.26923383142E+01  0.33097725752E+02  0.00000000000E+00 0. -1.
</event>
<event>
 8    1  0.2558382E-006  0.9118800E+02  0.7816164E-02  0.1184000E+00
        -11   -1    0    0    0    0  0.00000000000E+00  0.00000000000E+00  0.45593999997E+02  0.45594000000E+02  0.51100000000E-03 0.  1.
         11   -1    0    0    0    0 -0.00000000000E+00 -0.00000000000E+00 -0.45593999997E+02  0.45594000000E+02  0.51100000000E-03 0. -1.
         23    2    1    2    0    0 -0.35527136788E-14  0.00000000000E+00  0.00000000000E+00  0.91188000000E+02  0.91188000000E+02 0.  0.
    9900012    2    3    3    0    0  0.16491328493E+02 -0.24138080123E+02  0.22386793178E+02  0.54367091045E+02  0.40000015654E+02 0.  0.
         12    1    3    3    0    0 -0.16491328493E+02  0.24138080123E+02 -0.22386793178E+02  0.36820908955E+02  0.00000000000E+00 0. -1.
         11    1    4    4    0    0  0.82569077733E+00  0.55953789236E-01 -0.22350354020E+01  0.23833337147E+01  0.51100000000E-03 0. -1.
        -11    1    4    4    0    0 -0.74946849093E+01 -0.34158916188E+01  0.18530206257E+02  0.20278243554E+02  0.51100000000E-03 0.  1.
        -12    1    4    4    0    0  0.23160322625E+02 -0.20778142294E+02  0.60916223228E+01  0.31705513776E+02  0.00000000000E+00 0.  1.
</event>
<event>
 8    1  0.2558382E-006  0.9118800E+02  0.7816164E-02  0.1184000E+00
        -11   -1    0    0    0    0  0.00000000000E+00  0.00000000000E+00  0.45593999997E+02  0.45594000000E+02  0.51100000000E-03 0.  1.
         11   -1    0    0    0    0 -0.00000000000E+00 -0.00000000000E+00 -0.45593999997E+02  0.45594000000E+02  0.51100000000E-03 0. -1.
         23    2    1    2    0    0  0.00000000000E+00  0.00000000000E+00 -0.13322676296E-14  0.91188000000E+02  0.91188000000E+02 0.  0.
    9900012    2    3    3    0    0 -0.16425625685E+02  0.32716272953E+02 -0.39527740976E+01  0.54367080427E+02  0.39999991450E+02 0.  0.
        -12    1    3    3    0    0  0.16425625685E+02 -0.32716272953E+02  0.39527740976E+01  0.36820919573E+02  0.00000000000E+00 0.  1.
         11    1    4    4    0    0 -0.15235232722E+02  0.23507106984E+02 -0.13832410515E+00  0.28012774383E+02  0.51100000000E-03 0. -1.
        -11    1    4    4    0    0  0.56363623941E+01  0.18707233974E+01  0.85672770405E+01  0.10424318837E+02  0.51100000000E-03 0.  1.
         12    1    4    4    0    0 -0.68267553576E+01  0.73384425722E+01 -0.12381727033E+02  0.15929987207E+02  0.00000000000E+00 0. -1.
</event>
<event>
 8    1  0.2558382E-006  0.9118800E+02  0.7816164E-02  0.1184000E+00
        -11   -1    0    0    0    0  0.00000000000E+00  0.00000000000E+00  0.45593999997E+02  0.45594000000E+02  0.51100000000E-03 0.  1.
         11   -1    0    0    0    0 -0.00000000000E+00 -0.00000000000E+00 -0.45593999997E+02  0.45594000000E+02  0.51100000000E-03 0. -1.
         23    2    1    2    0    0  0.00000000000E+00  0.00000000000E+00  0.00000000000E+00  0.91188000000E+02  0.91188000000E+02 0.  0.
    9900012    2    3    3    0    0 -0.37689431440E+01  0.31751789368E+02 -0.18259218528E+02  0.54367080378E+02  0.39999991339E+02 0.  0.
        -12    1    3    3    0    0  0.37689431440E+01 -0.31751789368E+02  0.18259218528E+02  0.36820919622E+02  0.00000000000E+00 0.  1.
         11    1    4    4    0    0 -0.37477289339E+01  0.15723930759E+02  0.58536184236E+01  0.17191635164E+02  0.51100000000E-03 0. -1.
        -11    1    4    4    0    0 -0.73834864535E+01 -0.89222437566E+00 -0.14669311799E+02  0.16446903826E+02  0.51100000000E-03 0.  1.
        -12    1    4    4    0    0  0.73622722434E+01  0.16920082985E+02 -0.94435251523E+01  0.20728541389E+02  0.00000000000E+00 0.  1.
</event>
<event>
 8    1  0.2558382E-006  0.9118800E+02  0.7816164E-02  0.1184000E+00
        -11   -1    0    0    0    0  0.00000000000E+00  0.00000000000E+00  0.45593999997E+02  0.45594000000E+02  0.51100000000E-03 0. -1.
         11   -1    0    0    0    0 -0.00000000000E+00 -0.00000000000E+00 -0.45593999997E+02  0.45594000000E+02  0.51100000000E-03 0.  1.
         23    2    1    2    0    0  0.00000000000E+00 -0.66613381478E-15  0.17763568394E-14  0.91188000000E+02  0.91188000000E+02 0.  0.
    9900012    2    3    3    0    0 -0.33711653696E+02 -0.17182709318E+01  0.14708839545E+02  0.54367109045E+02  0.40000056691E+02 0.  0.
        -12    1    3    3    0    0  0.33711653696E+02  0.17182709318E+01 -0.14708839545E+02  0.36820890955E+02  0.00000000000E+00 0.  1.
         11    1    4    4    0    0 -0.68409996962E+01 -0.88494963957E+01  0.99225026067E+01  0.14952221291E+02  0.51100000000E-03 0. -1.
        -11    1    4    4    0    0 -0.63194946043E+01 -0.99005635259E+01  0.48912344632E+01  0.12723260000E+02  0.51100000000E-03 0.  1.
        -12    1    4    4    0    0 -0.20551159396E+02  0.17031788990E+02 -0.10489752480E+00  0.26691627755E+02  0.00000000000E+00 0.  1.
</event>
<event>
 8    1  0.2558382E-006  0.9118800E+02  0.7816164E-02  0.1184000E+00
        -11   -1    0    0    0    0  0.00000000000E+00  0.00000000000E+00  0.45593999997E+02  0.45594000000E+02  0.51100000000E-03 0.  1.
         11   -1    0    0    0    0 -0.00000000000E+00 -0.00000000000E+00 -0.45593999997E+02  0.45594000000E+02  0.51100000000E-03 0. -1.
         23    2    1    2    0    0  0.00000000000E+00  0.00000000000E+00 -0.22204460493E-15  0.91188000000E+02  0.91188000000E+02 0.  0.
    9900012    2    3    3    0    0  0.74312553522E+01  0.36052052290E+02  0.89762515817E+00  0.54367085273E+02  0.40000002496E+02 0.  0.
         12    1    3    3    0    0 -0.74312553522E+01 -0.36052052290E+02 -0.89762515817E+00  0.36820914727E+02  0.00000000000E+00 0. -1.
         11    1    4    4    0    0  0.74657110618E+01  0.65278658839E+01  0.64356503263E+00  0.99380104080E+01  0.51100000000E-03 0. -1.
        -11    1    4    4    0    0 -0.55153247964E+01 -0.46118844258E+01  0.60215660814E+01  0.93780351833E+01  0.51100000000E-03 0.  1.
        -12    1    4    4    0    0  0.54808690869E+01  0.34136070832E+02 -0.57675059558E+01  0.35051039681E+02  0.00000000000E+00 0.  1.
</event>
<event>
 8    1  0.2558382E-006  0.9118800E+02  0.7816164E-02  0.1184000E+00
        -11   -1    0    0    0    0  0.00000000000E+00  0.00000000000E+00  0.45593999997E+02  0.45594000000E+02  0.51100000000E-03 0.  1.
         11   -1    0    0    0    0 -0.00000000000E+00 -0.00000000000E+00 -0.45593999997E+02  0.45594000000E+02  0.51100000000E-03 0. -1.
         23    2    1    2    0    0  0.00000000000E+00 -0.88817841970E-15  0.00000000000E+00  0.91188000000E+02  0.91188000000E+02 0.  0.
    9900012    2    3    3    0    0 -0.30968901608E+02 -0.69990908941E+01 -0.18647331518E+02  0.54367039761E+02  0.39999898744E+02 0.  0.
        -12    1    3    3    0    0  0.30968901608E+02  0.69990908941E+01  0.18647331518E+02  0.36820960239E+02  0.00000000000E+00 0.  1.
         11    1    4    4    0    0  0.25609137919E+01 -0.17530801375E+01 -0.10912780758E+02  0.11345499264E+02  0.51100000000E-03 0. -1.
        -11    1    4    4    0    0 -0.31380693462E+01  0.18461492509E+01  0.74673433879E+01  0.83076449017E+01  0.51100000000E-03 0.  1.
        -12    1    4    4    0    0 -0.30391746054E+02 -0.70921600075E+01 -0.15201894148E+02  0.34713895596E+02  0.00000000000E+00 0.  1.
</event>
<event>
 8    1  0.2558382E-006  0.9118800E+02  0.7816164E-02  0.1184000E+00
        -11   -1    0    0    0    0  0.00000000000E+00  0.00000000000E+00  0.45593999997E+02  0.45594000000E+02  0.51100000000E-03 0.  1.
         11   -1    0    0    0    0 -0.00000000000E+00 -0.00000000000E+00 -0.45593999997E+02  0.45594000000E+02  0.51100000000E-03 0. -1.
         23    2    1    2    0    0 -0.88817841970E-15  0.00000000000E+00  0.00000000000E+00  0.91188000000E+02  0.91188000000E+02 0.  0.
    9900012    2    3    3    0    0  0.31288150256E+01 -0.30604771848E+02 -0.20232095554E+02  0.54367092436E+02  0.40000018827E+02 0.  0.
        -12    1    3    3    0    0 -0.31288150256E+01  0.30604771848E+02  0.20232095554E+02  0.36820907564E+02  0.00000000000E+00 0.  1.
         11    1    4    4    0    0 -0.20827323372E+01 -0.12205880859E+02 -0.76221861648E+01  0.14540255284E+02  0.51100000000E-03 0. -1.
        -11    1    4    4    0    0 -0.34196567101E+01  0.11855613250E-01  0.93159212342E+01  0.99237382711E+01  0.51100000000E-03 0.  1.
         12    1    4    4    0    0  0.86312040730E+01 -0.18410746602E+02 -0.21925830623E+02  0.29903098881E+02  0.00000000000E+00 0. -1.
</event>
<event>
 8    1  0.2558382E-006  0.9118800E+02  0.7816164E-02  0.1184000E+00
        -11   -1    0    0    0    0  0.00000000000E+00  0.00000000000E+00  0.45593999997E+02  0.45594000000E+02  0.51100000000E-03 0.  1.
         11   -1    0    0    0    0 -0.00000000000E+00 -0.00000000000E+00 -0.45593999997E+02  0.45594000000E+02  0.51100000000E-03 0. -1.
         23    2    1    2    0    0  0.35527136788E-14  0.88817841970E-15  0.00000000000E+00  0.91188000000E+02  0.91188000000E+02 0.  0.
    9900012    2    3    3    0    0  0.26680336538E+02  0.54510117486E+01 -0.24783602236E+02  0.54367070807E+02  0.39999969519E+02 0.  0.
        -12    1    3    3    0    0 -0.26680336538E+02 -0.54510117486E+01  0.24783602236E+02  0.36820929193E+02  0.00000000000E+00 0.  1.
         11    1    4    4    0    0  0.10820211392E+02 -0.49330130052E+01 -0.75701181802E+01  0.14096747192E+02  0.51100000000E-03 0. -1.
        -11    1    4    4    0    0 -0.31634785330E+01  0.73275344469E+01 -0.19304774066E+02  0.20889582560E+02  0.51100000000E-03 0.  1.
        -12    1    4    4    0    0  0.19023603679E+02  0.30564903070E+01  0.20912900110E+01  0.19380741055E+02  0.00000000000E+00 0.  1.
</event>
<event>
 8    1  0.2558382E-006  0.9118800E+02  0.7816164E-02  0.1184000E+00
        -11   -1    0    0    0    0  0.00000000000E+00  0.00000000000E+00  0.45593999997E+02  0.45594000000E+02  0.51100000000E-03 0. -1.
         11   -1    0    0    0    0 -0.00000000000E+00 -0.00000000000E+00 -0.45593999997E+02  0.45594000000E+02  0.51100000000E-03 0.  1.
         23    2    1    2    0    0  0.00000000000E+00  0.00000000000E+00  0.00000000000E+00  0.91188000000E+02  0.91188000000E+02 0.  0.
    9900012    2    3    3    0    0 -0.19113989935E+02 -0.44960579985E+01 -0.31148372884E+02  0.54367078202E+02  0.39999986377E+02 0.  0.
         12    1    3    3    0    0  0.19113989935E+02  0.44960579985E+01  0.31148372884E+02  0.36820921798E+02  0.00000000000E+00 0. -1.
         11    1    4    4    0    0 -0.12951641658E+02 -0.18121711948E+02 -0.89578847384E+01  0.24008022926E+02  0.51100000000E-03 0. -1.
        -11    1    4    4    0    0 -0.78600066755E+01  0.17679513889E+01 -0.12860853321E+02  0.15175865889E+02  0.51100000000E-03 0.  1.
         12    1    4    4    0    0  0.16976583988E+01  0.11857702560E+02 -0.93296348238E+01  0.15183189388E+02  0.00000000000E+00 0. -1.
</event>
<event>
 8    1  0.2558382E-006  0.9118800E+02  0.7816164E-02  0.1184000E+00
        -11   -1    0    0    0    0  0.00000000000E+00  0.00000000000E+00  0.45593999997E+02  0.45594000000E+02  0.51100000000E-03 0. -1.
         11   -1    0    0    0    0 -0.00000000000E+00 -0.00000000000E+00 -0.45593999997E+02  0.45594000000E+02  0.51100000000E-03 0.  1.
         23    2    1    2    0    0  0.00000000000E+00 -0.17763568394E-14  0.00000000000E+00  0.91188000000E+02  0.91188000000E+02 0.  0.
    9900012    2    3    3    0    0 -0.22661876025E+02 -0.13586864349E+02  0.25644009379E+02  0.54367099348E+02  0.40000034584E+02 0.  0.
        -12    1    3    3    0    0  0.22661876025E+02  0.13586864349E+02 -0.25644009379E+02  0.36820900652E+02  0.00000000000E+00 0.  1.
         11    1    4    4    0    0  0.17551861623E+01  0.38841503856E+00 -0.13767860038E+01  0.22643066638E+01  0.51100000000E-03 0. -1.
        -11    1    4    4    0    0 -0.82780764697E+01  0.11616310185E+02  0.95403610544E+01  0.17160527430E+02  0.51100000000E-03 0.  1.
         12    1    4    4    0    0 -0.16138985718E+02 -0.25591589572E+02  0.17480434328E+02  0.34942265255E+02  0.00000000000E+00 0. -1.
</event>
<event>
 8    1  0.2558382E-006  0.9118800E+02  0.7816164E-02  0.1184000E+00
        -11   -1    0    0    0    0  0.00000000000E+00  0.00000000000E+00  0.45593999997E+02  0.45594000000E+02  0.51100000000E-03 0.  1.
         11   -1    0    0    0    0 -0.00000000000E+00 -0.00000000000E+00 -0.45593999997E+02  0.45594000000E+02  0.51100000000E-03 0. -1.
         23    2    1    2    0    0  0.00000000000E+00  0.00000000000E+00  0.00000000000E+00  0.91188000000E+02  0.91188000000E+02 0.  0.
    9900012    2    3    3    0    0  0.24238870795E+02 -0.19522531480E+02  0.19675564151E+02  0.54367083152E+02  0.39999997662E+02 0.  0.
         12    1    3    3    0    0 -0.24238870795E+02  0.19522531480E+02 -0.19675564151E+02  0.36820916848E+02  0.00000000000E+00 0. -1.
         11    1    4    4    0    0  0.10795260779E+01 -0.40570626745E+01 -0.46598726529E+01  0.62721246400E+01  0.51100000000E-03 0. -1.
        -11    1    4    4    0    0  0.14332629484E+02 -0.16607360750E+02  0.30280557372E+02  0.37391721732E+02  0.51100000000E-03 0.  1.
        -12    1    4    4    0    0  0.88267152329E+01  0.11418919437E+01 -0.59451205682E+01  0.10703236781E+02  0.00000000000E+00 0.  1.
</event>
<event>
 8    1  0.2558382E-006  0.9118800E+02  0.7816164E-02  0.1184000E+00
        -11   -1    0    0    0    0  0.00000000000E+00  0.00000000000E+00  0.45593999997E+02  0.45594000000E+02  0.51100000000E-03 0. -1.
         11   -1    0    0    0    0 -0.00000000000E+00 -0.00000000000E+00 -0.45593999997E+02  0.45594000000E+02  0.51100000000E-03 0.  1.
         23    2    1    2    0    0  0.13322676296E-14  0.00000000000E+00  0.00000000000E+00  0.91188000000E+02  0.91188000000E+02 0.  0.
    9900012    2    3    3    0    0 -0.36844797716E+01 -0.20524612874E+02 -0.30347071684E+02  0.54367083599E+02  0.39999998681E+02 0.  0.
         12    1    3    3    0    0  0.36844797716E+01  0.20524612874E+02  0.30347071684E+02  0.36820916401E+02  0.00000000000E+00 0. -1.
         11    1    4    4    0    0 -0.11187781193E+02 -0.21523691335E+02 -0.20108592394E+02  0.31508589702E+02  0.51100000000E-03 0. -1.
        -11    1    4    4    0    0  0.99074356157E+01 -0.21157351774E+01 -0.14088989790E+02  0.17353191332E+02  0.51100000000E-03 0.  1.
         12    1    4    4    0    0 -0.24041341942E+01  0.31148136386E+01  0.38505104999E+01  0.55053025654E+01  0.00000000000E+00 0. -1.
</event>
<event>
 8    1  0.2558382E-006  0.9118800E+02  0.7816164E-02  0.1184000E+00
        -11   -1    0    0    0    0  0.00000000000E+00  0.00000000000E+00  0.45593999997E+02  0.45594000000E+02  0.51100000000E-03 0.  1.
         11   -1    0    0    0    0 -0.00000000000E+00 -0.00000000000E+00 -0.45593999997E+02  0.45594000000E+02  0.51100000000E-03 0. -1.
         23    2    1    2    0    0 -0.35527136788E-14  0.00000000000E+00  0.00000000000E+00  0.91188000000E+02  0.91188000000E+02 0.  0.
    9900012    2    3    3    0    0 -0.31770194368E+02  0.18377132823E+02  0.29521555243E+01  0.54367089050E+02  0.40000011108E+02 0.  0.
        -12    1    3    3    0    0  0.31770194368E+02 -0.18377132823E+02 -0.29521555243E+01  0.36820910950E+02  0.00000000000E+00 0.  1.
         11    1    4    4    0    0 -0.87449755786E+01  0.13239137995E+02 -0.12762231802E+02  0.20362316508E+02  0.51100000000E-03 0. -1.
        -11    1    4    4    0    0 -0.17358327291E+02 -0.38107841592E+01  0.40088185859E+01  0.18218238909E+02  0.51100000000E-03 0.  1.
        -12    1    4    4    0    0 -0.56668914981E+01  0.89487789867E+01  0.11705568741E+02  0.15786533633E+02  0.00000000000E+00 0.  1.
</event>
<event>
 8    1  0.2558382E-006  0.9118800E+02  0.7816164E-02  0.1184000E+00
        -11   -1    0    0    0    0  0.00000000000E+00  0.00000000000E+00  0.45593999997E+02  0.45594000000E+02  0.51100000000E-03 0. -1.
         11   -1    0    0    0    0 -0.00000000000E+00 -0.00000000000E+00 -0.45593999997E+02  0.45594000000E+02  0.51100000000E-03 0.  1.
         23    2    1    2    0    0  0.35527136788E-14 -0.10658141036E-13  0.00000000000E+00  0.91188000000E+02  0.91188000000E+02 0.  0.
    9900012    2    3    3    0    0 -0.21247456946E+02  0.28737974219E+02 -0.88574460963E+01  0.54367082844E+02  0.39999996959E+02 0.  0.
         12    1    3    3    0    0  0.21247456946E+02 -0.28737974219E+02  0.88574460963E+01  0.36820917156E+02  0.00000000000E+00 0. -1.
         11    1    4    4    0    0 -0.92952280271E+01  0.33114788380E+02 -0.24690906084E+01  0.34483139101E+02  0.51100000000E-03 0. -1.
        -11    1    4    4    0    0 -0.45699166006E+01 -0.84485001827E+01 -0.53440552154E+00  0.96201290322E+01  0.51100000000E-03 0.  1.
        -12    1    4    4    0    0 -0.73823123180E+01  0.40716860214E+01 -0.58539499664E+01  0.10263814711E+02  0.00000000000E+00 0.  1.
</event>
<event>
 8    1  0.2558382E-006  0.9118800E+02  0.7816164E-02  0.1184000E+00
        -11   -1    0    0    0    0  0.00000000000E+00  0.00000000000E+00  0.45593999997E+02  0.45594000000E+02  0.51100000000E-03 0. -1.
         11   -1    0    0    0    0 -0.00000000000E+00 -0.00000000000E+00 -0.45593999997E+02  0.45594000000E+02  0.51100000000E-03 0.  1.
         23    2    1    2    0    0  0.00000000000E+00  0.00000000000E+00  0.00000000000E+00  0.91188000000E+02  0.91188000000E+02 0.  0.
    9900012    2    3    3    0    0  0.61628125153E+01  0.23518962893E+02 -0.27652443928E+02  0.54367088430E+02  0.40000009695E+02 0.  0.
         12    1    3    3    0    0 -0.61628125153E+01 -0.23518962893E+02  0.27652443928E+02  0.36820911570E+02  0.00000000000E+00 0. -1.
         11    1    4    4    0    0 -0.16540039814E+01  0.28127718917E+00  0.53915532207E+01  0.56465646566E+01  0.51100000000E-03 0. -1.
        -11    1    4    4    0    0 -0.73728232044E+01  0.95817964345E+01 -0.22943307078E+02  0.25933852102E+02  0.51100000000E-03 0.  1.
        -12    1    4    4    0    0  0.15189639701E+02  0.13655889269E+02 -0.10100690071E+02  0.22786671672E+02  0.00000000000E+00 0.  1.
</event>
<event>
 8    1  0.2558382E-006  0.9118800E+02  0.7816164E-02  0.1184000E+00
        -11   -1    0    0    0    0  0.00000000000E+00  0.00000000000E+00  0.45593999997E+02  0.45594000000E+02  0.51100000000E-03 0. -1.
         11   -1    0    0    0    0 -0.00000000000E+00 -0.00000000000E+00 -0.45593999997E+02  0.45594000000E+02  0.51100000000E-03 0.  1.
         23    2    1    2    0    0 -0.17763568394E-14  0.00000000000E+00 -0.26645352591E-14  0.91188000000E+02  0.91188000000E+02 0.  0.
    9900012    2    3    3    0    0 -0.11405197046E+02  0.34773133017E+02 -0.40656385238E+01  0.54367099466E+02  0.40000034853E+02 0.  0.
         12    1    3    3    0    0  0.11405197046E+02 -0.34773133017E+02  0.40656385238E+01  0.36820900534E+02  0.00000000000E+00 0. -1.
         11    1    4    4    0    0 -0.34020639858E+00  0.67743155982E+01 -0.16040303426E+02  0.17415465152E+02  0.51100000000E-03 0. -1.
        -11    1    4    4    0    0 -0.52519527607E+00  0.32830911681E+01  0.93866230911E+01  0.99580726555E+01  0.51100000000E-03 0.  1.
        -12    1    4    4    0    0 -0.10539795372E+02  0.24715726251E+02  0.25880418109E+01  0.26993561659E+02  0.00000000000E+00 0.  1.
</event>
<event>
 8    1  0.2558382E-006  0.9118800E+02  0.7816164E-02  0.1184000E+00
        -11   -1    0    0    0    0  0.00000000000E+00  0.00000000000E+00  0.45593999997E+02  0.45594000000E+02  0.51100000000E-03 0. -1.
         11   -1    0    0    0    0 -0.00000000000E+00 -0.00000000000E+00 -0.45593999997E+02  0.45594000000E+02  0.51100000000E-03 0.  1.
         23    2    1    2    0    0 -0.17763568394E-14  0.11657341759E-14  0.00000000000E+00  0.91188000000E+02  0.91188000000E+02 0.  0.
    9900012    2    3    3    0    0  0.70643322971E+01 -0.35675935592E+00 -0.36135128066E+02  0.54367088164E+02  0.40000009088E+02 0.  0.
         12    1    3    3    0    0 -0.70643322971E+01  0.35675935592E+00  0.36135128066E+02  0.36820911836E+02  0.00000000000E+00 0. -1.
         11    1    4    4    0    0 -0.91749333996E+01  0.62194502491E+01  0.12360459878E+01  0.11152971543E+02  0.51100000000E-03 0. -1.
        -11    1    4    4    0    0  0.76952143251E+01  0.33705271066E+01 -0.17416361438E+02  0.19336660065E+02  0.51100000000E-03 0.  1.
         12    1    4    4    0    0  0.85440513716E+01 -0.99467367117E+01 -0.19954812616E+02  0.23877456556E+02  0.00000000000E+00 0. -1.
</event>
<event>
 8    1  0.2558382E-006  0.9118800E+02  0.7816164E-02  0.1184000E+00
        -11   -1    0    0    0    0  0.00000000000E+00  0.00000000000E+00  0.45593999997E+02  0.45594000000E+02  0.51100000000E-03 0. -1.
         11   -1    0    0    0    0 -0.00000000000E+00 -0.00000000000E+00 -0.45593999997E+02  0.45594000000E+02  0.51100000000E-03 0.  1.
         23    2    1    2    0    0 -0.35527136788E-14 -0.35527136788E-14  0.00000000000E+00  0.91188000000E+02  0.91188000000E+02 0.  0.
    9900012    2    3    3    0    0 -0.16089166735E+02 -0.21015957808E+02 -0.25597800597E+02  0.54367093381E+02  0.40000020981E+02 0.  0.
         12    1    3    3    0    0  0.16089166735E+02  0.21015957808E+02  0.25597800597E+02  0.36820906619E+02  0.00000000000E+00 0. -1.
         11    1    4    4    0    0 -0.71779762599E+01 -0.16128619928E+02  0.30040281295E+01  0.17907537777E+02  0.51100000000E-03 0. -1.
        -11    1    4    4    0    0  0.43673381144E+01  0.43434604480E+01 -0.10607196596E+02  0.12265884018E+02  0.51100000000E-03 0.  1.
         12    1    4    4    0    0 -0.13278528589E+02 -0.92307983284E+01 -0.17994632131E+02  0.24193671586E+02  0.00000000000E+00 0. -1.
</event>
<event>
 8    1  0.2558382E-006  0.9118800E+02  0.7816164E-02  0.1184000E+00
        -11   -1    0    0    0    0  0.00000000000E+00  0.00000000000E+00  0.45593999997E+02  0.45594000000E+02  0.51100000000E-03 0. -1.
         11   -1    0    0    0    0 -0.00000000000E+00 -0.00000000000E+00 -0.45593999997E+02  0.45594000000E+02  0.51100000000E-03 0.  1.
         23    2    1    2    0    0  0.00000000000E+00  0.00000000000E+00  0.71054273576E-14  0.91188000000E+02  0.91188000000E+02 0.  0.
    9900012    2    3    3    0    0  0.65195575360E+01  0.87147458566E+01 -0.35175680434E+02  0.54367083121E+02  0.39999997592E+02 0.  0.
         12    1    3    3    0    0 -0.65195575360E+01 -0.87147458566E+01  0.35175680434E+02  0.36820916879E+02  0.00000000000E+00 0. -1.
         11    1    4    4    0    0  0.77632624648E+01 -0.62596300636E+00 -0.10043877216E+01  0.78529528675E+01  0.51100000000E-03 0. -1.
        -11    1    4    4    0    0  0.38459588423E+00  0.18912462045E+02 -0.30971182981E+02  0.36291091332E+02  0.51100000000E-03 0.  1.
        -12    1    4    4    0    0 -0.16283008130E+01 -0.95717531816E+01 -0.32001097312E+01  0.10223038922E+02  0.00000000000E+00 0.  1.
</event>
<event>
 8    1  0.2558382E-006  0.9118800E+02  0.7816164E-02  0.1184000E+00
        -11   -1    0    0    0    0  0.00000000000E+00  0.00000000000E+00  0.45593999997E+02  0.45594000000E+02  0.51100000000E-03 0.  1.
         11   -1    0    0    0    0 -0.00000000000E+00 -0.00000000000E+00 -0.45593999997E+02  0.45594000000E+02  0.51100000000E-03 0. -1.
         23    2    1    2    0    0  0.00000000000E+00  0.00000000000E+00  0.00000000000E+00  0.91188000000E+02  0.91188000000E+02 0.  0.
    9900012    2    3    3    0    0  0.31478447388E+02  0.36225065402E+01 -0.18755352706E+02  0.54367102962E+02  0.40000042822E+02 0.  0.
        -12    1    3    3    0    0 -0.31478447388E+02 -0.36225065402E+01  0.18755352706E+02  0.36820897038E+02  0.00000000000E+00 0.  1.
         11    1    4    4    0    0  0.16762615909E+00  0.84208471189E+01 -0.54182907285E+01  0.10014820987E+02  0.51100000000E-03 0. -1.
        -11    1    4    4    0    0  0.19167162267E+02  0.29311140151E+01  0.59529897633E+01  0.20283235100E+02  0.51100000000E-03 0.  1.
        -12    1    4    4    0    0  0.12143658961E+02 -0.77294545937E+01 -0.19290051740E+02  0.24069046874E+02  0.00000000000E+00 0.  1.
</event>
<event>
 8    1  0.2558382E-006  0.9118800E+02  0.7816164E-02  0.1184000E+00
        -11   -1    0    0    0    0  0.00000000000E+00  0.00000000000E+00  0.45593999997E+02  0.45594000000E+02  0.51100000000E-03 0. -1.
         11   -1    0    0    0    0 -0.00000000000E+00 -0.00000000000E+00 -0.45593999997E+02  0.45594000000E+02  0.51100000000E-03 0.  1.
         23    2    1    2    0    0 -0.88817841970E-15  0.00000000000E+00  0.00000000000E+00  0.91188000000E+02  0.91188000000E+02 0.  0.
    9900012    2    3    3    0    0  0.59849493422E+01 -0.27298749219E+02 -0.23973711296E+02  0.54367079848E+02  0.39999990130E+02 0.  0.
         12    1    3    3    0    0 -0.59849493422E+01  0.27298749219E+02  0.23973711296E+02  0.36820920152E+02  0.00000000000E+00 0. -1.
         11    1    4    4    0    0  0.18095021177E+02 -0.27464332419E+02 -0.82229943026E+01  0.33901872842E+02  0.51100000000E-03 0. -1.
        -11    1    4    4    0    0 -0.87172067376E+01  0.22473944412E+01 -0.98139778693E+01  0.13317456099E+02  0.51100000000E-03 0.  1.
         12    1    4    4    0    0 -0.33928650971E+01 -0.20818112409E+01 -0.59367391238E+01  0.71477509074E+01  0.00000000000E+00 0. -1.
</event>
<event>
 8    1  0.2558382E-006  0.9118800E+02  0.7816164E-02  0.1184000E+00
        -11   -1    0    0    0    0  0.00000000000E+00  0.00000000000E+00  0.45593999997E+02  0.45594000000E+02  0.51100000000E-03 0.  1.
         11   -1    0    0    0    0 -0.00000000000E+00 -0.00000000000E+00 -0.45593999997E+02  0.45594000000E+02  0.51100000000E-03 0. -1.
         23    2    1    2    0    0  0.00000000000E+00  0.00000000000E+00 -0.13322676296E-14  0.91188000000E+02  0.91188000000E+02 0.  0.
    9900012    2    3    3    0    0 -0.29368520945E+02 -0.21973789098E+02 -0.32281875853E+01  0.54367100705E+02  0.40000037678E+02 0.  0.
        -12    1    3    3    0    0  0.29368520945E+02  0.21973789098E+02  0.32281875853E+01  0.36820899295E+02  0.00000000000E+00 0.  1.
         11    1    4    4    0    0 -0.46363821929E+01 -0.17689103520E+02 -0.16660799027E+02  0.24738283038E+02  0.51100000000E-03 0. -1.
        -11    1    4    4    0    0 -0.12984655397E+02 -0.14115436787E+01  0.24427823684E+01  0.13287622711E+02  0.51100000000E-03 0.  1.
         12    1    4    4    0    0 -0.11747483355E+02 -0.28731418992E+01  0.10989829074E+02  0.16341194957E+02  0.00000000000E+00 0. -1.
</event>
<event>
 8    1  0.2558382E-006  0.9118800E+02  0.7816164E-02  0.1184000E+00
        -11   -1    0    0    0    0  0.00000000000E+00  0.00000000000E+00  0.45593999997E+02  0.45594000000E+02  0.51100000000E-03 0. -1.
         11   -1    0    0    0    0 -0.00000000000E+00 -0.00000000000E+00 -0.45593999997E+02  0.45594000000E+02  0.51100000000E-03 0.  1.
         23    2    1    2    0    0  0.00000000000E+00 -0.35527136788E-14  0.00000000000E+00  0.91188000000E+02  0.91188000000E+02 0.  0.
    9900012    2    3    3    0    0  0.23328935538E+02  0.16125306301E+02  0.23484365278E+02  0.54367080007E+02  0.39999990491E+02 0.  0.
        -12    1    3    3    0    0 -0.23328935538E+02 -0.16125306301E+02 -0.23484365278E+02  0.36820919993E+02  0.00000000000E+00 0.  1.
         11    1    4    4    0    0 -0.55461741938E+01  0.11533610173E+02  0.23391605475E+01  0.13009837975E+02  0.51100000000E-03 0. -1.
        -11    1    4    4    0    0  0.13110254149E+01 -0.55395124188E+01  0.61613927075E+01  0.83885484938E+01  0.51100000000E-03 0.  1.
        -12    1    4    4    0    0  0.27564084317E+02  0.10131208547E+02  0.14983812023E+02  0.32968693538E+02  0.00000000000E+00 0.  1.
</event>
<event>
 8    1  0.2558382E-006  0.9118800E+02  0.7816164E-02  0.1184000E+00
        -11   -1    0    0    0    0  0.00000000000E+00  0.00000000000E+00  0.45593999997E+02  0.45594000000E+02  0.51100000000E-03 0.  1.
         11   -1    0    0    0    0 -0.00000000000E+00 -0.00000000000E+00 -0.45593999997E+02  0.45594000000E+02  0.51100000000E-03 0. -1.
         23    2    1    2    0    0  0.00000000000E+00  0.17763568394E-14 -0.71054273576E-14  0.91188000000E+02  0.91188000000E+02 0.  0.
    9900012    2    3    3    0    0  0.58539813033E+01  0.10037951192E+02 -0.34939238842E+02  0.54367082411E+02  0.39999995973E+02 0.  0.
        -12    1    3    3    0    0 -0.58539813033E+01 -0.10037951192E+02  0.34939238842E+02  0.36820917589E+02  0.00000000000E+00 0.  1.
         11    1    4    4    0    0  0.16633330874E+02 -0.27797018063E+01 -0.12939463457E+02  0.21256155648E+02  0.51100000000E-03 0. -1.
        -11    1    4    4    0    0 -0.11615235036E+02  0.30228743436E+00 -0.70283447768E+01  0.13579495322E+02  0.51100000000E-03 0.  1.
         12    1    4    4    0    0  0.83588546535E+00  0.12515365564E+02 -0.14971430608E+02  0.19531431442E+02  0.00000000000E+00 0. -1.
</event>
<event>
 8    1  0.2558382E-006  0.9118800E+02  0.7816164E-02  0.1184000E+00
        -11   -1    0    0    0    0  0.00000000000E+00  0.00000000000E+00  0.45593999997E+02  0.45594000000E+02  0.51100000000E-03 0. -1.
         11   -1    0    0    0    0 -0.00000000000E+00 -0.00000000000E+00 -0.45593999997E+02  0.45594000000E+02  0.51100000000E-03 0.  1.
         23    2    1    2    0    0  0.00000000000E+00  0.72164496601E-15  0.00000000000E+00  0.91188000000E+02  0.91188000000E+02 0.  0.
    9900012    2    3    3    0    0 -0.36577756983E+02 -0.45672799961E+00  0.41997946606E+01  0.54367093146E+02  0.40000020444E+02 0.  0.
        -12    1    3    3    0    0  0.36577756983E+02  0.45672799961E+00 -0.41997946606E+01  0.36820906854E+02  0.00000000000E+00 0.  1.
         11    1    4    4    0    0 -0.12111849246E+02  0.15522671100E+02 -0.36649477640E+01  0.20027033045E+02  0.51100000000E-03 0. -1.
        -11    1    4    4    0    0 -0.11553575814E+02 -0.16107212829E+02  0.13279384543E+01  0.19866827628E+02  0.51100000000E-03 0.  1.
         12    1    4    4    0    0 -0.12912331923E+02  0.12781372960E+00  0.65368039703E+01  0.14473232472E+02  0.00000000000E+00 0. -1.
</event>
<event>
 8    1  0.2558382E-006  0.9118800E+02  0.7816164E-02  0.1184000E+00
        -11   -1    0    0    0    0  0.00000000000E+00  0.00000000000E+00  0.45593999997E+02  0.45594000000E+02  0.51100000000E-03 0.  1.
         11   -1    0    0    0    0 -0.00000000000E+00 -0.00000000000E+00 -0.45593999997E+02  0.45594000000E+02  0.51100000000E-03 0. -1.
         23    2    1    2    0    0 -0.35527136788E-14  0.00000000000E+00  0.44408920985E-15  0.91188000000E+02  0.91188000000E+02 0.  0.
    9900012    2    3    3    0    0  0.31713730549E+02 -0.18374752008E+02 -0.35196422055E+01  0.54367080702E+02  0.39999992077E+02 0.  0.
        -12    1    3    3    0    0 -0.31713730549E+02  0.18374752008E+02  0.35196422055E+01  0.36820919298E+02  0.00000000000E+00 0.  1.
         11    1    4    4    0    0  0.37081666301E+01 -0.23439813900E+01 -0.57997939869E+01  0.72720257883E+01  0.51100000000E-03 0. -1.
        -11    1    4    4    0    0  0.30738844610E+01  0.49224764528E+01  0.11812750823E+02  0.13161330570E+02  0.51100000000E-03 0.  1.
        -12    1    4    4    0    0  0.24931679457E+02 -0.20953247071E+02 -0.95325990412E+01  0.33933724344E+02  0.00000000000E+00 0.  1.
</event>
<event>
 8    1  0.2558382E-006  0.9118800E+02  0.7816164E-02  0.1184000E+00
        -11   -1    0    0    0    0  0.00000000000E+00  0.00000000000E+00  0.45593999997E+02  0.45594000000E+02  0.51100000000E-03 0.  1.
         11   -1    0    0    0    0 -0.00000000000E+00 -0.00000000000E+00 -0.45593999997E+02  0.45594000000E+02  0.51100000000E-03 0. -1.
         23    2    1    2    0    0  0.35527136788E-14 -0.17763568394E-14  0.35527136788E-14  0.91188000000E+02  0.91188000000E+02 0.  0.
    9900012    2    3    3    0    0 -0.26091971517E+02 -0.14361763527E+02 -0.21650131338E+02  0.54367089960E+02  0.40000013182E+02 0.  0.
        -12    1    3    3    0    0  0.26091971517E+02  0.14361763527E+02  0.21650131338E+02  0.36820910040E+02  0.00000000000E+00 0.  1.
         11    1    4    4    0    0 -0.13573831085E+02 -0.73332622696E+01 -0.96059919027E+01  0.18174176915E+02  0.51100000000E-03 0. -1.
        -11    1    4    4    0    0  0.88217252360E+00 -0.75041424625E+01  0.86808019504E+01  0.11508549223E+02  0.51100000000E-03 0.  1.
         12    1    4    4    0    0 -0.13400312955E+02  0.47564120492E+00 -0.20724941385E+02  0.24684363822E+02  0.00000000000E+00 0. -1.
</event>
<event>
 8    1  0.2558382E-006  0.9118800E+02  0.7816164E-02  0.1184000E+00
        -11   -1    0    0    0    0  0.00000000000E+00  0.00000000000E+00  0.45593999997E+02  0.45594000000E+02  0.51100000000E-03 0.  1.
         11   -1    0    0    0    0 -0.00000000000E+00 -0.00000000000E+00 -0.45593999997E+02  0.45594000000E+02  0.51100000000E-03 0. -1.
         23    2    1    2    0    0  0.35527136788E-14  0.35527136788E-14  0.44408920985E-15  0.91188000000E+02  0.91188000000E+02 0.  0.
    9900012    2    3    3    0    0  0.29280934623E+02  0.22085499218E+02  0.32617106423E+01  0.54367066220E+02  0.39999959062E+02 0.  0.
         12    1    3    3    0    0 -0.29280934623E+02 -0.22085499218E+02 -0.32617106423E+01  0.36820933780E+02  0.00000000000E+00 0. -1.
         11    1    4    4    0    0 -0.26387983091E+01  0.16431682806E+01  0.78699604025E+01  0.84616508740E+01  0.51100000000E-03 0. -1.
        -11    1    4    4    0    0  0.29479443639E+02  0.85407816199E+01  0.40905976592E+01  0.30963131906E+02  0.51100000000E-03 0.  1.
        -12    1    4    4    0    0  0.24402892934E+01  0.11901549317E+02 -0.86988474195E+01  0.14942283440E+02  0.00000000000E+00 0.  1.
</event>
<event>
 8    1  0.2558382E-006  0.9118800E+02  0.7816164E-02  0.1184000E+00
        -11   -1    0    0    0    0  0.00000000000E+00  0.00000000000E+00  0.45593999997E+02  0.45594000000E+02  0.51100000000E-03 0.  1.
         11   -1    0    0    0    0 -0.00000000000E+00 -0.00000000000E+00 -0.45593999997E+02  0.45594000000E+02  0.51100000000E-03 0. -1.
         23    2    1    2    0    0 -0.35527136788E-14 -0.88817841970E-15  0.00000000000E+00  0.91188000000E+02  0.91188000000E+02 0.  0.
    9900012    2    3    3    0    0 -0.18900122547E+02  0.45060288841E+01 -0.31277172372E+02  0.54367076055E+02  0.39999981483E+02 0.  0.
        -12    1    3    3    0    0  0.18900122547E+02 -0.45060288841E+01  0.31277172372E+02  0.36820923945E+02  0.00000000000E+00 0.  1.
         11    1    4    4    0    0 -0.22087663089E+02  0.80983049086E+01 -0.26643210175E+02  0.35543045055E+02  0.51100000000E-03 0. -1.
        -11    1    4    4    0    0  0.22629480375E+01  0.68432361722E+01  0.36324901379E+00  0.72168390059E+01  0.51100000000E-03 0.  1.
         12    1    4    4    0    0  0.92459250464E+00 -0.10435512197E+02 -0.49972112101E+01  0.11607191994E+02  0.00000000000E+00 0. -1.
</event>
<event>
 8    1  0.2558382E-006  0.9118800E+02  0.7816164E-02  0.1184000E+00
        -11   -1    0    0    0    0  0.00000000000E+00  0.00000000000E+00  0.45593999997E+02  0.45594000000E+02  0.51100000000E-03 0. -1.
         11   -1    0    0    0    0 -0.00000000000E+00 -0.00000000000E+00 -0.45593999997E+02  0.45594000000E+02  0.51100000000E-03 0.  1.
         23    2    1    2    0    0  0.17763568394E-14  0.00000000000E+00 -0.71054273576E-14  0.91188000000E+02  0.91188000000E+02 0.  0.
    9900012    2    3    3    0    0 -0.81384672197E+01 -0.73890525729E+01 -0.35141814446E+02  0.54367083809E+02  0.39999999160E+02 0.  0.
         12    1    3    3    0    0  0.81384672197E+01  0.73890525729E+01  0.35141814446E+02  0.36820916191E+02  0.00000000000E+00 0. -1.
         11    1    4    4    0    0  0.54511433114E+00  0.36673365299E+01 -0.25761773644E+01  0.45147754021E+01  0.51100000000E-03 0. -1.
        -11    1    4    4    0    0 -0.12996574412E+02 -0.18536804919E+01 -0.36626196226E+02  0.38907908297E+02  0.51100000000E-03 0.  1.
         12    1    4    4    0    0  0.43129928609E+01 -0.92027086108E+01  0.40605591451E+01  0.10944400110E+02  0.00000000000E+00 0. -1.
</event>
<event>
 8    1  0.2558382E-006  0.9118800E+02  0.7816164E-02  0.1184000E+00
        -11   -1    0    0    0    0  0.00000000000E+00  0.00000000000E+00  0.45593999997E+02  0.45594000000E+02  0.51100000000E-03 0. -1.
         11   -1    0    0    0    0 -0.00000000000E+00 -0.00000000000E+00 -0.45593999997E+02  0.45594000000E+02  0.51100000000E-03 0.  1.
         23    2    1    2    0    0  0.00000000000E+00  0.00000000000E+00  0.00000000000E+00  0.91188000000E+02  0.91188000000E+02 0.  0.
    9900012    2    3    3    0    0  0.21971240279E+02  0.24826000808E+02  0.16022317042E+02  0.54367077158E+02  0.39999983997E+02 0.  0.
         12    1    3    3    0    0 -0.21971240279E+02 -0.24826000808E+02 -0.16022317042E+02  0.36820922842E+02  0.00000000000E+00 0. -1.
         11    1    4    4    0    0 -0.10621289447E+01 -0.56535380861E+01 -0.47808037307E+01  0.74797523595E+01  0.51100000000E-03 0. -1.
        -11    1    4    4    0    0  0.32690736505E+01  0.42181380973E+01  0.11579230346E+02  0.12749827733E+02  0.51100000000E-03 0.  1.
        -12    1    4    4    0    0  0.19764295574E+02  0.26261400797E+02  0.92238904262E+01  0.34137497066E+02  0.00000000000E+00 0.  1.
</event>
<event>
 8    1  0.2558382E-006  0.9118800E+02  0.7816164E-02  0.1184000E+00
        -11   -1    0    0    0    0  0.00000000000E+00  0.00000000000E+00  0.45593999997E+02  0.45594000000E+02  0.51100000000E-03 0.  1.
         11   -1    0    0    0    0 -0.00000000000E+00 -0.00000000000E+00 -0.45593999997E+02  0.45594000000E+02  0.51100000000E-03 0. -1.
         23    2    1    2    0    0  0.00000000000E+00  0.00000000000E+00  0.00000000000E+00  0.91188000000E+02  0.91188000000E+02 0.  0.
    9900012    2    3    3    0    0 -0.27868966490E+01  0.82001873161E+01 -0.35787799011E+02  0.54367130605E+02  0.40000105841E+02 0.  0.
        -12    1    3    3    0    0  0.27868966490E+01 -0.82001873161E+01  0.35787799011E+02  0.36820869395E+02  0.00000000000E+00 0.  1.
         11    1    4    4    0    0 -0.16607655626E+01 -0.10533929253E+02 -0.73850443666E+01  0.12971533769E+02  0.51100000000E-03 0. -1.
        -11    1    4    4    0    0  0.46504021835E+01 -0.24207581489E+01  0.32694732004E+00  0.52529234999E+01  0.51100000000E-03 0.  1.
         12    1    4    4    0    0 -0.57765332700E+01  0.21154874718E+02 -0.28729701964E+02  0.36142673336E+02  0.00000000000E+00 0. -1.
</event>
<event>
 8    1  0.2558382E-006  0.9118800E+02  0.7816164E-02  0.1184000E+00
        -11   -1    0    0    0    0  0.00000000000E+00  0.00000000000E+00  0.45593999997E+02  0.45594000000E+02  0.51100000000E-03 0. -1.
         11   -1    0    0    0    0 -0.00000000000E+00 -0.00000000000E+00 -0.45593999997E+02  0.45594000000E+02  0.51100000000E-03 0.  1.
         23    2    1    2    0    0  0.00000000000E+00  0.00000000000E+00  0.00000000000E+00  0.91188000000E+02  0.91188000000E+02 0.  0.
    9900012    2    3    3    0    0 -0.56285219288E+01 -0.34967298832E+02  0.10069130095E+02  0.54367087089E+02  0.40000006636E+02 0.  0.
        -12    1    3    3    0    0  0.56285219288E+01  0.34967298832E+02 -0.10069130095E+02  0.36820912911E+02  0.00000000000E+00 0.  1.
         11    1    4    4    0    0  0.69743621249E+01 -0.52350683607E+01  0.61641884815E+01  0.10679180104E+02  0.51100000000E-03 0. -1.
        -11    1    4    4    0    0  0.95693470567E+01 -0.92787216651E+01  0.61134962064E+00  0.13343194050E+02  0.51100000000E-03 0.  1.
         12    1    4    4    0    0 -0.22172231110E+02 -0.20453508807E+02  0.32935919927E+01  0.30344712935E+02  0.00000000000E+00 0. -1.
</event>
<event>
 8    1  0.2558382E-006  0.9118800E+02  0.7816164E-02  0.1184000E+00
        -11   -1    0    0    0    0  0.00000000000E+00  0.00000000000E+00  0.45593999997E+02  0.45594000000E+02  0.51100000000E-03 0.  1.
         11   -1    0    0    0    0 -0.00000000000E+00 -0.00000000000E+00 -0.45593999997E+02  0.45594000000E+02  0.51100000000E-03 0. -1.
         23    2    1    2    0    0 -0.71054273576E-14  0.00000000000E+00  0.33306690739E-15  0.91188000000E+02  0.91188000000E+02 0.  0.
    9900012    2    3    3    0    0  0.33485265296E+02 -0.15310007102E+02 -0.34755674606E+00  0.54367080605E+02  0.39999991855E+02 0.  0.
        -12    1    3    3    0    0 -0.33485265296E+02  0.15310007102E+02  0.34755674606E+00  0.36820919395E+02  0.00000000000E+00 0.  1.
         11    1    4    4    0    0 -0.41529052734E-01 -0.12804999272E+02  0.58667771375E+00  0.12818499211E+02  0.51100000000E-03 0. -1.
        -11    1    4    4    0    0  0.37400558251E+01  0.56368540003E+01  0.69290545695E+01  0.96836944440E+01  0.51100000000E-03 0.  1.
         12    1    4    4    0    0  0.29786738524E+02 -0.81418618295E+01 -0.78632890293E+01  0.31864886949E+02  0.00000000000E+00 0. -1.
</event>
<event>
 8    1  0.2558382E-006  0.9118800E+02  0.7816164E-02  0.1184000E+00
        -11   -1    0    0    0    0  0.00000000000E+00  0.00000000000E+00  0.45593999997E+02  0.45594000000E+02  0.51100000000E-03 0. -1.
         11   -1    0    0    0    0 -0.00000000000E+00 -0.00000000000E+00 -0.45593999997E+02  0.45594000000E+02  0.51100000000E-03 0.  1.
         23    2    1    2    0    0 -0.17763568394E-14  0.00000000000E+00  0.35527136788E-14  0.91188000000E+02  0.91188000000E+02 0.  0.
    9900012    2    3    3    0    0 -0.14078481325E+02 -0.15712167996E+02  0.30177869990E+02  0.54367086151E+02  0.40000004498E+02 0.  0.
        -12    1    3    3    0    0  0.14078481325E+02  0.15712167996E+02 -0.30177869990E+02  0.36820913849E+02  0.00000000000E+00 0.  1.
         11    1    4    4    0    0 -0.12180326924E+02 -0.38566883775E+01  0.26695507506E+02  0.29595346432E+02  0.51100000000E-03 0. -1.
        -11    1    4    4    0    0 -0.26524758630E+00 -0.99485880793E+01  0.12174333301E+02  0.15724476228E+02  0.51100000000E-03 0.  1.
        -12    1    4    4    0    0 -0.16329068145E+01 -0.19068915390E+01 -0.86919708159E+01  0.90472634908E+01  0.00000000000E+00 0.  1.
</event>
<event>
 8    1  0.2558382E-006  0.9118800E+02  0.7816164E-02  0.1184000E+00
        -11   -1    0    0    0    0  0.00000000000E+00  0.00000000000E+00  0.45593999997E+02  0.45594000000E+02  0.51100000000E-03 0.  1.
         11   -1    0    0    0    0 -0.00000000000E+00 -0.00000000000E+00 -0.45593999997E+02  0.45594000000E+02  0.51100000000E-03 0. -1.
         23    2    1    2    0    0 -0.35527136788E-14  0.00000000000E+00  0.35527136788E-14  0.91188000000E+02  0.91188000000E+02 0.  0.
    9900012    2    3    3    0    0 -0.17480104953E+02  0.11941242288E+02  0.30126948271E+02  0.54367077297E+02  0.39999984314E+02 0.  0.
         12    1    3    3    0    0  0.17480104953E+02 -0.11941242288E+02 -0.30126948271E+02  0.36820922703E+02  0.00000000000E+00 0. -1.
         11    1    4    4    0    0 -0.12729459904E+02 -0.10517247036E+01  0.17851758012E+02  0.21950638685E+02  0.51100000000E-03 0. -1.
        -11    1    4    4    0    0 -0.48594873246E+01 -0.31478920109E+01  0.14971015056E+02  0.16051639581E+02  0.51100000000E-03 0.  1.
         12    1    4    4    0    0  0.10884227637E+00  0.16140859003E+02 -0.26958247965E+01  0.16364799031E+02  0.00000000000E+00 0. -1.
</event>
<event>
 8    1  0.2558382E-006  0.9118800E+02  0.7816164E-02  0.1184000E+00
        -11   -1    0    0    0    0  0.00000000000E+00  0.00000000000E+00  0.45593999997E+02  0.45594000000E+02  0.51100000000E-03 0.  1.
         11   -1    0    0    0    0 -0.00000000000E+00 -0.00000000000E+00 -0.45593999997E+02  0.45594000000E+02  0.51100000000E-03 0. -1.
         23    2    1    2    0    0 -0.35527136788E-14  0.35527136788E-14  0.00000000000E+00  0.91188000000E+02  0.91188000000E+02 0.  0.
    9900012    2    3    3    0    0  0.21280427487E+02 -0.17181366065E+02  0.24652042567E+02  0.54367093756E+02  0.40000021836E+02 0.  0.
         12    1    3    3    0    0 -0.21280427487E+02  0.17181366065E+02 -0.24652042567E+02  0.36820906244E+02  0.00000000000E+00 0. -1.
         11    1    4    4    0    0  0.76880460965E+01  0.22652573350E+01  0.27126807992E+02  0.28286059388E+02  0.51100000000E-03 0. -1.
        -11    1    4    4    0    0  0.97290013747E+01 -0.64650525262E+01 -0.42300466120E+01  0.12423512648E+02  0.51100000000E-03 0.  1.
         12    1    4    4    0    0  0.38633800157E+01 -0.12981570874E+02  0.17552811872E+01  0.13657521720E+02  0.00000000000E+00 0. -1.
</event>
<event>
 8    1  0.2558382E-006  0.9118800E+02  0.7816164E-02  0.1184000E+00
        -11   -1    0    0    0    0  0.00000000000E+00  0.00000000000E+00  0.45593999997E+02  0.45594000000E+02  0.51100000000E-03 0.  1.
         11   -1    0    0    0    0 -0.00000000000E+00 -0.00000000000E+00 -0.45593999997E+02  0.45594000000E+02  0.51100000000E-03 0. -1.
         23    2    1    2    0    0  0.00000000000E+00  0.35527136788E-14  0.00000000000E+00  0.91188000000E+02  0.91188000000E+02 0.  0.
    9900012    2    3    3    0    0  0.43061142724E+01 -0.16699973042E+02 -0.32532251835E+02  0.54367093857E+02  0.40000022066E+02 0.  0.
        -12    1    3    3    0    0 -0.43061142724E+01  0.16699973042E+02  0.32532251835E+02  0.36820906143E+02  0.00000000000E+00 0.  1.
         11    1    4    4    0    0  0.30432421257E+01 -0.38765281530E+01 -0.14193234748E+02  0.15024536799E+02  0.51100000000E-03 0. -1.
        -11    1    4    4    0    0  0.58790031101E+01 -0.91948945627E+01  0.72409755563E+01  0.13097346711E+02  0.51100000000E-03 0.  1.
        -12    1    4    4    0    0 -0.46161309634E+01 -0.36285503260E+01 -0.25579992643E+02  0.26245210347E+02  0.00000000000E+00 0.  1.
</event>
<event>
 8    1  0.2558382E-006  0.9118800E+02  0.7816164E-02  0.1184000E+00
        -11   -1    0    0    0    0  0.00000000000E+00  0.00000000000E+00  0.45593999997E+02  0.45594000000E+02  0.51100000000E-03 0. -1.
         11   -1    0    0    0    0 -0.00000000000E+00 -0.00000000000E+00 -0.45593999997E+02  0.45594000000E+02  0.51100000000E-03 0.  1.
         23    2    1    2    0    0  0.17763568394E-14 -0.88817841970E-15  0.00000000000E+00  0.91188000000E+02  0.91188000000E+02 0.  0.
    9900012    2    3    3    0    0 -0.83453526616E+01 -0.46796420889E+01  0.35556066109E+02  0.54367111930E+02  0.40000063267E+02 0.  0.
        -12    1    3    3    0    0  0.83453526616E+01  0.46796420889E+01 -0.35556066109E+02  0.36820888070E+02  0.00000000000E+00 0.  1.
         11    1    4    4    0    0  0.88381693723E+01 -0.10731029408E+02  0.35844767293E+01  0.14356765085E+02  0.51100000000E-03 0. -1.
        -11    1    4    4    0    0 -0.11803352984E+02  0.30358618885E+01  0.65196301944E+01  0.13821764620E+02  0.51100000000E-03 0.  1.
         12    1    4    4    0    0 -0.53801690501E+01  0.30155254311E+01  0.25451959185E+02  0.26188582226E+02  0.00000000000E+00 0. -1.
</event>
<event>
 8    1  0.2558382E-006  0.9118800E+02  0.7816164E-02  0.1184000E+00
        -11   -1    0    0    0    0  0.00000000000E+00  0.00000000000E+00  0.45593999997E+02  0.45594000000E+02  0.51100000000E-03 0.  1.
         11   -1    0    0    0    0 -0.00000000000E+00 -0.00000000000E+00 -0.45593999997E+02  0.45594000000E+02  0.51100000000E-03 0. -1.
         23    2    1    2    0    0 -0.35527136788E-14  0.00000000000E+00  0.26645352591E-14  0.91188000000E+02  0.91188000000E+02 0.  0.
    9900012    2    3    3    0    0  0.23439310086E+02 -0.27490526773E+02 -0.71167973117E+01  0.54367093934E+02  0.40000022242E+02 0.  0.
        -12    1    3    3    0    0 -0.23439310086E+02  0.27490526773E+02  0.71167973117E+01  0.36820906066E+02  0.00000000000E+00 0.  1.
         11    1    4    4    0    0 -0.29037997227E+01 -0.53904618896E+01  0.95008047845E+01  0.11302850261E+02  0.51100000000E-03 0. -1.
        -11    1    4    4    0    0  0.11748303638E+02 -0.14187943416E+02  0.15111230179E+01  0.18482528771E+02  0.51100000000E-03 0.  1.
         12    1    4    4    0    0  0.14594806171E+02 -0.79121214675E+01 -0.18128725114E+02  0.24581714902E+02  0.00000000000E+00 0. -1.
</event>
<event>
 8    1  0.2558382E-006  0.9118800E+02  0.7816164E-02  0.1184000E+00
        -11   -1    0    0    0    0  0.00000000000E+00  0.00000000000E+00  0.45593999997E+02  0.45594000000E+02  0.51100000000E-03 0.  1.
         11   -1    0    0    0    0 -0.00000000000E+00 -0.00000000000E+00 -0.45593999997E+02  0.45594000000E+02  0.51100000000E-03 0. -1.
         23    2    1    2    0    0  0.00000000000E+00  0.00000000000E+00 -0.35527136788E-14  0.91188000000E+02  0.91188000000E+02 0.  0.
    9900012    2    3    3    0    0  0.23571542722E+02 -0.23204927430E+01  0.28191915230E+02  0.54366995163E+02  0.39999797073E+02 0.  0.
         12    1    3    3    0    0 -0.23571542722E+02  0.23204927430E+01 -0.28191915230E+02  0.36821004837E+02  0.00000000000E+00 0. -1.
         11    1    4    4    0    0 -0.17434878771E+01 -0.31839111493E+01 -0.42743618581E+00  0.36550981024E+01  0.51100000000E-03 0. -1.
        -11    1    4    4    0    0  0.18915978069E+02 -0.25923854161E+01 -0.20403086963E+01  0.19201498595E+02  0.51100000000E-03 0.  1.
        -12    1    4    4    0    0  0.63990525303E+01  0.34558038225E+01  0.30659660112E+02  0.31510398466E+02  0.00000000000E+00 0.  1.
</event>
<event>
 8    1  0.2558382E-006  0.9118800E+02  0.7816164E-02  0.1184000E+00
        -11   -1    0    0    0    0  0.00000000000E+00  0.00000000000E+00  0.45593999997E+02  0.45594000000E+02  0.51100000000E-03 0. -1.
         11   -1    0    0    0    0 -0.00000000000E+00 -0.00000000000E+00 -0.45593999997E+02  0.45594000000E+02  0.51100000000E-03 0.  1.
         23    2    1    2    0    0  0.88817841970E-15  0.00000000000E+00  0.00000000000E+00  0.91188000000E+02  0.91188000000E+02 0.  0.
    9900012    2    3    3    0    0 -0.67492902910E+01 -0.30118402735E+02 -0.20077563939E+02  0.54367086426E+02  0.40000005125E+02 0.  0.
         12    1    3    3    0    0  0.67492902910E+01  0.30118402735E+02  0.20077563939E+02  0.36820913574E+02  0.00000000000E+00 0. -1.
         11    1    4    4    0    0 -0.12883757227E+02 -0.12870024964E+02 -0.16404406820E+02  0.24509861408E+02  0.51100000000E-03 0.  1.
        -11    1    4    4    0    0 -0.80558811257E+01 -0.67494970017E+01  0.30891860336E+01  0.10954268625E+02  0.51100000000E-03 0. -1.
         12    1    4    4    0    0  0.14190348061E+02 -0.10498880769E+02 -0.67623431520E+01  0.18902956393E+02  0.00000000000E+00 0. -1.
</event>
<event>
 8    1  0.2558382E-006  0.9118800E+02  0.7816164E-02  0.1184000E+00
        -11   -1    0    0    0    0  0.00000000000E+00  0.00000000000E+00  0.45593999997E+02  0.45594000000E+02  0.51100000000E-03 0. -1.
         11   -1    0    0    0    0 -0.00000000000E+00 -0.00000000000E+00 -0.45593999997E+02  0.45594000000E+02  0.51100000000E-03 0.  1.
         23    2    1    2    0    0  0.00000000000E+00  0.00000000000E+00  0.35527136788E-14  0.91188000000E+02  0.91188000000E+02 0.  0.
    9900012    2    3    3    0    0 -0.31242396778E+02 -0.17626846031E+02  0.83058320378E+01  0.54367083345E+02  0.39999998103E+02 0.  0.
         12    1    3    3    0    0  0.31242396778E+02  0.17626846031E+02 -0.83058320378E+01  0.36820916655E+02  0.00000000000E+00 0. -1.
         11    1    4    4    0    0 -0.36670673067E+01 -0.78765174181E+00  0.13424289674E+01  0.39837035145E+01  0.51100000000E-03 0. -1.
        -11    1    4    4    0    0 -0.11610775750E+02 -0.88825989686E+01 -0.15759310858E+02  0.21495733459E+02  0.51100000000E-03 0.  1.
         12    1    4    4    0    0 -0.15964553721E+02 -0.79565953207E+01  0.22722713929E+02  0.28887646372E+02  0.00000000000E+00 0. -1.
</event>
<event>
 8    1  0.2558382E-006  0.9118800E+02  0.7816164E-02  0.1184000E+00
        -11   -1    0    0    0    0  0.00000000000E+00  0.00000000000E+00  0.45593999997E+02  0.45594000000E+02  0.51100000000E-03 0. -1.
         11   -1    0    0    0    0 -0.00000000000E+00 -0.00000000000E+00 -0.45593999997E+02  0.45594000000E+02  0.51100000000E-03 0.  1.
         23    2    1    2    0    0  0.17763568394E-14  0.00000000000E+00  0.35527136788E-14  0.91188000000E+02  0.91188000000E+02 0.  0.
    9900012    2    3    3    0    0 -0.12711726145E+02  0.29476368699E+02 -0.18037066844E+02  0.54367081032E+02  0.39999992829E+02 0.  0.
         12    1    3    3    0    0  0.12711726145E+02 -0.29476368699E+02  0.18037066844E+02  0.36820918968E+02  0.00000000000E+00 0. -1.
         11    1    4    4    0    0 -0.20830734578E+01 -0.61737664431E+01 -0.25665366377E+01  0.70029777736E+01  0.51100000000E-03 0. -1.
        -11    1    4    4    0    0 -0.94420098941E+01  0.78743188992E+01  0.45445492462E+01  0.13107607603E+02  0.51100000000E-03 0.  1.
        -12    1    4    4    0    0 -0.11866427931E+01  0.27775816243E+02 -0.20015079453E+02  0.34256495655E+02  0.00000000000E+00 0.  1.
</event>
<event>
 8    1  0.2558382E-006  0.9118800E+02  0.7816164E-02  0.1184000E+00
        -11   -1    0    0    0    0  0.00000000000E+00  0.00000000000E+00  0.45593999997E+02  0.45594000000E+02  0.51100000000E-03 0. -1.
         11   -1    0    0    0    0 -0.00000000000E+00 -0.00000000000E+00 -0.45593999997E+02  0.45594000000E+02  0.51100000000E-03 0.  1.
         23    2    1    2    0    0  0.35527136788E-14  0.00000000000E+00 -0.35527136788E-14  0.91188000000E+02  0.91188000000E+02 0.  0.
    9900012    2    3    3    0    0 -0.14964277812E+02  0.22982896174E+02  0.24569022621E+02  0.54367082039E+02  0.39999995124E+02 0.  0.
         12    1    3    3    0    0  0.14964277812E+02 -0.22982896174E+02 -0.24569022621E+02  0.36820917961E+02  0.00000000000E+00 0. -1.
         11    1    4    4    0    0  0.53442501746E+01  0.12632533832E+02  0.44067549840E+01  0.14406991730E+02  0.51100000000E-03 0. -1.
        -11    1    4    4    0    0 -0.16548266759E+02  0.15836354349E+02  0.50586053336E+01  0.23456869782E+02  0.51100000000E-03 0.  1.
         12    1    4    4    0    0 -0.37602612282E+01 -0.54859920072E+01  0.15103662303E+02  0.16503220527E+02  0.00000000000E+00 0. -1.
</event>
<event>
 8    1  0.2558382E-006  0.9118800E+02  0.7816164E-02  0.1184000E+00
        -11   -1    0    0    0    0  0.00000000000E+00  0.00000000000E+00  0.45593999997E+02  0.45594000000E+02  0.51100000000E-03 0. -1.
         11   -1    0    0    0    0 -0.00000000000E+00 -0.00000000000E+00 -0.45593999997E+02  0.45594000000E+02  0.51100000000E-03 0.  1.
         23    2    1    2    0    0  0.00000000000E+00 -0.17763568394E-14  0.00000000000E+00  0.91188000000E+02  0.91188000000E+02 0.  0.
    9900012    2    3    3    0    0 -0.66498951521E+01 -0.85914065660E+01  0.35181673926E+02  0.54367033791E+02  0.39999885133E+02 0.  0.
        -12    1    3    3    0    0  0.66498951521E+01  0.85914065660E+01 -0.35181673926E+02  0.36820966209E+02  0.00000000000E+00 0.  1.
         11    1    4    4    0    0 -0.37462028505E+01  0.14090230161E+02  0.87912306258E+01  0.17025109631E+02  0.51100000000E-03 0. -1.
        -11    1    4    4    0    0  0.45955265370E+01 -0.13987761851E+02  0.17156745260E+02  0.22608189974E+02  0.51100000000E-03 0.  1.
         12    1    4    4    0    0 -0.74992188386E+01 -0.86938748760E+01  0.92336980408E+01  0.14733734186E+02  0.00000000000E+00 0. -1.
</event>
<event>
 8    1  0.2558382E-006  0.9118800E+02  0.7816164E-02  0.1184000E+00
        -11   -1    0    0    0    0  0.00000000000E+00  0.00000000000E+00  0.45593999997E+02  0.45594000000E+02  0.51100000000E-03 0. -1.
         11   -1    0    0    0    0 -0.00000000000E+00 -0.00000000000E+00 -0.45593999997E+02  0.45594000000E+02  0.51100000000E-03 0.  1.
         23    2    1    2    0    0  0.35527136788E-14  0.35527136788E-14  0.17763568394E-14  0.91188000000E+02  0.91188000000E+02 0.  0.
    9900012    2    3    3    0    0 -0.25481084323E+02 -0.26495076112E+02  0.21226578351E+01  0.54367076699E+02  0.39999982951E+02 0.  0.
         12    1    3    3    0    0  0.25481084323E+02  0.26495076112E+02 -0.21226578351E+01  0.36820923301E+02  0.00000000000E+00 0. -1.
         11    1    4    4    0    0 -0.10346246501E+02  0.25023422643E+00  0.59283827887E+01  0.11926992772E+02  0.51100000000E-03 0. -1.
        -11    1    4    4    0    0 -0.79069581796E+01  0.11610112596E+00  0.88597350291E+01  0.11875536711E+02  0.51100000000E-03 0.  1.
         12    1    4    4    0    0 -0.72278796421E+01 -0.26861411464E+02 -0.12665459983E+02  0.30564547216E+02  0.00000000000E+00 0. -1.
</event>
<event>
 8    1  0.2558382E-006  0.9118800E+02  0.7816164E-02  0.1184000E+00
        -11   -1    0    0    0    0  0.00000000000E+00  0.00000000000E+00  0.45593999997E+02  0.45594000000E+02  0.51100000000E-03 0. -1.
         11   -1    0    0    0    0 -0.00000000000E+00 -0.00000000000E+00 -0.45593999997E+02  0.45594000000E+02  0.51100000000E-03 0.  1.
         23    2    1    2    0    0 -0.22204460493E-15  0.00000000000E+00  0.35527136788E-14  0.91188000000E+02  0.91188000000E+02 0.  0.
    9900012    2    3    3    0    0 -0.19383047266E+01  0.22657296570E+02  0.28959809941E+02  0.54367072460E+02  0.39999973288E+02 0.  0.
        -12    1    3    3    0    0  0.19383047266E+01 -0.22657296570E+02 -0.28959809941E+02  0.36820927540E+02  0.00000000000E+00 0.  1.
         11    1    4    4    0    0 -0.63218452307E+01  0.14645733412E+02  0.16253409724E+02  0.22773593529E+02  0.51100000000E-03 0. -1.
        -11    1    4    4    0    0  0.10331344225E+01 -0.57467744314E+01 -0.58406811766E+01  0.82587129729E+01  0.51100000000E-03 0.  1.
         12    1    4    4    0    0  0.33504060815E+01  0.13758337590E+02  0.18547081393E+02  0.23334765959E+02  0.00000000000E+00 0. -1.
</event>
<event>
 8    1  0.2558382E-006  0.9118800E+02  0.7816164E-02  0.1184000E+00
        -11   -1    0    0    0    0  0.00000000000E+00  0.00000000000E+00  0.45593999997E+02  0.45594000000E+02  0.51100000000E-03 0.  1.
         11   -1    0    0    0    0 -0.00000000000E+00 -0.00000000000E+00 -0.45593999997E+02  0.45594000000E+02  0.51100000000E-03 0. -1.
         23    2    1    2    0    0  0.00000000000E+00  0.00000000000E+00  0.00000000000E+00  0.91188000000E+02  0.91188000000E+02 0.  0.
    9900012    2    3    3    0    0 -0.29036001361E+02  0.17521833643E+02  0.14341403457E+02  0.54367083630E+02  0.39999998751E+02 0.  0.
        -12    1    3    3    0    0  0.29036001361E+02 -0.17521833643E+02 -0.14341403457E+02  0.36820916370E+02  0.00000000000E+00 0.  1.
         11    1    4    4    0    0 -0.10089866848E+02  0.24549885558E+02  0.15263507056E+02  0.30618245244E+02  0.51100000000E-03 0. -1.
        -11    1    4    4    0    0 -0.34205699818E+01  0.15504146323E+01  0.38519204782E+01  0.53797189670E+01  0.51100000000E-03 0.  1.
        -12    1    4    4    0    0 -0.15525564531E+02 -0.85784665476E+01 -0.47740240777E+01  0.18369119418E+02  0.00000000000E+00 0.  1.
</event>
<event>
 8    1  0.2558382E-006  0.9118800E+02  0.7816164E-02  0.1184000E+00
        -11   -1    0    0    0    0  0.00000000000E+00  0.00000000000E+00  0.45593999997E+02  0.45594000000E+02  0.51100000000E-03 0.  1.
         11   -1    0    0    0    0 -0.00000000000E+00 -0.00000000000E+00 -0.45593999997E+02  0.45594000000E+02  0.51100000000E-03 0. -1.
         23    2    1    2    0    0 -0.35527136788E-14  0.00000000000E+00  0.00000000000E+00  0.91188000000E+02  0.91188000000E+02 0.  0.
    9900012    2    3    3    0    0 -0.25989606649E+02 -0.98401880578E+01  0.24155555061E+02  0.54367084815E+02  0.40000001452E+02 0.  0.
         12    1    3    3    0    0  0.25989606649E+02  0.98401880578E+01 -0.24155555061E+02  0.36820915185E+02  0.00000000000E+00 0. -1.
         11    1    4    4    0    0  0.40391305021E+01  0.28263920793E+01  0.85171730112E+01  0.98410011565E+01  0.51100000000E-03 0. -1.
        -11    1    4    4    0    0 -0.10997387249E+02  0.83392412593E+00 -0.61273849532E+01  0.12616766716E+02  0.51100000000E-03 0.  1.
         12    1    4    4    0    0 -0.19031349903E+02 -0.13500504263E+02  0.21765767003E+02  0.31909316942E+02  0.00000000000E+00 0. -1.
</event>
<event>
 8    1  0.2558382E-006  0.9118800E+02  0.7816164E-02  0.1184000E+00
        -11   -1    0    0    0    0  0.00000000000E+00  0.00000000000E+00  0.45593999997E+02  0.45594000000E+02  0.51100000000E-03 0.  1.
         11   -1    0    0    0    0 -0.00000000000E+00 -0.00000000000E+00 -0.45593999997E+02  0.45594000000E+02  0.51100000000E-03 0. -1.
         23    2    1    2    0    0  0.35527136788E-14  0.88817841970E-15 -0.35527136788E-14  0.91188000000E+02  0.91188000000E+02 0.  0.
    9900012    2    3    3    0    0 -0.31078319621E+02 -0.53852108021E+01  0.18997714143E+02  0.54367141936E+02  0.40000131672E+02 0.  0.
         12    1    3    3    0    0  0.31078319621E+02  0.53852108021E+01 -0.18997714143E+02  0.36820858064E+02  0.00000000000E+00 0. -1.
         11    1    4    4    0    0 -0.31335319577E+02 -0.10689671745E+02  0.84613484509E+01  0.34172587741E+02  0.51100000000E-03 0. -1.
        -11    1    4    4    0    0  0.17140165218E+01 -0.72133519003E+00  0.13283981779E+02  0.13413513681E+02  0.51100000000E-03 0.  1.
        -12    1    4    4    0    0 -0.14570165658E+01  0.60257961329E+01 -0.27476160868E+01  0.67810405152E+01  0.00000000000E+00 0.  1.
</event>
<event>
 8    1  0.2558382E-006  0.9118800E+02  0.7816164E-02  0.1184000E+00
        -11   -1    0    0    0    0  0.00000000000E+00  0.00000000000E+00  0.45593999997E+02  0.45594000000E+02  0.51100000000E-03 0.  1.
         11   -1    0    0    0    0 -0.00000000000E+00 -0.00000000000E+00 -0.45593999997E+02  0.45594000000E+02  0.51100000000E-03 0. -1.
         23    2    1    2    0    0 -0.22204460493E-15 -0.71054273576E-14  0.00000000000E+00  0.91188000000E+02  0.91188000000E+02 0.  0.
    9900012    2    3    3    0    0  0.81244868854E+00  0.34879842589E+02 -0.11769337179E+02  0.54367071310E+02  0.39999970667E+02 0.  0.
        -12    1    3    3    0    0 -0.81244868854E+00 -0.34879842589E+02  0.11769337179E+02  0.36820928690E+02  0.00000000000E+00 0.  1.
         11    1    4    4    0    0  0.50713122656E+00  0.33814169102E+01  0.23226086397E+01  0.41334820135E+01  0.51100000000E-03 0. -1.
        -11    1    4    4    0    0 -0.11580491510E+02  0.99286701050E+01  0.79332413818E+01  0.17193678860E+02  0.51100000000E-03 0.  1.
         12    1    4    4    0    0  0.11885808972E+02  0.21569755574E+02 -0.22025187200E+02  0.33039910437E+02  0.00000000000E+00 0. -1.
</event>
<event>
 8    1  0.2558382E-006  0.9118800E+02  0.7816164E-02  0.1184000E+00
        -11   -1    0    0    0    0  0.00000000000E+00  0.00000000000E+00  0.45593999997E+02  0.45594000000E+02  0.51100000000E-03 0.  1.
         11   -1    0    0    0    0 -0.00000000000E+00 -0.00000000000E+00 -0.45593999997E+02  0.45594000000E+02  0.51100000000E-03 0. -1.
         23    2    1    2    0    0  0.17763568394E-14  0.00000000000E+00  0.71054273576E-14  0.91188000000E+02  0.91188000000E+02 0.  0.
    9900012    2    3    3    0    0 -0.11568561997E+02  0.41294267294E+01 -0.34711613028E+02  0.54367083786E+02  0.39999999107E+02 0.  0.
        -12    1    3    3    0    0  0.11568561997E+02 -0.41294267294E+01  0.34711613028E+02  0.36820916214E+02  0.00000000000E+00 0.  1.
         11    1    4    4    0    0  0.46975272689E+01 -0.10686105133E+01 -0.14577924106E+02  0.15353324148E+02  0.51100000000E-03 0. -1.
        -11    1    4    4    0    0 -0.78280737079E+01  0.11446565642E+02  0.24745083640E+01  0.14086369116E+02  0.51100000000E-03 0.  1.
        -12    1    4    4    0    0 -0.84380155580E+01 -0.62485283994E+01 -0.22608197286E+02  0.24927390522E+02  0.00000000000E+00 0.  1.
</event>
<event>
 8    1  0.2558382E-006  0.9118800E+02  0.7816164E-02  0.1184000E+00
        -11   -1    0    0    0    0  0.00000000000E+00  0.00000000000E+00  0.45593999997E+02  0.45594000000E+02  0.51100000000E-03 0.  1.
         11   -1    0    0    0    0 -0.00000000000E+00 -0.00000000000E+00 -0.45593999997E+02  0.45594000000E+02  0.51100000000E-03 0. -1.
         23    2    1    2    0    0 -0.88817841970E-15  0.00000000000E+00  0.35527136788E-14  0.91188000000E+02  0.91188000000E+02 0.  0.
    9900012    2    3    3    0    0 -0.63759799851E+01 -0.26406640805E+02 -0.24855886265E+02  0.54367097222E+02  0.40000029738E+02 0.  0.
        -12    1    3    3    0    0  0.63759799851E+01  0.26406640805E+02  0.24855886265E+02  0.36820902778E+02  0.00000000000E+00 0.  1.
         11    1    4    4    0    0  0.10415629870E+02 -0.15561753517E+02 -0.10691218606E+02  0.21562830836E+02  0.51100000000E-03 0. -1.
        -11    1    4    4    0    0 -0.12020133577E+02 -0.19099180678E+01 -0.18205238499E+02  0.21898906532E+02  0.51100000000E-03 0.  1.
        -12    1    4    4    0    0 -0.47714762778E+01 -0.89349692203E+01  0.40405708406E+01  0.10905359854E+02  0.00000000000E+00 0.  1.
</event>
<event>
 8    1  0.2558382E-006  0.9118800E+02  0.7816164E-02  0.1184000E+00
        -11   -1    0    0    0    0  0.00000000000E+00  0.00000000000E+00  0.45593999997E+02  0.45594000000E+02  0.51100000000E-03 0. -1.
         11   -1    0    0    0    0 -0.00000000000E+00 -0.00000000000E+00 -0.45593999997E+02  0.45594000000E+02  0.51100000000E-03 0.  1.
         23    2    1    2    0    0  0.00000000000E+00 -0.71054273576E-14 -0.17763568394E-14  0.91188000000E+02  0.91188000000E+02 0.  0.
    9900012    2    3    3    0    0 -0.14442661009E+02 -0.31010317132E+02 -0.13621677096E+02  0.54367077788E+02  0.39999985434E+02 0.  0.
         12    1    3    3    0    0  0.14442661009E+02  0.31010317132E+02  0.13621677096E+02  0.36820922212E+02  0.00000000000E+00 0. -1.
         11    1    4    4    0    0 -0.13532860693E+02 -0.16292866034E+02 -0.87489782683E+01  0.22915942554E+02  0.51100000000E-03 0. -1.
        -11    1    4    4    0    0  0.37878426769E+01 -0.22038336421E+02 -0.38904381084E+01  0.22697390451E+02  0.51100000000E-03 0.  1.
         12    1    4    4    0    0 -0.46976429930E+01  0.73208853234E+01 -0.98226071915E+00  0.87537447831E+01  0.00000000000E+00 0. -1.
</event>
<event>
 8    1  0.2558382E-006  0.9118800E+02  0.7816164E-02  0.1184000E+00
        -11   -1    0    0    0    0  0.00000000000E+00  0.00000000000E+00  0.45593999997E+02  0.45594000000E+02  0.51100000000E-03 0.  1.
         11   -1    0    0    0    0 -0.00000000000E+00 -0.00000000000E+00 -0.45593999997E+02  0.45594000000E+02  0.51100000000E-03 0. -1.
         23    2    1    2    0    0 -0.88817841970E-15  0.00000000000E+00  0.00000000000E+00  0.91188000000E+02  0.91188000000E+02 0.  0.
    9900012    2    3    3    0    0  0.52402437775E+01  0.13799771374E+02 -0.33732572503E+02  0.54367078060E+02  0.39999986053E+02 0.  0.
        -12    1    3    3    0    0 -0.52402437775E+01 -0.13799771374E+02  0.33732572503E+02  0.36820921940E+02  0.00000000000E+00 0.  1.
         11    1    4    4    0    0  0.49029446617E+01  0.86351787472E+01 -0.35772438718E+02  0.37125093271E+02  0.51100000000E-03 0. -1.
        -11    1    4    4    0    0  0.99784904688E+00  0.85244757007E+01 -0.46245862324E+01  0.97493172466E+01  0.51100000000E-03 0.  1.
        -12    1    4    4    0    0 -0.66054993109E+00 -0.33598830740E+01  0.66644524465E+01  0.74926675420E+01  0.00000000000E+00 0.  1.
</event>
<event>
 8    1  0.2558382E-006  0.9118800E+02  0.7816164E-02  0.1184000E+00
        -11   -1    0    0    0    0  0.00000000000E+00  0.00000000000E+00  0.45593999997E+02  0.45594000000E+02  0.51100000000E-03 0. -1.
         11   -1    0    0    0    0 -0.00000000000E+00 -0.00000000000E+00 -0.45593999997E+02  0.45594000000E+02  0.51100000000E-03 0.  1.
         23    2    1    2    0    0  0.88817841970E-15  0.17763568394E-14  0.71054273576E-14  0.91188000000E+02  0.91188000000E+02 0.  0.
    9900012    2    3    3    0    0 -0.77639007788E+01 -0.12461134151E+02 -0.33767167138E+02  0.54367087516E+02  0.40000007609E+02 0.  0.
         12    1    3    3    0    0  0.77639007788E+01  0.12461134151E+02  0.33767167138E+02  0.36820912484E+02  0.00000000000E+00 0. -1.
         11    1    4    4    0    0 -0.75184938053E+01 -0.73545561841E+01  0.31333297033E+01  0.10974288180E+02  0.51100000000E-03 0. -1.
        -11    1    4    4    0    0  0.33958098081E+01 -0.13297661833E+02 -0.24647412757E+02  0.28210889570E+02  0.51100000000E-03 0.  1.
        -12    1    4    4    0    0 -0.36412167816E+01  0.81910838656E+01 -0.12253084084E+02  0.15181909765E+02  0.00000000000E+00 0.  1.
</event>
<event>
 8    1  0.2558382E-006  0.9118800E+02  0.7816164E-02  0.1184000E+00
        -11   -1    0    0    0    0  0.00000000000E+00  0.00000000000E+00  0.45593999997E+02  0.45594000000E+02  0.51100000000E-03 0.  1.
         11   -1    0    0    0    0 -0.00000000000E+00 -0.00000000000E+00 -0.45593999997E+02  0.45594000000E+02  0.51100000000E-03 0. -1.
         23    2    1    2    0    0  0.00000000000E+00  0.71054273576E-14  0.00000000000E+00  0.91188000000E+02  0.91188000000E+02 0.  0.
    9900012    2    3    3    0    0  0.15271706773E+02  0.16689557407E+02  0.29051923270E+02  0.54367073886E+02  0.39999976538E+02 0.  0.
         12    1    3    3    0    0 -0.15271706773E+02 -0.16689557407E+02 -0.29051923270E+02  0.36820926114E+02  0.00000000000E+00 0. -1.
         11    1    4    4    0    0 -0.19234974069E+01  0.21155960699E+01  0.10618932341E+01  0.30501158186E+01  0.51100000000E-03 0. -1.
        -11    1    4    4    0    0  0.16285243823E+02 -0.93740299544E+01  0.15094901611E+02  0.24102648379E+02  0.51100000000E-03 0.  1.
        -12    1    4    4    0    0  0.90996035652E+00  0.23947991291E+02  0.12895128425E+02  0.27214309689E+02  0.00000000000E+00 0.  1.
</event>
<event>
 8    1  0.2558382E-006  0.9118800E+02  0.7816164E-02  0.1184000E+00
        -11   -1    0    0    0    0  0.00000000000E+00  0.00000000000E+00  0.45593999997E+02  0.45594000000E+02  0.51100000000E-03 0. -1.
         11   -1    0    0    0    0 -0.00000000000E+00 -0.00000000000E+00 -0.45593999997E+02  0.45594000000E+02  0.51100000000E-03 0.  1.
         23    2    1    2    0    0 -0.17763568394E-14  0.00000000000E+00  0.00000000000E+00  0.91188000000E+02  0.91188000000E+02 0.  0.
    9900012    2    3    3    0    0 -0.13898340810E+02  0.19061386921E+02 -0.28271469969E+02  0.54367131422E+02  0.40000107702E+02 0.  0.
         12    1    3    3    0    0  0.13898340810E+02 -0.19061386921E+02  0.28271469969E+02  0.36820868578E+02  0.00000000000E+00 0. -1.
         11    1    4    4    0    0 -0.70140379561E+01  0.10892763669E+02  0.12862138396E+01  0.13019346185E+02  0.51100000000E-03 0. -1.
        -11    1    4    4    0    0  0.48208634741E+01  0.85063436099E+01 -0.27846786027E+02  0.29513422345E+02  0.51100000000E-03 0.  1.
        -12    1    4    4    0    0 -0.11705166329E+02 -0.33772035745E+00 -0.17108977819E+01  0.11834362891E+02  0.00000000000E+00 0.  1.
</event>
<event>
 8    1  0.2558382E-006  0.9118800E+02  0.7816164E-02  0.1184000E+00
        -11   -1    0    0    0    0  0.00000000000E+00  0.00000000000E+00  0.45593999997E+02  0.45594000000E+02  0.51100000000E-03 0. -1.
         11   -1    0    0    0    0 -0.00000000000E+00 -0.00000000000E+00 -0.45593999997E+02  0.45594000000E+02  0.51100000000E-03 0.  1.
         23    2    1    2    0    0 -0.88817841970E-15 -0.71054273576E-14 -0.17763568394E-14  0.91188000000E+02  0.91188000000E+02 0.  0.
    9900012    2    3    3    0    0  0.68870261818E+01  0.35542008769E+02  0.67167006898E+01  0.54367087665E+02  0.40000007951E+02 0.  0.
        -12    1    3    3    0    0 -0.68870261818E+01 -0.35542008769E+02 -0.67167006898E+01  0.36820912335E+02  0.00000000000E+00 0.  1.
         11    1    4    4    0    0 -0.55337847069E-01  0.32671506361E+02 -0.70363706353E+00  0.32679129358E+02  0.51100000000E-03 0. -1.
        -11    1    4    4    0    0  0.31714548903E+00  0.10367053804E+02  0.36049125201E+01  0.10980518220E+02  0.51100000000E-03 0.  1.
        -12    1    4    4    0    0  0.66252185398E+01 -0.74965513957E+01  0.38154252332E+01  0.10707440088E+02  0.00000000000E+00 0.  1.
</event>
<event>
 8    1  0.2558382E-006  0.9118800E+02  0.7816164E-02  0.1184000E+00
        -11   -1    0    0    0    0  0.00000000000E+00  0.00000000000E+00  0.45593999997E+02  0.45594000000E+02  0.51100000000E-03 0.  1.
         11   -1    0    0    0    0 -0.00000000000E+00 -0.00000000000E+00 -0.45593999997E+02  0.45594000000E+02  0.51100000000E-03 0. -1.
         23    2    1    2    0    0  0.44408920985E-15 -0.17763568394E-14  0.00000000000E+00  0.91188000000E+02  0.91188000000E+02 0.  0.
    9900012    2    3    3    0    0  0.26035897733E+01  0.13525990609E+02 -0.34147443495E+02  0.54367095626E+02  0.40000026098E+02 0.  0.
        -12    1    3    3    0    0 -0.26035897733E+01 -0.13525990609E+02  0.34147443495E+02  0.36820904374E+02  0.00000000000E+00 0.  1.
         11    1    4    4    0    0 -0.43472102910E+01 -0.82417066839E+01 -0.26072985835E+02  0.27687985788E+02  0.51100000000E-03 0. -1.
        -11    1    4    4    0    0  0.32172974366E+01  0.10353982625E+02  0.19742687962E+01  0.11020603275E+02  0.51100000000E-03 0.  1.
         12    1    4    4    0    0  0.37335026277E+01  0.11413714668E+02 -0.10048726457E+02  0.15658506563E+02  0.00000000000E+00 0. -1.
</event>
<event>
 8    1  0.2558382E-006  0.9118800E+02  0.7816164E-02  0.1184000E+00
        -11   -1    0    0    0    0  0.00000000000E+00  0.00000000000E+00  0.45593999997E+02  0.45594000000E+02  0.51100000000E-03 0. -1.
         11   -1    0    0    0    0 -0.00000000000E+00 -0.00000000000E+00 -0.45593999997E+02  0.45594000000E+02  0.51100000000E-03 0.  1.
         23    2    1    2    0    0 -0.71054273576E-14  0.00000000000E+00  0.17763568394E-14  0.91188000000E+02  0.91188000000E+02 0.  0.
    9900012    2    3    3    0    0 -0.33398086122E+02  0.13946884251E+02  0.67702605935E+01  0.54367025468E+02  0.39999866160E+02 0.  0.
        -12    1    3    3    0    0  0.33398086122E+02 -0.13946884251E+02 -0.67702605935E+01  0.36820974532E+02  0.00000000000E+00 0.  1.
         11    1    4    4    0    0 -0.46506673224E+01  0.16206053191E+01 -0.41673077100E+01  0.64514744017E+01  0.51100000000E-03 0. -1.
        -11    1    4    4    0    0 -0.16642062733E+02  0.14146272498E+02 -0.97169474586E+01  0.23905947916E+02  0.51100000000E-03 0.  1.
        -12    1    4    4    0    0 -0.12105356067E+02 -0.18199935660E+01  0.20654515762E+02  0.24009603151E+02  0.00000000000E+00 0.  1.
</event>
<event>
 8    1  0.2558382E-006  0.9118800E+02  0.7816164E-02  0.1184000E+00
        -11   -1    0    0    0    0  0.00000000000E+00  0.00000000000E+00  0.45593999997E+02  0.45594000000E+02  0.51100000000E-03 0.  1.
         11   -1    0    0    0    0 -0.00000000000E+00 -0.00000000000E+00 -0.45593999997E+02  0.45594000000E+02  0.51100000000E-03 0. -1.
         23    2    1    2    0    0  0.00000000000E+00  0.00000000000E+00  0.71054273576E-14  0.91188000000E+02  0.91188000000E+02 0.  0.
    9900012    2    3    3    0    0 -0.10089367646E+02  0.97559288281E+01 -0.34041268721E+02  0.54367062167E+02  0.39999949821E+02 0.  0.
        -12    1    3    3    0    0  0.10089367646E+02 -0.97559288281E+01  0.34041268721E+02  0.36820937833E+02  0.00000000000E+00 0.  1.
         11    1    4    4    0    0 -0.12827017738E+02  0.88556114568E+01 -0.54903367270E+01  0.16525678078E+02  0.51100000000E-03 0. -1.
        -11    1    4    4    0    0 -0.60078697129E+01  0.75167516600E+01 -0.30695574835E+01  0.10100407784E+02  0.51100000000E-03 0.  1.
        -12    1    4    4    0    0  0.87455198045E+01 -0.66164342886E+01 -0.25481374510E+02  0.27740976304E+02  0.00000000000E+00 0.  1.
</event>
<event>
 8    1  0.2558382E-006  0.9118800E+02  0.7816164E-02  0.1184000E+00
        -11   -1    0    0    0    0  0.00000000000E+00  0.00000000000E+00  0.45593999997E+02  0.45594000000E+02  0.51100000000E-03 0.  1.
         11   -1    0    0    0    0 -0.00000000000E+00 -0.00000000000E+00 -0.45593999997E+02  0.45594000000E+02  0.51100000000E-03 0. -1.
         23    2    1    2    0    0  0.00000000000E+00  0.00000000000E+00 -0.17763568394E-14  0.91188000000E+02  0.91188000000E+02 0.  0.
    9900012    2    3    3    0    0  0.58353741775E+01 -0.33557227463E+02 -0.13987111160E+02  0.54367103958E+02  0.40000045092E+02 0.  0.
         12    1    3    3    0    0 -0.58353741775E+01  0.33557227463E+02  0.13987111160E+02  0.36820896042E+02  0.00000000000E+00 0. -1.
         11    1    4    4    0    0 -0.16356512410E+01  0.14859586570E+01  0.39363608610E+01  0.45142402685E+01  0.51100000000E-03 0. -1.
        -11    1    4    4    0    0 -0.49792041550E+01 -0.19773070187E+02  0.35644357737E+01  0.20699564761E+02  0.51100000000E-03 0.  1.
        -12    1    4    4    0    0  0.12450229573E+02 -0.15270115932E+02 -0.21487907794E+02  0.29153298928E+02  0.00000000000E+00 0.  1.
</event>
<event>
 8    1  0.2558382E-006  0.9118800E+02  0.7816164E-02  0.1184000E+00
        -11   -1    0    0    0    0  0.00000000000E+00  0.00000000000E+00  0.45593999997E+02  0.45594000000E+02  0.51100000000E-03 0.  1.
         11   -1    0    0    0    0 -0.00000000000E+00 -0.00000000000E+00 -0.45593999997E+02  0.45594000000E+02  0.51100000000E-03 0. -1.
         23    2    1    2    0    0  0.00000000000E+00 -0.35527136788E-14  0.00000000000E+00  0.91188000000E+02  0.91188000000E+02 0.  0.
    9900012    2    3    3    0    0  0.21167337297E+02  0.25432380289E+02 -0.16152927968E+02  0.54367092660E+02  0.40000019336E+02 0.  0.
         12    1    3    3    0    0 -0.21167337297E+02 -0.25432380289E+02  0.16152927968E+02  0.36820907340E+02  0.00000000000E+00 0. -1.
         11    1    4    4    0    0  0.15005447395E+02  0.23370095108E+01  0.48583457306E+01  0.15944547296E+02  0.51100000000E-03 0. -1.
        -11    1    4    4    0    0  0.10264252497E+02  0.41884825490E+01 -0.13970004326E+02  0.17834216734E+02  0.51100000000E-03 0.  1.
        -12    1    4    4    0    0 -0.41023625948E+01  0.18906888229E+02 -0.70412693728E+01  0.20588328630E+02  0.00000000000E+00 0.  1.
</event>
<event>
 8    1  0.2558382E-006  0.9118800E+02  0.7816164E-02  0.1184000E+00
        -11   -1    0    0    0    0  0.00000000000E+00  0.00000000000E+00  0.45593999997E+02  0.45594000000E+02  0.51100000000E-03 0.  1.
         11   -1    0    0    0    0 -0.00000000000E+00 -0.00000000000E+00 -0.45593999997E+02  0.45594000000E+02  0.51100000000E-03 0. -1.
         23    2    1    2    0    0  0.00000000000E+00  0.00000000000E+00  0.88817841970E-15  0.91188000000E+02  0.91188000000E+02 0.  0.
    9900012    2    3    3    0    0  0.90387450266E+01  0.35185757040E+02  0.60038415995E+01  0.54367047757E+02  0.39999916972E+02 0.  0.
         12    1    3    3    0    0 -0.90387450266E+01 -0.35185757040E+02 -0.60038415995E+01  0.36820952243E+02  0.00000000000E+00 0. -1.
         11    1    4    4    0    0 -0.22838565822E+01  0.82279628923E+01 -0.11131401979E+02  0.14029379335E+02  0.51100000000E-03 0. -1.
        -11    1    4    4    0    0  0.97440139698E+01  0.28616293031E+02  0.20313295812E+02  0.36420708698E+02  0.51100000000E-03 0.  1.
        -12    1    4    4    0    0  0.15785876390E+01 -0.16584988835E+01 -0.31780522331E+01  0.39169597237E+01  0.00000000000E+00 0.  1.
</event>
<event>
 8    1  0.2558382E-006  0.9118800E+02  0.7816164E-02  0.1184000E+00
        -11   -1    0    0    0    0  0.00000000000E+00  0.00000000000E+00  0.45593999997E+02  0.45594000000E+02  0.51100000000E-03 0. -1.
         11   -1    0    0    0    0 -0.00000000000E+00 -0.00000000000E+00 -0.45593999997E+02  0.45594000000E+02  0.51100000000E-03 0.  1.
         23    2    1    2    0    0  0.00000000000E+00  0.00000000000E+00  0.88817841970E-15  0.91188000000E+02  0.91188000000E+02 0.  0.
    9900012    2    3    3    0    0 -0.24612838115E+02 -0.27270191599E+02 -0.25146172146E+01  0.54367103084E+02  0.40000043102E+02 0.  0.
         12    1    3    3    0    0  0.24612838115E+02  0.27270191599E+02  0.25146172146E+01  0.36820896916E+02  0.00000000000E+00 0. -1.
         11    1    4    4    0    0  0.29518991060E+01 -0.18967391885E+02 -0.10102590815E+02  0.21691887993E+02  0.51100000000E-03 0. -1.
        -11    1    4    4    0    0 -0.17660048837E+02  0.16536673574E+01  0.41318246307E+01  0.18212191403E+02  0.51100000000E-03 0.  1.
         12    1    4    4    0    0 -0.99046883840E+01 -0.99564670713E+01  0.34561489694E+01  0.14463023689E+02  0.00000000000E+00 0. -1.
</event>
<event>
 8    1  0.2558382E-006  0.9118800E+02  0.7816164E-02  0.1184000E+00
        -11   -1    0    0    0    0  0.00000000000E+00  0.00000000000E+00  0.45593999997E+02  0.45594000000E+02  0.51100000000E-03 0.  1.
         11   -1    0    0    0    0 -0.00000000000E+00 -0.00000000000E+00 -0.45593999997E+02  0.45594000000E+02  0.51100000000E-03 0. -1.
         23    2    1    2    0    0  0.00000000000E+00 -0.88817841970E-15 -0.71054273576E-14  0.91188000000E+02  0.91188000000E+02 0.  0.
    9900012    2    3    3    0    0  0.16074007362E+02  0.54088899069E+01 -0.32682559799E+02  0.54367088581E+02  0.40000010039E+02 0.  0.
        -12    1    3    3    0    0 -0.16074007362E+02 -0.54088899069E+01  0.32682559799E+02  0.36820911419E+02  0.00000000000E+00 0.  1.
         11    1    4    4    0    0  0.15476984719E+02 -0.11933774717E+02 -0.87886608686E+01  0.21428779599E+02  0.51100000000E-03 0. -1.
        -11    1    4    4    0    0 -0.73124543514E-02  0.48803198949E+01  0.11003987565E+01  0.50028445341E+01  0.51100000000E-03 0.  1.
         12    1    4    4    0    0  0.60433509736E+00  0.12462344729E+02 -0.24994297687E+02  0.27935464448E+02  0.00000000000E+00 0. -1.
</event>
<event>
 8    1  0.2558382E-006  0.9118800E+02  0.7816164E-02  0.1184000E+00
        -11   -1    0    0    0    0  0.00000000000E+00  0.00000000000E+00  0.45593999997E+02  0.45594000000E+02  0.51100000000E-03 0. -1.
         11   -1    0    0    0    0 -0.00000000000E+00 -0.00000000000E+00 -0.45593999997E+02  0.45594000000E+02  0.51100000000E-03 0.  1.
         23    2    1    2    0    0  0.35527136788E-14 -0.88817841970E-15  0.35527136788E-14  0.91188000000E+02  0.91188000000E+02 0.  0.
    9900012    2    3    3    0    0 -0.30443372973E+02 -0.61506928525E+01 -0.19777448778E+02  0.54367116514E+02  0.40000073717E+02 0.  0.
         12    1    3    3    0    0  0.30443372973E+02  0.61506928525E+01  0.19777448778E+02  0.36820883486E+02  0.00000000000E+00 0. -1.
         11    1    4    4    0    0  0.52423034747E+01 -0.10398827371E+01  0.55209229908E+01  0.76839893779E+01  0.51100000000E-03 0. -1.
        -11    1    4    4    0    0 -0.18376203370E+02 -0.10411300198E+02 -0.14161439953E+02  0.25428849835E+02  0.51100000000E-03 0.  1.
        -12    1    4    4    0    0 -0.17309473077E+02  0.53004900826E+01 -0.11136931816E+02  0.21254277301E+02  0.00000000000E+00 0.  1.
</event>
<event>
 8    1  0.2558382E-006  0.9118800E+02  0.7816164E-02  0.1184000E+00
        -11   -1    0    0    0    0  0.00000000000E+00  0.00000000000E+00  0.45593999997E+02  0.45594000000E+02  0.51100000000E-03 0. -1.
         11   -1    0    0    0    0 -0.00000000000E+00 -0.00000000000E+00 -0.45593999997E+02  0.45594000000E+02  0.51100000000E-03 0.  1.
         23    2    1    2    0    0  0.35527136788E-14  0.00000000000E+00 -0.88817841970E-15  0.91188000000E+02  0.91188000000E+02 0.  0.
    9900012    2    3    3    0    0  0.22276599451E+02  0.29287977444E+02 -0.13214637436E+01  0.54367098703E+02  0.40000033114E+02 0.  0.
         12    1    3    3    0    0 -0.22276599451E+02 -0.29287977444E+02  0.13214637436E+01  0.36820901297E+02  0.00000000000E+00 0. -1.
         11    1    4    4    0    0  0.29773356499E+01 -0.39913551559E+01  0.72786463497E+01  0.88189645933E+01  0.51100000000E-03 0. -1.
        -11    1    4    4    0    0  0.64902334262E+01  0.18698636415E+02  0.66342131050E+01  0.20875222573E+02  0.51100000000E-03 0.  1.
         12    1    4    4    0    0  0.12809030375E+02  0.14580696185E+02 -0.15234323198E+02  0.24672911537E+02  0.00000000000E+00 0. -1.
</event>
<event>
 8    1  0.2558382E-006  0.9118800E+02  0.7816164E-02  0.1184000E+00
        -11   -1    0    0    0    0  0.00000000000E+00  0.00000000000E+00  0.45593999997E+02  0.45594000000E+02  0.51100000000E-03 0. -1.
         11   -1    0    0    0    0 -0.00000000000E+00 -0.00000000000E+00 -0.45593999997E+02  0.45594000000E+02  0.51100000000E-03 0.  1.
         23    2    1    2    0    0 -0.24424906542E-14  0.00000000000E+00  0.35527136788E-14  0.91188000000E+02  0.91188000000E+02 0.  0.
    9900012    2    3    3    0    0  0.14747596806E+01  0.26577634643E+02  0.25440846551E+02  0.54367051444E+02  0.39999925376E+02 0.  0.
        -12    1    3    3    0    0 -0.14747596806E+01 -0.26577634643E+02 -0.25440846551E+02  0.36820948556E+02  0.00000000000E+00 0.  1.
         11    1    4    4    0    0  0.47445666278E+01  0.14203374085E+02  0.26469117185E+02  0.30411525984E+02  0.51100000000E-03 0. -1.
        -11    1    4    4    0    0 -0.93771461829E+01  0.77419956867E+01 -0.71846315769E+01  0.14124032672E+02  0.51100000000E-03 0.  1.
        -12    1    4    4    0    0  0.61073392358E+01  0.46322648709E+01  0.61563609438E+01  0.98314927882E+01  0.00000000000E+00 0.  1.
</event>
<event>
 8    1  0.2558382E-006  0.9118800E+02  0.7816164E-02  0.1184000E+00
        -11   -1    0    0    0    0  0.00000000000E+00  0.00000000000E+00  0.45593999997E+02  0.45594000000E+02  0.51100000000E-03 0.  1.
         11   -1    0    0    0    0 -0.00000000000E+00 -0.00000000000E+00 -0.45593999997E+02  0.45594000000E+02  0.51100000000E-03 0. -1.
         23    2    1    2    0    0  0.00000000000E+00 -0.17763568394E-14 -0.35527136788E-14  0.91188000000E+02  0.91188000000E+02 0.  0.
    9900012    2    3    3    0    0  0.11399859789E+02  0.14930265515E+02 -0.31668757233E+02  0.54367084527E+02  0.40000000797E+02 0.  0.
        -12    1    3    3    0    0 -0.11399859789E+02 -0.14930265515E+02  0.31668757233E+02  0.36820915473E+02  0.00000000000E+00 0.  1.
         11    1    4    4    0    0  0.55466307738E+01  0.15228843870E+02 -0.30152333947E+02  0.34232236872E+02  0.51100000000E-03 0. -1.
        -11    1    4    4    0    0  0.13711196193E+01  0.85735423665E+01  0.30413024921E+01  0.91997347152E+01  0.51100000000E-03 0.  1.
        -12    1    4    4    0    0  0.44821093960E+01 -0.88721207217E+01 -0.45577257786E+01  0.10935112940E+02  0.00000000000E+00 0.  1.
</event>
<event>
 8    1  0.2558382E-006  0.9118800E+02  0.7816164E-02  0.1184000E+00
        -11   -1    0    0    0    0  0.00000000000E+00  0.00000000000E+00  0.45593999997E+02  0.45594000000E+02  0.51100000000E-03 0.  1.
         11   -1    0    0    0    0 -0.00000000000E+00 -0.00000000000E+00 -0.45593999997E+02  0.45594000000E+02  0.51100000000E-03 0. -1.
         23    2    1    2    0    0 -0.35527136788E-14  0.35527136788E-14  0.35527136788E-14  0.91188000000E+02  0.91188000000E+02 0.  0.
    9900012    2    3    3    0    0  0.15875507643E+02 -0.16002550123E+02 -0.29114740713E+02  0.54367061933E+02  0.39999949288E+02 0.  0.
        -12    1    3    3    0    0 -0.15875507643E+02  0.16002550123E+02  0.29114740713E+02  0.36820938067E+02  0.00000000000E+00 0.  1.
         11    1    4    4    0    0  0.13885676007E+02 -0.12277837764E+02 -0.19522653530E+02  0.26920091000E+02  0.51100000000E-03 0. -1.
        -11    1    4    4    0    0  0.10586646781E+02  0.64294258959E+01 -0.40124170476E+01  0.13019757995E+02  0.51100000000E-03 0.  1.
        -12    1    4    4    0    0 -0.85968151451E+01 -0.10154138255E+02 -0.55796701356E+01  0.14427212938E+02  0.00000000000E+00 0.  1.
</event>
<event>
 8    1  0.2558382E-006  0.9118800E+02  0.7816164E-02  0.1184000E+00
        -11   -1    0    0    0    0  0.00000000000E+00  0.00000000000E+00  0.45593999997E+02  0.45594000000E+02  0.51100000000E-03 0. -1.
         11   -1    0    0    0    0 -0.00000000000E+00 -0.00000000000E+00 -0.45593999997E+02  0.45594000000E+02  0.51100000000E-03 0.  1.
         23    2    1    2    0    0  0.00000000000E+00  0.35527136788E-14  0.00000000000E+00  0.91188000000E+02  0.91188000000E+02 0.  0.
    9900012    2    3    3    0    0 -0.29978059005E+02 -0.10544656985E+02 -0.18598497707E+02  0.54367110147E+02  0.40000059201E+02 0.  0.
         12    1    3    3    0    0  0.29978059005E+02  0.10544656985E+02  0.18598497707E+02  0.36820889853E+02  0.00000000000E+00 0. -1.
         11    1    4    4    0    0 -0.74797648782E+01  0.60512027371E+01  0.75147251272E+01  0.12207990465E+02  0.51100000000E-03 0. -1.
        -11    1    4    4    0    0 -0.19947404613E+02 -0.16776831941E+02 -0.13623379597E+02  0.29410160025E+02  0.51100000000E-03 0.  1.
         12    1    4    4    0    0 -0.25508895135E+01  0.18097221800E+00 -0.12489843236E+02  0.12748959656E+02  0.00000000000E+00 0. -1.
</event>
<event>
 8    1  0.2558382E-006  0.9118800E+02  0.7816164E-02  0.1184000E+00
        -11   -1    0    0    0    0  0.00000000000E+00  0.00000000000E+00  0.45593999997E+02  0.45594000000E+02  0.51100000000E-03 0.  1.
         11   -1    0    0    0    0 -0.00000000000E+00 -0.00000000000E+00 -0.45593999997E+02  0.45594000000E+02  0.51100000000E-03 0. -1.
         23    2    1    2    0    0  0.71054273576E-14 -0.35527136788E-14 -0.44408920985E-15  0.91188000000E+02  0.91188000000E+02 0.  0.
    9900012    2    3    3    0    0 -0.29393088647E+02  0.21887883252E+02  0.35704441546E+01  0.54367066214E+02  0.39999959048E+02 0.  0.
         12    1    3    3    0    0  0.29393088647E+02 -0.21887883252E+02 -0.35704441546E+01  0.36820933786E+02  0.00000000000E+00 0. -1.
         11    1    4    4    0    0 -0.65596284259E+01  0.82252445330E+01  0.80710186971E+01  0.13259891243E+02  0.51100000000E-03 0. -1.
        -11    1    4    4    0    0 -0.37003851250E+01 -0.63078646952E+01  0.79282295681E+01  0.10786047999E+02  0.51100000000E-03 0.  1.
         12    1    4    4    0    0 -0.19133075096E+02  0.19970503414E+02 -0.12428804111E+02  0.30321126972E+02  0.00000000000E+00 0. -1.
</event>
<event>
 8    1  0.2558382E-006  0.9118800E+02  0.7816164E-02  0.1184000E+00
        -11   -1    0    0    0    0  0.00000000000E+00  0.00000000000E+00  0.45593999997E+02  0.45594000000E+02  0.51100000000E-03 0.  1.
         11   -1    0    0    0    0 -0.00000000000E+00 -0.00000000000E+00 -0.45593999997E+02  0.45594000000E+02  0.51100000000E-03 0. -1.
         23    2    1    2    0    0  0.00000000000E+00  0.88817841970E-15 -0.17763568394E-14  0.91188000000E+02  0.91188000000E+02 0.  0.
    9900012    2    3    3    0    0  0.33739466848E+02 -0.40055667836E+01  0.14190972018E+02  0.54367083726E+02  0.39999998971E+02 0.  0.
         12    1    3    3    0    0 -0.33739466848E+02  0.40055667836E+01 -0.14190972018E+02  0.36820916274E+02  0.00000000000E+00 0. -1.
         11    1    4    4    0    0  0.27547653727E+01  0.10515315012E+02 -0.26761299869E+01  0.11194742250E+02  0.51100000000E-03 0. -1.
        -11    1    4    4    0    0  0.50493287123E+01  0.27893744583E+01  0.95289064823E+01  0.11138958179E+02  0.51100000000E-03 0.  1.
        -12    1    4    4    0    0  0.25935372763E+02 -0.17310256254E+02  0.73381955224E+01  0.32033383297E+02  0.00000000000E+00 0.  1.
</event>
<event>
 8    1  0.2558382E-006  0.9118800E+02  0.7816164E-02  0.1184000E+00
        -11   -1    0    0    0    0  0.00000000000E+00  0.00000000000E+00  0.45593999997E+02  0.45594000000E+02  0.51100000000E-03 0.  1.
         11   -1    0    0    0    0 -0.00000000000E+00 -0.00000000000E+00 -0.45593999997E+02  0.45594000000E+02  0.51100000000E-03 0. -1.
         23    2    1    2    0    0 -0.35527136788E-14  0.35527136788E-14  0.35527136788E-14  0.91188000000E+02  0.91188000000E+02 0.  0.
    9900012    2    3    3    0    0  0.26046458941E+02 -0.22196302536E+02 -0.13589925243E+02  0.54367082877E+02  0.39999997035E+02 0.  0.
         12    1    3    3    0    0 -0.26046458941E+02  0.22196302536E+02  0.13589925243E+02  0.36820917123E+02  0.00000000000E+00 0. -1.
         11    1    4    4    0    0 -0.10584441149E+01  0.67952687168E+00  0.28928202600E+01  0.31544365632E+01  0.51100000000E-03 0. -1.
        -11    1    4    4    0    0  0.16954395491E+02 -0.77270542958E+01  0.83385994724E+01  0.20413013888E+02  0.51100000000E-03 0.  1.
         12    1    4    4    0    0  0.10150507565E+02 -0.15148775112E+02 -0.24821344975E+02  0.30799632426E+02  0.00000000000E+00 0. -1.
</event>
<event>
 8    1  0.2558382E-006  0.9118800E+02  0.7816164E-02  0.1184000E+00
        -11   -1    0    0    0    0  0.00000000000E+00  0.00000000000E+00  0.45593999997E+02  0.45594000000E+02  0.51100000000E-03 0. -1.
         11   -1    0    0    0    0 -0.00000000000E+00 -0.00000000000E+00 -0.45593999997E+02  0.45594000000E+02  0.51100000000E-03 0.  1.
         23    2    1    2    0    0  0.00000000000E+00  0.17763568394E-14  0.00000000000E+00  0.91188000000E+02  0.91188000000E+02 0.  0.
    9900012    2    3    3    0    0 -0.26906343251E+02  0.85504428944E+01  0.23637256647E+02  0.54367064615E+02  0.39999955402E+02 0.  0.
         12    1    3    3    0    0  0.26906343251E+02 -0.85504428944E+01 -0.23637256647E+02  0.36820935385E+02  0.00000000000E+00 0. -1.
         11    1    4    4    0    0  0.42664780072E+01 -0.46721659284E+00  0.24599023127E+01  0.49469430540E+01  0.51100000000E-03 0. -1.
        -11    1    4    4    0    0 -0.94509192881E+01 -0.11282597431E+02  0.92650151254E+01  0.17391302013E+02  0.51100000000E-03 0.  1.
        -12    1    4    4    0    0 -0.21721901970E+02  0.20300256918E+02  0.11912339209E+02  0.32028819547E+02  0.00000000000E+00 0.  1.
</event>
<event>
 8    1  0.2558382E-006  0.9118800E+02  0.7816164E-02  0.1184000E+00
        -11   -1    0    0    0    0  0.00000000000E+00  0.00000000000E+00  0.45593999997E+02  0.45594000000E+02  0.51100000000E-03 0. -1.
         11   -1    0    0    0    0 -0.00000000000E+00 -0.00000000000E+00 -0.45593999997E+02  0.45594000000E+02  0.51100000000E-03 0.  1.
         23    2    1    2    0    0  0.35527136788E-14  0.00000000000E+00  0.00000000000E+00  0.91188000000E+02  0.91188000000E+02 0.  0.
    9900012    2    3    3    0    0  0.27781830628E+02  0.17716535065E+02 -0.16433930443E+02  0.54367084781E+02  0.40000001375E+02 0.  0.
         12    1    3    3    0    0 -0.27781830628E+02 -0.17716535065E+02  0.16433930443E+02  0.36820915219E+02  0.00000000000E+00 0. -1.
         11    1    4    4    0    0 -0.75409833838E+01 -0.21756224071E+01 -0.82833719139E+01  0.11411135517E+02  0.51100000000E-03 0. -1.
        -11    1    4    4    0    0  0.30982687744E+02  0.14321927660E+02 -0.10162449350E+02  0.35613479594E+02  0.51100000000E-03 0.  1.
         12    1    4    4    0    0  0.43401262681E+01  0.55702298124E+01  0.20118908212E+01  0.73424696705E+01  0.00000000000E+00 0. -1.
</event>
<event>
 8    1  0.2558382E-006  0.9118800E+02  0.7816164E-02  0.1184000E+00
        -11   -1    0    0    0    0  0.00000000000E+00  0.00000000000E+00  0.45593999997E+02  0.45594000000E+02  0.51100000000E-03 0.  1.
         11   -1    0    0    0    0 -0.00000000000E+00 -0.00000000000E+00 -0.45593999997E+02  0.45594000000E+02  0.51100000000E-03 0. -1.
         23    2    1    2    0    0  0.00000000000E+00 -0.35527136788E-14  0.71054273576E-14  0.91188000000E+02  0.91188000000E+02 0.  0.
    9900012    2    3    3    0    0 -0.72751078664E+01 -0.14124967120E+02  0.33216533904E+02  0.54367081825E+02  0.39999994637E+02 0.  0.
         12    1    3    3    0    0  0.72751078664E+01  0.14124967120E+02 -0.33216533904E+02  0.36820918175E+02  0.00000000000E+00 0. -1.
         11    1    4    4    0    0 -0.14885803680E+02 -0.23877736867E+02  0.17207237945E+02  0.32982154373E+02  0.51100000000E-03 0. -1.
        -11    1    4    4    0    0  0.71219297172E+01  0.35746762346E+01  0.85680400930E+01  0.11700918954E+02  0.51100000000E-03 0.  1.
         12    1    4    4    0    0  0.48876609689E+00  0.61780935118E+01  0.74412558657E+01  0.96840084984E+01  0.00000000000E+00 0. -1.
</event>
<event>
 8    1  0.2558382E-006  0.9118800E+02  0.7816164E-02  0.1184000E+00
        -11   -1    0    0    0    0  0.00000000000E+00  0.00000000000E+00  0.45593999997E+02  0.45594000000E+02  0.51100000000E-03 0.  1.
         11   -1    0    0    0    0 -0.00000000000E+00 -0.00000000000E+00 -0.45593999997E+02  0.45594000000E+02  0.51100000000E-03 0. -1.
         23    2    1    2    0    0 -0.35527136788E-14  0.17763568394E-14  0.00000000000E+00  0.91188000000E+02  0.91188000000E+02 0.  0.
    9900012    2    3    3    0    0 -0.30889944321E+02  0.11736154465E+02  0.16243577361E+02  0.54367084921E+02  0.40000001694E+02 0.  0.
         12    1    3    3    0    0  0.30889944321E+02 -0.11736154465E+02 -0.16243577361E+02  0.36820915079E+02  0.00000000000E+00 0. -1.
         11    1    4    4    0    0 -0.41063103865E+01  0.10577197943E+02 -0.36431019958E+01  0.11916840761E+02  0.51100000000E-03 0. -1.
        -11    1    4    4    0    0 -0.64284255213E+01  0.87181272860E+01 -0.26540436041E+01  0.11152324680E+02  0.51100000000E-03 0.  1.
        -12    1    4    4    0    0 -0.20355208413E+02 -0.75591707634E+01  0.22540722961E+02  0.31297919480E+02  0.00000000000E+00 0.  1.
</event>
<event>
 8    1  0.2558382E-006  0.9118800E+02  0.7816164E-02  0.1184000E+00
        -11   -1    0    0    0    0  0.00000000000E+00  0.00000000000E+00  0.45593999997E+02  0.45594000000E+02  0.51100000000E-03 0.  1.
         11   -1    0    0    0    0 -0.00000000000E+00 -0.00000000000E+00 -0.45593999997E+02  0.45594000000E+02  0.51100000000E-03 0. -1.
         23    2    1    2    0    0 -0.88817841970E-15  0.00000000000E+00 -0.35527136788E-14  0.91188000000E+02  0.91188000000E+02 0.  0.
    9900012    2    3    3    0    0  0.60258005372E+01  0.27455895284E+02  0.23783231971E+02  0.54367101302E+02  0.40000039038E+02 0.  0.
        -12    1    3    3    0    0 -0.60258005372E+01 -0.27455895284E+02 -0.23783231971E+02  0.36820898698E+02  0.00000000000E+00 0.  1.
         11    1    4    4    0    0  0.26593118177E+01  0.18790301410E+01 -0.29635781803E-01  0.32563126624E+01  0.51100000000E-03 0. -1.
        -11    1    4    4    0    0 -0.28032083902E+00  0.31207743689E+02  0.56076009568E+01  0.31708784819E+02  0.51100000000E-03 0.  1.
        -12    1    4    4    0    0  0.36468095586E+01 -0.56308785464E+01  0.18205266796E+02  0.19402003821E+02  0.00000000000E+00 0.  1.
</event>
<event>
 8    1  0.2558382E-006  0.9118800E+02  0.7816164E-02  0.1184000E+00
        -11   -1    0    0    0    0  0.00000000000E+00  0.00000000000E+00  0.45593999997E+02  0.45594000000E+02  0.51100000000E-03 0. -1.
         11   -1    0    0    0    0 -0.00000000000E+00 -0.00000000000E+00 -0.45593999997E+02  0.45594000000E+02  0.51100000000E-03 0.  1.
         23    2    1    2    0    0  0.35527136788E-14  0.88817841970E-15  0.00000000000E+00  0.91188000000E+02  0.91188000000E+02 0.  0.
    9900012    2    3    3    0    0 -0.24066377281E+02  0.34915940571E+01  0.27647742642E+02  0.54367089939E+02  0.40000013135E+02 0.  0.
        -12    1    3    3    0    0  0.24066377281E+02 -0.34915940571E+01 -0.27647742642E+02  0.36820910061E+02  0.00000000000E+00 0.  1.
         11    1    4    4    0    0  0.26805837964E+01 -0.12413018464E+02  0.51591555525E+01  0.13707131106E+02  0.51100000000E-03 0. -1.
        -11    1    4    4    0    0  0.14137319727E+00  0.44243032515E+01  0.15158617326E+01  0.46789189665E+01  0.51100000000E-03 0.  1.
        -12    1    4    4    0    0 -0.26888334274E+02  0.11480309270E+02  0.20972725357E+02  0.35981039867E+02  0.00000000000E+00 0.  1.
</event>
<event>
 8    1  0.2558382E-006  0.9118800E+02  0.7816164E-02  0.1184000E+00
        -11   -1    0    0    0    0  0.00000000000E+00  0.00000000000E+00  0.45593999997E+02  0.45594000000E+02  0.51100000000E-03 0. -1.
         11   -1    0    0    0    0 -0.00000000000E+00 -0.00000000000E+00 -0.45593999997E+02  0.45594000000E+02  0.51100000000E-03 0.  1.
         23    2    1    2    0    0 -0.17763568394E-14 -0.17763568394E-14 -0.71054273576E-14  0.91188000000E+02  0.91188000000E+02 0.  0.
    9900012    2    3    3    0    0  0.56602413030E+01  0.51834400848E+01  0.36012170134E+02  0.54367044275E+02  0.39999909034E+02 0.  0.
        -12    1    3    3    0    0 -0.56602413030E+01 -0.51834400848E+01 -0.36012170134E+02  0.36820955725E+02  0.00000000000E+00 0.  1.
         11    1    4    4    0    0 -0.13929051487E+02  0.91930663955E+01  0.21518135979E+02  0.27231619881E+02  0.51100000000E-03 0. -1.
        -11    1    4    4    0    0 -0.56349065275E+00 -0.96417497851E+00 -0.10267209334E+01  0.15170073306E+01  0.51100000000E-03 0.  1.
        -12    1    4    4    0    0  0.20152783443E+02 -0.30454513321E+01  0.15520755088E+02  0.25618417063E+02  0.00000000000E+00 0.  1.
</event>
<event>
 8    1  0.2558382E-006  0.9118800E+02  0.7816164E-02  0.1184000E+00
        -11   -1    0    0    0    0  0.00000000000E+00  0.00000000000E+00  0.45593999997E+02  0.45594000000E+02  0.51100000000E-03 0. -1.
         11   -1    0    0    0    0 -0.00000000000E+00 -0.00000000000E+00 -0.45593999997E+02  0.45594000000E+02  0.51100000000E-03 0.  1.
         23    2    1    2    0    0  0.00000000000E+00  0.00000000000E+00  0.35527136788E-14  0.91188000000E+02  0.91188000000E+02 0.  0.
    9900012    2    3    3    0    0 -0.13208395885E+02 -0.13189064777E+02 -0.31739221934E+02  0.54366927765E+02  0.39999643424E+02 0.  0.
         12    1    3    3    0    0  0.13208395885E+02  0.13189064777E+02  0.31739221934E+02  0.36821072235E+02  0.00000000000E+00 0. -1.
         11    1    4    4    0    0 -0.36927220402E+01 -0.11533094248E+02 -0.64686132850E+01  0.13729217643E+02  0.51100000000E-03 0. -1.
        -11    1    4    4    0    0 -0.13208366322E+02  0.95822840669E+01 -0.23598187957E+02  0.28690688105E+02  0.51100000000E-03 0.  1.
        -12    1    4    4    0    0  0.36926924771E+01 -0.11238254596E+02 -0.16724206925E+01  0.11947022017E+02  0.00000000000E+00 0.  1.
</event>
<event>
 8    1  0.2558382E-006  0.9118800E+02  0.7816164E-02  0.1184000E+00
        -11   -1    0    0    0    0  0.00000000000E+00  0.00000000000E+00  0.45593999997E+02  0.45594000000E+02  0.51100000000E-03 0.  1.
         11   -1    0    0    0    0 -0.00000000000E+00 -0.00000000000E+00 -0.45593999997E+02  0.45594000000E+02  0.51100000000E-03 0. -1.
         23    2    1    2    0    0  0.00000000000E+00  0.00000000000E+00  0.00000000000E+00  0.91188000000E+02  0.91188000000E+02 0.  0.
    9900012    2    3    3    0    0 -0.20974206248E+02  0.29963668947E+02 -0.42468632986E+01  0.54367154920E+02  0.40000161272E+02 0.  0.
        -12    1    3    3    0    0  0.20974206248E+02 -0.29963668947E+02  0.42468632986E+01  0.36820845080E+02  0.00000000000E+00 0.  1.
         11    1    4    4    0    0 -0.24757000955E+02  0.27409292439E+02 -0.13459341118E+02  0.39310714467E+02  0.51100000000E-03 0. -1.
        -11    1    4    4    0    0 -0.11997479003E+01 -0.28941607032E+01  0.64548818986E+01  0.71750304380E+01  0.51100000000E-03 0.  1.
         12    1    4    4    0    0  0.49825426068E+01  0.54485372108E+01  0.27575959212E+01  0.78814100154E+01  0.00000000000E+00 0. -1.
</event>
<event>
 8    1  0.2558382E-006  0.9118800E+02  0.7816164E-02  0.1184000E+00
        -11   -1    0    0    0    0  0.00000000000E+00  0.00000000000E+00  0.45593999997E+02  0.45594000000E+02  0.51100000000E-03 0. -1.
         11   -1    0    0    0    0 -0.00000000000E+00 -0.00000000000E+00 -0.45593999997E+02  0.45594000000E+02  0.51100000000E-03 0.  1.
         23    2    1    2    0    0  0.00000000000E+00  0.35527136788E-14 -0.35527136788E-14  0.91188000000E+02  0.91188000000E+02 0.  0.
    9900012    2    3    3    0    0 -0.11477467781E+02  0.16392028266E+02 -0.30908723135E+02  0.54367081717E+02  0.39999994391E+02 0.  0.
         12    1    3    3    0    0  0.11477467781E+02 -0.16392028266E+02  0.30908723135E+02  0.36820918283E+02  0.00000000000E+00 0. -1.
         11    1    4    4    0    0  0.12194778222E+02  0.46341975775E+01 -0.20112183637E+02  0.23972658050E+02  0.51100000000E-03 0. -1.
        -11    1    4    4    0    0 -0.18467921633E+02  0.13130236208E+02 -0.10579372646E+02  0.25007805944E+02  0.51100000000E-03 0.  1.
         12    1    4    4    0    0 -0.52043243698E+01 -0.13724055192E+01 -0.21716685263E+00  0.53866177233E+01  0.00000000000E+00 0. -1.
</event>
<event>
 8    1  0.2558382E-006  0.9118800E+02  0.7816164E-02  0.1184000E+00
        -11   -1    0    0    0    0  0.00000000000E+00  0.00000000000E+00  0.45593999997E+02  0.45594000000E+02  0.51100000000E-03 0.  1.
         11   -1    0    0    0    0 -0.00000000000E+00 -0.00000000000E+00 -0.45593999997E+02  0.45594000000E+02  0.51100000000E-03 0. -1.
         23    2    1    2    0    0  0.00000000000E+00  0.35527136788E-14  0.35527136788E-14  0.91188000000E+02  0.91188000000E+02 0.  0.
    9900012    2    3    3    0    0  0.21463048799E+02 -0.11424051819E+02 -0.27651552615E+02  0.54367084942E+02  0.40000001742E+02 0.  0.
        -12    1    3    3    0    0 -0.21463048799E+02  0.11424051819E+02  0.27651552615E+02  0.36820915058E+02  0.00000000000E+00 0.  1.
         11    1    4    4    0    0  0.19907167075E+01  0.77480999345E+01 -0.10200278400E+02  0.12963089343E+02  0.51100000000E-03 0. -1.
        -11    1    4    4    0    0  0.14725859670E+02  0.22022991063E+01 -0.11206843442E+02  0.18635836567E+02  0.51100000000E-03 0.  1.
        -12    1    4    4    0    0  0.47464724216E+01 -0.21374450860E+02 -0.62444307730E+01  0.22768159032E+02  0.00000000000E+00 0.  1.
</event>
<event>
 8    1  0.2558382E-006  0.9118800E+02  0.7816164E-02  0.1184000E+00
        -11   -1    0    0    0    0  0.00000000000E+00  0.00000000000E+00  0.45593999997E+02  0.45594000000E+02  0.51100000000E-03 0. -1.
         11   -1    0    0    0    0 -0.00000000000E+00 -0.00000000000E+00 -0.45593999997E+02  0.45594000000E+02  0.51100000000E-03 0.  1.
         23    2    1    2    0    0  0.00000000000E+00  0.00000000000E+00 -0.35527136788E-14  0.91188000000E+02  0.91188000000E+02 0.  0.
    9900012    2    3    3    0    0  0.30984037900E+02  0.71189111990E+01  0.18576587370E+02  0.54367094259E+02  0.40000022983E+02 0.  0.
        -12    1    3    3    0    0 -0.30984037900E+02 -0.71189111990E+01 -0.18576587370E+02  0.36820905741E+02  0.00000000000E+00 0.  1.
         11    1    4    4    0    0  0.50154842088E+01 -0.48330027310E+01  0.31286095002E+00  0.69721502768E+01  0.51100000000E-03 0. -1.
        -11    1    4    4    0    0 -0.56051491468E+01  0.47288595116E+01 -0.37461973407E+01  0.82349137224E+01  0.51100000000E-03 0.  1.
         12    1    4    4    0    0  0.31573702838E+02  0.72230544184E+01  0.22009923760E+02  0.39160030260E+02  0.00000000000E+00 0. -1.
</event>
<event>
 8    1  0.2558382E-006  0.9118800E+02  0.7816164E-02  0.1184000E+00
        -11   -1    0    0    0    0  0.00000000000E+00  0.00000000000E+00  0.45593999997E+02  0.45594000000E+02  0.51100000000E-03 0. -1.
         11   -1    0    0    0    0 -0.00000000000E+00 -0.00000000000E+00 -0.45593999997E+02  0.45594000000E+02  0.51100000000E-03 0.  1.
         23    2    1    2    0    0 -0.71054273576E-14 -0.12212453271E-14  0.00000000000E+00  0.91188000000E+02  0.91188000000E+02 0.  0.
    9900012    2    3    3    0    0  0.34447317591E+02  0.36728809130E+00 -0.13001169651E+02  0.54367041266E+02  0.39999902175E+02 0.  0.
        -12    1    3    3    0    0 -0.34447317591E+02 -0.36728809130E+00  0.13001169651E+02  0.36820958734E+02  0.00000000000E+00 0.  1.
         11    1    4    4    0    0  0.23433184967E+01 -0.63480116127E+01  0.10837785437E+02  0.12776775276E+02  0.51100000000E-03 0. -1.
        -11    1    4    4    0    0  0.27411176166E+02  0.23458385864E+01 -0.20829062480E+02  0.34506888900E+02  0.51100000000E-03 0.  1.
         12    1    4    4    0    0  0.46928229284E+01  0.43694611176E+01 -0.30098926076E+01  0.70833770904E+01  0.00000000000E+00 0. -1.
</event>
<event>
 8    1  0.2558382E-006  0.9118800E+02  0.7816164E-02  0.1184000E+00
        -11   -1    0    0    0    0  0.00000000000E+00  0.00000000000E+00  0.45593999997E+02  0.45594000000E+02  0.51100000000E-03 0.  1.
         11   -1    0    0    0    0 -0.00000000000E+00 -0.00000000000E+00 -0.45593999997E+02  0.45594000000E+02  0.51100000000E-03 0. -1.
         23    2    1    2    0    0  0.00000000000E+00  0.00000000000E+00  0.00000000000E+00  0.91188000000E+02  0.91188000000E+02 0.  0.
    9900012    2    3    3    0    0 -0.13502044332E+02 -0.33603496383E+02  0.66542693960E+01  0.54367089209E+02  0.40000011470E+02 0.  0.
         12    1    3    3    0    0  0.13502044332E+02  0.33603496383E+02 -0.66542693960E+01  0.36820910791E+02  0.00000000000E+00 0. -1.
         11    1    4    4    0    0  0.78576262851E+01 -0.72803143585E+01  0.34560048824E+01  0.11255631391E+02  0.51100000000E-03 0. -1.
        -11    1    4    4    0    0 -0.95631672177E+00 -0.22051882919E+02  0.29118361376E+01  0.22263846745E+02  0.51100000000E-03 0.  1.
        -12    1    4    4    0    0 -0.20403353895E+02 -0.42712991051E+01  0.28642837597E+00  0.20847611073E+02  0.00000000000E+00 0.  1.
</event>
<event>
 8    1  0.2558382E-006  0.9118800E+02  0.7816164E-02  0.1184000E+00
        -11   -1    0    0    0    0  0.00000000000E+00  0.00000000000E+00  0.45593999997E+02  0.45594000000E+02  0.51100000000E-03 0. -1.
         11   -1    0    0    0    0 -0.00000000000E+00 -0.00000000000E+00 -0.45593999997E+02  0.45594000000E+02  0.51100000000E-03 0.  1.
         23    2    1    2    0    0  0.88817841970E-15  0.71054273576E-14 -0.44408920985E-15  0.91188000000E+02  0.91188000000E+02 0.  0.
    9900012    2    3    3    0    0  0.60757615791E+01  0.36230224505E+02 -0.24974008580E+01  0.54367067673E+02  0.39999962373E+02 0.  0.
        -12    1    3    3    0    0 -0.60757615791E+01 -0.36230224505E+02  0.24974008580E+01  0.36820932327E+02  0.00000000000E+00 0.  1.
         11    1    4    4    0    0  0.69224995980E+01  0.17528421937E+02 -0.19354869712E+01  0.18944991062E+02  0.51100000000E-03 0. -1.
        -11    1    4    4    0    0 -0.61584618674E+01 -0.57200037172E+01  0.50520470667E+01  0.98065424551E+01  0.51100000000E-03 0.  1.
        -12    1    4    4    0    0  0.53117238486E+01  0.24421806285E+02 -0.56139609535E+01  0.25615534155E+02  0.00000000000E+00 0.  1.
</event>
<event>
 8    1  0.2558382E-006  0.9118800E+02  0.7816164E-02  0.1184000E+00
        -11   -1    0    0    0    0  0.00000000000E+00  0.00000000000E+00  0.45593999997E+02  0.45594000000E+02  0.51100000000E-03 0. -1.
         11   -1    0    0    0    0 -0.00000000000E+00 -0.00000000000E+00 -0.45593999997E+02  0.45594000000E+02  0.51100000000E-03 0.  1.
         23    2    1    2    0    0  0.00000000000E+00  0.00000000000E+00  0.88817841970E-15  0.91188000000E+02  0.91188000000E+02 0.  0.
    9900012    2    3    3    0    0 -0.23778310137E+02  0.27762277387E+02 -0.44295904919E+01  0.54367172326E+02  0.40000200951E+02 0.  0.
        -12    1    3    3    0    0  0.23778310137E+02 -0.27762277387E+02  0.44295904919E+01  0.36820827674E+02  0.00000000000E+00 0.  1.
         11    1    4    4    0    0 -0.12542561449E+02  0.10938451735E+02 -0.11242671993E+02  0.20083905194E+02  0.51100000000E-03 0. -1.
        -11    1    4    4    0    0 -0.30521598421E+01  0.22290853818E+02  0.33588340543E+00  0.22501347995E+02  0.51100000000E-03 0.  1.
         12    1    4    4    0    0 -0.81835888462E+01 -0.54670281664E+01  0.64771980956E+01  0.11781919137E+02  0.00000000000E+00 0. -1.
</event>
<event>
 8    1  0.2558382E-006  0.9118800E+02  0.7816164E-02  0.1184000E+00
        -11   -1    0    0    0    0  0.00000000000E+00  0.00000000000E+00  0.45593999997E+02  0.45594000000E+02  0.51100000000E-03 0. -1.
         11   -1    0    0    0    0 -0.00000000000E+00 -0.00000000000E+00 -0.45593999997E+02  0.45594000000E+02  0.51100000000E-03 0.  1.
         23    2    1    2    0    0 -0.88817841970E-15  0.44408920985E-15 -0.71054273576E-14  0.91188000000E+02  0.91188000000E+02 0.  0.
    9900012    2    3    3    0    0 -0.27279182637E+01  0.15821182892E+01 -0.36685578994E+02  0.54367131699E+02  0.40000108333E+02 0.  0.
         12    1    3    3    0    0  0.27279182637E+01 -0.15821182892E+01  0.36685578994E+02  0.36820868301E+02  0.00000000000E+00 0. -1.
         11    1    4    4    0    0 -0.12775887178E+02  0.88297443644E+01 -0.61447362234E+01  0.16701660464E+02  0.51100000000E-03 0. -1.
        -11    1    4    4    0    0 -0.44971934241E+01 -0.12476856809E+00 -0.21642439257E+01  0.49924210480E+01  0.51100000000E-03 0.  1.
        -12    1    4    4    0    0  0.14545162338E+02 -0.71228575071E+01 -0.28376598845E+02  0.32673050187E+02  0.00000000000E+00 0.  1.
</event>
<event>
 8    1  0.2558382E-006  0.9118800E+02  0.7816164E-02  0.1184000E+00
        -11   -1    0    0    0    0  0.00000000000E+00  0.00000000000E+00  0.45593999997E+02  0.45594000000E+02  0.51100000000E-03 0.  1.
         11   -1    0    0    0    0 -0.00000000000E+00 -0.00000000000E+00 -0.45593999997E+02  0.45594000000E+02  0.51100000000E-03 0. -1.
         23    2    1    2    0    0 -0.17763568394E-14  0.00000000000E+00  0.00000000000E+00  0.91188000000E+02  0.91188000000E+02 0.  0.
    9900012    2    3    3    0    0 -0.15369336875E+02 -0.51079597128E+01 -0.33067675431E+02  0.54367096605E+02  0.40000028330E+02 0.  0.
        -12    1    3    3    0    0  0.15369336875E+02  0.51079597128E+01  0.33067675431E+02  0.36820903395E+02  0.00000000000E+00 0.  1.
         11    1    4    4    0    0 -0.13796463928E+02 -0.87712459826E+01 -0.93135207953E+01  0.18815388460E+02  0.51100000000E-03 0. -1.
        -11    1    4    4    0    0  0.48052889909E+01  0.33762049472E+01 -0.27519710994E+02  0.28139368429E+02  0.51100000000E-03 0.  1.
        -12    1    4    4    0    0 -0.63781619378E+01  0.28708132263E+00  0.37655563579E+01  0.74123397167E+01  0.00000000000E+00 0.  1.
</event>
<event>
 8    1  0.2558382E-006  0.9118800E+02  0.7816164E-02  0.1184000E+00
        -11   -1    0    0    0    0  0.00000000000E+00  0.00000000000E+00  0.45593999997E+02  0.45594000000E+02  0.51100000000E-03 0.  1.
         11   -1    0    0    0    0 -0.00000000000E+00 -0.00000000000E+00 -0.45593999997E+02  0.45594000000E+02  0.51100000000E-03 0. -1.
         23    2    1    2    0    0  0.00000000000E+00  0.00000000000E+00  0.00000000000E+00  0.91188000000E+02  0.91188000000E+02 0.  0.
    9900012    2    3    3    0    0  0.35280962611E+02  0.19483065781E+01 -0.10355588347E+02  0.54367076175E+02  0.39999981756E+02 0.  0.
        -12    1    3    3    0    0 -0.35280962611E+02 -0.19483065781E+01  0.10355588347E+02  0.36820923825E+02  0.00000000000E+00 0.  1.
         11    1    4    4    0    0  0.87269926247E+01  0.36743977313E+01 -0.12858145935E+02  0.15968516403E+02  0.51100000000E-03 0. -1.
        -11    1    4    4    0    0 -0.36419225372E+01  0.30899632786E+01  0.59471739161E+01  0.76276045178E+01  0.51100000000E-03 0.  1.
        -12    1    4    4    0    0  0.30195892524E+02 -0.48160544317E+01 -0.34446163286E+01  0.30770955254E+02  0.00000000000E+00 0.  1.
</event>
<event>
 8    1  0.2558382E-006  0.9118800E+02  0.7816164E-02  0.1184000E+00
        -11   -1    0    0    0    0  0.00000000000E+00  0.00000000000E+00  0.45593999997E+02  0.45594000000E+02  0.51100000000E-03 0.  1.
         11   -1    0    0    0    0 -0.00000000000E+00 -0.00000000000E+00 -0.45593999997E+02  0.45594000000E+02  0.51100000000E-03 0. -1.
         23    2    1    2    0    0  0.00000000000E+00  0.00000000000E+00  0.00000000000E+00  0.91188000000E+02  0.91188000000E+02 0.  0.
    9900012    2    3    3    0    0  0.19916774199E+02 -0.18317781969E+02 -0.24971196482E+02  0.54367086317E+02  0.40000004876E+02 0.  0.
        -12    1    3    3    0    0 -0.19916774199E+02  0.18317781969E+02  0.24971196482E+02  0.36820913683E+02  0.00000000000E+00 0.  1.
         11    1    4    4    0    0 -0.33324515270E+01  0.26442583544E+01 -0.27673679950E+01  0.50750035769E+01  0.51100000000E-03 0. -1.
        -11    1    4    4    0    0  0.30060893646E+02 -0.20713827887E+02 -0.21673266325E+02  0.42455276068E+02  0.51100000000E-03 0.  1.
        -12    1    4    4    0    0 -0.68116679198E+01 -0.24821243592E+00 -0.53056216178E+00  0.68368066721E+01  0.00000000000E+00 0.  1.
</event>
<event>
 8    1  0.2558382E-006  0.9118800E+02  0.7816164E-02  0.1184000E+00
        -11   -1    0    0    0    0  0.00000000000E+00  0.00000000000E+00  0.45593999997E+02  0.45594000000E+02  0.51100000000E-03 0. -1.
         11   -1    0    0    0    0 -0.00000000000E+00 -0.00000000000E+00 -0.45593999997E+02  0.45594000000E+02  0.51100000000E-03 0.  1.
         23    2    1    2    0    0  0.71054273576E-14  0.00000000000E+00 -0.17763568394E-14  0.91188000000E+02  0.91188000000E+02 0.  0.
    9900012    2    3    3    0    0  0.33634664714E+02  0.12803943077E+02 -0.77811922872E+01  0.54367101285E+02  0.40000039000E+02 0.  0.
         12    1    3    3    0    0 -0.33634664714E+02 -0.12803943077E+02  0.77811922872E+01  0.36820898715E+02  0.00000000000E+00 0. -1.
         11    1    4    4    0    0 -0.24925185430E+01  0.18661042995E+01 -0.16115208010E+01  0.35059939385E+01  0.51100000000E-03 0. -1.
        -11    1    4    4    0    0  0.16256939333E+02 -0.90177188407E+01 -0.11967296872E+02  0.22109353773E+02  0.51100000000E-03 0.  1.
         12    1    4    4    0    0  0.19870243924E+02  0.19955557619E+02  0.57976253858E+01  0.28751753574E+02  0.00000000000E+00 0. -1.
</event>
<event>
 8    1  0.2558382E-006  0.9118800E+02  0.7816164E-02  0.1184000E+00
        -11   -1    0    0    0    0  0.00000000000E+00  0.00000000000E+00  0.45593999997E+02  0.45594000000E+02  0.51100000000E-03 0. -1.
         11   -1    0    0    0    0 -0.00000000000E+00 -0.00000000000E+00 -0.45593999997E+02  0.45594000000E+02  0.51100000000E-03 0.  1.
         23    2    1    2    0    0  0.00000000000E+00  0.00000000000E+00  0.00000000000E+00  0.91188000000E+02  0.91188000000E+02 0.  0.
    9900012    2    3    3    0    0  0.84920047157E+01 -0.21754924783E+02 -0.28467332068E+02  0.54367083506E+02  0.39999998468E+02 0.  0.
         12    1    3    3    0    0 -0.84920047157E+01  0.21754924783E+02  0.28467332068E+02  0.36820916494E+02  0.00000000000E+00 0. -1.
         11    1    4    4    0    0  0.22876359790E+02 -0.14270991139E+02 -0.12537404573E+02  0.29735089356E+02  0.51100000000E-03 0. -1.
        -11    1    4    4    0    0 -0.36037465067E+01 -0.50620191194E+01 -0.10777345322E+02  0.12440345610E+02  0.51100000000E-03 0.  1.
         12    1    4    4    0    0 -0.10780608568E+02 -0.24219145243E+01 -0.51525821739E+01  0.12191648540E+02  0.00000000000E+00 0. -1.
</event>
<event>
 8    1  0.2558382E-006  0.9118800E+02  0.7816164E-02  0.1184000E+00
        -11   -1    0    0    0    0  0.00000000000E+00  0.00000000000E+00  0.45593999997E+02  0.45594000000E+02  0.51100000000E-03 0. -1.
         11   -1    0    0    0    0 -0.00000000000E+00 -0.00000000000E+00 -0.45593999997E+02  0.45594000000E+02  0.51100000000E-03 0.  1.
         23    2    1    2    0    0 -0.17763568394E-14  0.35527136788E-14  0.00000000000E+00  0.91188000000E+02  0.91188000000E+02 0.  0.
    9900012    2    3    3    0    0 -0.14674061489E+02  0.29173586447E+02  0.17010387123E+02  0.54367088865E+02  0.40000010685E+02 0.  0.
        -12    1    3    3    0    0  0.14674061489E+02 -0.29173586447E+02 -0.17010387123E+02  0.36820911135E+02  0.00000000000E+00 0.  1.
         11    1    4    4    0    0 -0.32373225110E+01  0.25610209593E+02  0.16907399131E+02  0.30858114622E+02  0.51100000000E-03 0. -1.
        -11    1    4    4    0    0 -0.10862851298E+02  0.34650915644E+01  0.90412790015E+01  0.14551739556E+02  0.51100000000E-03 0.  1.
        -12    1    4    4    0    0 -0.57388768021E+00  0.98285289592E-01 -0.89382910091E+01  0.89572346866E+01  0.00000000000E+00 0.  1.
</event>
<event>
 8    1  0.2558382E-006  0.9118800E+02  0.7816164E-02  0.1184000E+00
        -11   -1    0    0    0    0  0.00000000000E+00  0.00000000000E+00  0.45593999997E+02  0.45594000000E+02  0.51100000000E-03 0.  1.
         11   -1    0    0    0    0 -0.00000000000E+00 -0.00000000000E+00 -0.45593999997E+02  0.45594000000E+02  0.51100000000E-03 0. -1.
         23    2    1    2    0    0 -0.17763568394E-14 -0.35527136788E-14 -0.35527136788E-14  0.91188000000E+02  0.91188000000E+02 0.  0.
    9900012    2    3    3    0    0 -0.48254911218E+01 -0.19104890014E+02 -0.31104658402E+02  0.54367055399E+02  0.39999934394E+02 0.  0.
        -12    1    3    3    0    0  0.48254911218E+01  0.19104890014E+02  0.31104658402E+02  0.36820944601E+02  0.00000000000E+00 0.  1.
         11    1    4    4    0    0  0.98970613740E+01 -0.74855715459E+01 -0.23545947500E+02  0.26615733113E+02  0.51100000000E-03 0. -1.
        -11    1    4    4    0    0 -0.97939666612E+01 -0.10322111367E+02  0.42827778341E+01  0.14859675376E+02  0.51100000000E-03 0.  1.
        -12    1    4    4    0    0 -0.49285858345E+01 -0.12972071014E+01 -0.11841488736E+02  0.12891646911E+02  0.00000000000E+00 0.  1.
</event>
<event>
 8    1  0.2558382E-006  0.9118800E+02  0.7816164E-02  0.1184000E+00
        -11   -1    0    0    0    0  0.00000000000E+00  0.00000000000E+00  0.45593999997E+02  0.45594000000E+02  0.51100000000E-03 0. -1.
         11   -1    0    0    0    0 -0.00000000000E+00 -0.00000000000E+00 -0.45593999997E+02  0.45594000000E+02  0.51100000000E-03 0.  1.
         23    2    1    2    0    0 -0.17763568394E-14  0.00000000000E+00  0.35527136788E-14  0.91188000000E+02  0.91188000000E+02 0.  0.
    9900012    2    3    3    0    0 -0.14266322327E+02  0.19288794060E+02  0.27931780165E+02  0.54367219560E+02  0.40000308629E+02 0.  0.
        -12    1    3    3    0    0  0.14266322327E+02 -0.19288794060E+02 -0.27931780165E+02  0.36820780440E+02  0.00000000000E+00 0.  1.
         11    1    4    4    0    0 -0.14448858741E+02  0.49243264545E+01  0.15601375939E+02  0.21827080460E+02  0.51100000000E-03 0. -1.
        -11    1    4    4    0    0 -0.58602106570E+01  0.18717364523E+02  0.18738530901E+01  0.19702617321E+02  0.51100000000E-03 0.  1.
         12    1    4    4    0    0  0.60427470715E+01 -0.43528969181E+01  0.10456551136E+02  0.12837521778E+02  0.00000000000E+00 0. -1.
</event>
<event>
 8    1  0.2558382E-006  0.9118800E+02  0.7816164E-02  0.1184000E+00
        -11   -1    0    0    0    0  0.00000000000E+00  0.00000000000E+00  0.45593999997E+02  0.45594000000E+02  0.51100000000E-03 0.  1.
         11   -1    0    0    0    0 -0.00000000000E+00 -0.00000000000E+00 -0.45593999997E+02  0.45594000000E+02  0.51100000000E-03 0. -1.
         23    2    1    2    0    0 -0.35527136788E-14  0.00000000000E+00  0.00000000000E+00  0.91188000000E+02  0.91188000000E+02 0.  0.
    9900012    2    3    3    0    0 -0.19723119743E+02 -0.13545914608E+02  0.27987313052E+02  0.54367042017E+02  0.39999903886E+02 0.  0.
         12    1    3    3    0    0  0.19723119743E+02  0.13545914608E+02 -0.27987313052E+02  0.36820957983E+02  0.00000000000E+00 0. -1.
         11    1    4    4    0    0 -0.72045618528E+01  0.11126649038E+01 -0.67084222212E+01  0.99068997996E+01  0.51100000000E-03 0. -1.
        -11    1    4    4    0    0  0.93504714077E+00 -0.14160680971E+02  0.20081845039E+02  0.24590235850E+02  0.51100000000E-03 0.  1.
        -12    1    4    4    0    0 -0.13453605031E+02 -0.49789854035E+00  0.14613890234E+02  0.19869906367E+02  0.00000000000E+00 0.  1.
</event>
<event>
 8    1  0.2558382E-006  0.9118800E+02  0.7816164E-02  0.1184000E+00
        -11   -1    0    0    0    0  0.00000000000E+00  0.00000000000E+00  0.45593999997E+02  0.45594000000E+02  0.51100000000E-03 0.  1.
         11   -1    0    0    0    0 -0.00000000000E+00 -0.00000000000E+00 -0.45593999997E+02  0.45594000000E+02  0.51100000000E-03 0. -1.
         23    2    1    2    0    0 -0.71054273576E-14  0.00000000000E+00  0.35527136788E-14  0.91188000000E+02  0.91188000000E+02 0.  0.
    9900012    2    3    3    0    0  0.19692469727E+02 -0.81716297165E+01 -0.30020133215E+02  0.54367118771E+02  0.40000078863E+02 0.  0.
        -12    1    3    3    0    0 -0.19692469727E+02  0.81716297165E+01  0.30020133215E+02  0.36820881229E+02  0.00000000000E+00 0.  1.
         11    1    4    4    0    0 -0.40016653736E+01 -0.95909027022E+01 -0.24169327073E+00  0.10395054416E+02  0.51100000000E-03 0. -1.
        -11    1    4    4    0    0 -0.38875062904E+00  0.51566748912E+01  0.39409342958E+00  0.51863024282E+01  0.51100000000E-03 0.  1.
         12    1    4    4    0    0  0.24082885730E+02 -0.37374019054E+01 -0.30172533374E+02  0.38785761928E+02  0.00000000000E+00 0. -1.
</event>
<event>
 8    1  0.2558382E-006  0.9118800E+02  0.7816164E-02  0.1184000E+00
        -11   -1    0    0    0    0  0.00000000000E+00  0.00000000000E+00  0.45593999997E+02  0.45594000000E+02  0.51100000000E-03 0. -1.
         11   -1    0    0    0    0 -0.00000000000E+00 -0.00000000000E+00 -0.45593999997E+02  0.45594000000E+02  0.51100000000E-03 0.  1.
         23    2    1    2    0    0  0.00000000000E+00  0.00000000000E+00  0.35527136788E-14  0.91188000000E+02  0.91188000000E+02 0.  0.
    9900012    2    3    3    0    0 -0.21826926573E+02  0.20527303902E+02 -0.21400822363E+02  0.54367080309E+02  0.39999991180E+02 0.  0.
        -12    1    3    3    0    0  0.21826926573E+02 -0.20527303902E+02  0.21400822363E+02  0.36820919691E+02  0.00000000000E+00 0.  1.
         11    1    4    4    0    0 -0.17827284438E+02  0.24559977025E+02 -0.79822575722E+01  0.31380264150E+02  0.51100000000E-03 0. -1.
        -11    1    4    4    0    0 -0.12779093099E+01 -0.55688898383E+01  0.28750194139E+01  0.63961959888E+01  0.51100000000E-03 0.  1.
         12    1    4    4    0    0 -0.27217328243E+01  0.15362167148E+01 -0.16293584205E+02  0.16590620170E+02  0.00000000000E+00 0. -1.
</event>
<event>
 8    1  0.2558382E-006  0.9118800E+02  0.7816164E-02  0.1184000E+00
        -11   -1    0    0    0    0  0.00000000000E+00  0.00000000000E+00  0.45593999997E+02  0.45594000000E+02  0.51100000000E-03 0. -1.
         11   -1    0    0    0    0 -0.00000000000E+00 -0.00000000000E+00 -0.45593999997E+02  0.45594000000E+02  0.51100000000E-03 0.  1.
         23    2    1    2    0    0  0.00000000000E+00  0.00000000000E+00 -0.71054273576E-14  0.91188000000E+02  0.91188000000E+02 0.  0.
    9900012    2    3    3    0    0 -0.12340347256E+02 -0.13319004969E+02 -0.32032784538E+02  0.54367090872E+02  0.40000015261E+02 0.  0.
         12    1    3    3    0    0  0.12340347256E+02  0.13319004969E+02  0.32032784538E+02  0.36820909128E+02  0.00000000000E+00 0. -1.
         11    1    4    4    0    0  0.58134877521E+01 -0.74306670808E+01 -0.37785095255E+01  0.10163099311E+02  0.51100000000E-03 0. -1.
        -11    1    4    4    0    0 -0.39921761701E+01 -0.28994236007E+01  0.55532609352E+01  0.74285149973E+01  0.51100000000E-03 0.  1.
        -12    1    4    4    0    0 -0.14161658838E+02 -0.29889142878E+01 -0.33807535947E+02  0.36775476564E+02  0.00000000000E+00 0.  1.
</event>
<event>
 8    1  0.2558382E-006  0.9118800E+02  0.7816164E-02  0.1184000E+00
        -11   -1    0    0    0    0  0.00000000000E+00  0.00000000000E+00  0.45593999997E+02  0.45594000000E+02  0.51100000000E-03 0. -1.
         11   -1    0    0    0    0 -0.00000000000E+00 -0.00000000000E+00 -0.45593999997E+02  0.45594000000E+02  0.51100000000E-03 0.  1.
         23    2    1    2    0    0  0.00000000000E+00 -0.17763568394E-14  0.00000000000E+00  0.91188000000E+02  0.91188000000E+02 0.  0.
    9900012    2    3    3    0    0 -0.19701665032E+02 -0.95442260086E+01  0.29606282264E+02  0.54367084685E+02  0.40000001157E+02 0.  0.
        -12    1    3    3    0    0  0.19701665032E+02  0.95442260086E+01 -0.29606282264E+02  0.36820915315E+02  0.00000000000E+00 0.  1.
         11    1    4    4    0    0 -0.29762067995E+00 -0.12376489276E+02  0.41072156430E+01  0.13043591740E+02  0.51100000000E-03 0. -1.
        -11    1    4    4    0    0 -0.71808397584E+01 -0.10473041272E+02  0.17356742718E+02  0.21505942694E+02  0.51100000000E-03 0.  1.
        -12    1    4    4    0    0 -0.12223204594E+02  0.13305304539E+02  0.81423239025E+01  0.19817550251E+02  0.00000000000E+00 0.  1.
</event>
<event>
 8    1  0.2558382E-006  0.9118800E+02  0.7816164E-02  0.1184000E+00
        -11   -1    0    0    0    0  0.00000000000E+00  0.00000000000E+00  0.45593999997E+02  0.45594000000E+02  0.51100000000E-03 0.  1.
         11   -1    0    0    0    0 -0.00000000000E+00 -0.00000000000E+00 -0.45593999997E+02  0.45594000000E+02  0.51100000000E-03 0. -1.
         23    2    1    2    0    0  0.00000000000E+00  0.35527136788E-14 -0.17763568394E-14  0.91188000000E+02  0.91188000000E+02 0.  0.
    9900012    2    3    3    0    0 -0.31976830449E+02  0.14770468588E+02 -0.10728245164E+02  0.54367086484E+02  0.40000005257E+02 0.  0.
        -12    1    3    3    0    0  0.31976830449E+02 -0.14770468588E+02  0.10728245164E+02  0.36820913516E+02  0.00000000000E+00 0.  1.
         11    1    4    4    0    0 -0.14471508934E+01 -0.41057167943E+01  0.27237064015E+01  0.51351468262E+01  0.51100000000E-03 0. -1.
        -11    1    4    4    0    0 -0.55615285361E+01 -0.17356382256E+01  0.83625001377E+01  0.10191881501E+02  0.51100000000E-03 0.  1.
         12    1    4    4    0    0 -0.24968151020E+02  0.20611823608E+02 -0.21814451703E+02  0.39040058157E+02  0.00000000000E+00 0. -1.
</event>
<event>
 8    1  0.2558382E-006  0.9118800E+02  0.7816164E-02  0.1184000E+00
        -11   -1    0    0    0    0  0.00000000000E+00  0.00000000000E+00  0.45593999997E+02  0.45594000000E+02  0.51100000000E-03 0.  1.
         11   -1    0    0    0    0 -0.00000000000E+00 -0.00000000000E+00 -0.45593999997E+02  0.45594000000E+02  0.51100000000E-03 0. -1.
         23    2    1    2    0    0 -0.71054273576E-14 -0.44408920985E-15  0.11102230246E-14  0.91188000000E+02  0.91188000000E+02 0.  0.
    9900012    2    3    3    0    0  0.36784813356E+02 -0.15713046142E+01  0.43442291151E+00  0.54367079111E+02  0.39999988450E+02 0.  0.
         12    1    3    3    0    0 -0.36784813356E+02  0.15713046142E+01 -0.43442291151E+00  0.36820920889E+02  0.00000000000E+00 0. -1.
         11    1    4    4    0    0  0.64247485711E+01 -0.16646110500E+01 -0.15118827759E+02  0.16511428685E+02  0.51100000000E-03 0. -1.
        -11    1    4    4    0    0  0.95933319260E+01 -0.24658942427E+01  0.13622461422E+02  0.16842924547E+02  0.51100000000E-03 0.  1.
        -12    1    4    4    0    0  0.20766732859E+02  0.25592006785E+01  0.19307892491E+01  0.21012725879E+02  0.00000000000E+00 0.  1.
</event>
<event>
 8    1  0.2558382E-006  0.9118800E+02  0.7816164E-02  0.1184000E+00
        -11   -1    0    0    0    0  0.00000000000E+00  0.00000000000E+00  0.45593999997E+02  0.45594000000E+02  0.51100000000E-03 0. -1.
         11   -1    0    0    0    0 -0.00000000000E+00 -0.00000000000E+00 -0.45593999997E+02  0.45594000000E+02  0.51100000000E-03 0.  1.
         23    2    1    2    0    0  0.00000000000E+00  0.44408920985E-15  0.00000000000E+00  0.91188000000E+02  0.91188000000E+02 0.  0.
    9900012    2    3    3    0    0 -0.25562189952E+02 -0.32635838748E+01  0.26300257005E+02  0.54367081307E+02  0.39999993455E+02 0.  0.
        -12    1    3    3    0    0  0.25562189952E+02  0.32635838748E+01 -0.26300257005E+02  0.36820918693E+02  0.00000000000E+00 0.  1.
         11    1    4    4    0    0 -0.27658246965E+01  0.56102712549E+01  0.18031913818E+02  0.19085985592E+02  0.51100000000E-03 0. -1.
        -11    1    4    4    0    0 -0.98859501365E+01 -0.59501338695E+01  0.16170076350E+02  0.19864729361E+02  0.51100000000E-03 0.  1.
        -12    1    4    4    0    0 -0.12910415119E+02 -0.29237212603E+01 -0.79017331633E+01  0.15416366354E+02  0.00000000000E+00 0.  1.
</event>
<event>
 8    1  0.2558382E-006  0.9118800E+02  0.7816164E-02  0.1184000E+00
        -11   -1    0    0    0    0  0.00000000000E+00  0.00000000000E+00  0.45593999997E+02  0.45594000000E+02  0.51100000000E-03 0.  1.
         11   -1    0    0    0    0 -0.00000000000E+00 -0.00000000000E+00 -0.45593999997E+02  0.45594000000E+02  0.51100000000E-03 0. -1.
         23    2    1    2    0    0  0.00000000000E+00  0.00000000000E+00 -0.71054273576E-14  0.91188000000E+02  0.91188000000E+02 0.  0.
    9900012    2    3    3    0    0 -0.50186435476E+01 -0.23315846225E+02 -0.28052893605E+02  0.54367077852E+02  0.39999985579E+02 0.  0.
        -12    1    3    3    0    0  0.50186435476E+01  0.23315846225E+02  0.28052893605E+02  0.36820922148E+02  0.00000000000E+00 0.  1.
         11    1    4    4    0    0 -0.28285705477E+01 -0.13662057211E+02 -0.34819637217E+02  0.37510795177E+02  0.51100000000E-03 0. -1.
        -11    1    4    4    0    0 -0.50783511133E+00  0.19204696486E+01  0.45328016979E+01  0.49489788507E+01  0.51100000000E-03 0.  1.
         12    1    4    4    0    0 -0.16822378886E+01 -0.11574258662E+02  0.22339419150E+01  0.11907303825E+02  0.00000000000E+00 0. -1.
</event>
<event>
 8    1  0.2558382E-006  0.9118800E+02  0.7816164E-02  0.1184000E+00
        -11   -1    0    0    0    0  0.00000000000E+00  0.00000000000E+00  0.45593999997E+02  0.45594000000E+02  0.51100000000E-03 0.  1.
         11   -1    0    0    0    0 -0.00000000000E+00 -0.00000000000E+00 -0.45593999997E+02  0.45594000000E+02  0.51100000000E-03 0. -1.
         23    2    1    2    0    0  0.00000000000E+00  0.88817841970E-15  0.00000000000E+00  0.91188000000E+02  0.91188000000E+02 0.  0.
    9900012    2    3    3    0    0 -0.14947584238E+02  0.47161757337E+00  0.33647098231E+02  0.54367083158E+02  0.39999997676E+02 0.  0.
         12    1    3    3    0    0  0.14947584238E+02 -0.47161757337E+00 -0.33647098231E+02  0.36820916842E+02  0.00000000000E+00 0. -1.
         11    1    4    4    0    0  0.34642564685E+01 -0.42246403507E+01  0.49320087727E-01  0.54636152596E+01  0.51100000000E-03 0. -1.
        -11    1    4    4    0    0 -0.10024033536E+02  0.11243931921E+02  0.35063428095E+02  0.38162170319E+02  0.51100000000E-03 0.  1.
        -12    1    4    4    0    0 -0.83878071713E+01 -0.65476739974E+01 -0.14656499519E+01  0.10741297580E+02  0.00000000000E+00 0.  1.
</event>
<event>
 8    1  0.2558382E-006  0.9118800E+02  0.7816164E-02  0.1184000E+00
        -11   -1    0    0    0    0  0.00000000000E+00  0.00000000000E+00  0.45593999997E+02  0.45594000000E+02  0.51100000000E-03 0.  1.
         11   -1    0    0    0    0 -0.00000000000E+00 -0.00000000000E+00 -0.45593999997E+02  0.45594000000E+02  0.51100000000E-03 0. -1.
         23    2    1    2    0    0  0.35527136788E-14  0.35527136788E-14  0.00000000000E+00  0.91188000000E+02  0.91188000000E+02 0.  0.
    9900012    2    3    3    0    0 -0.25783116376E+02  0.25564436020E+02  0.61212726589E+01  0.54367089391E+02  0.40000011885E+02 0.  0.
         12    1    3    3    0    0  0.25783116376E+02 -0.25564436020E+02 -0.61212726589E+01  0.36820910609E+02  0.00000000000E+00 0. -1.
         11    1    4    4    0    0 -0.17711252952E+02  0.26653203561E+02  0.60308717583E+01  0.32564599731E+02  0.51100000000E-03 0. -1.
        -11    1    4    4    0    0  0.21618324129E+01 -0.22143509692E+01  0.81563444643E+01  0.87236933049E+01  0.51100000000E-03 0.  1.
        -12    1    4    4    0    0 -0.10233695837E+02  0.11255834279E+01 -0.80659435636E+01  0.13078796355E+02  0.00000000000E+00 0.  1.
</event>
<event>
 8    1  0.2558382E-006  0.9118800E+02  0.7816164E-02  0.1184000E+00
        -11   -1    0    0    0    0  0.00000000000E+00  0.00000000000E+00  0.45593999997E+02  0.45594000000E+02  0.51100000000E-03 0. -1.
         11   -1    0    0    0    0 -0.00000000000E+00 -0.00000000000E+00 -0.45593999997E+02  0.45594000000E+02  0.51100000000E-03 0.  1.
         23    2    1    2    0    0  0.00000000000E+00  0.00000000000E+00  0.35527136788E-14  0.91188000000E+02  0.91188000000E+02 0.  0.
    9900012    2    3    3    0    0  0.56015745501E+01  0.31516544111E+02 -0.18196127875E+02  0.54367227876E+02  0.40000327588E+02 0.  0.
         12    1    3    3    0    0 -0.56015745501E+01 -0.31516544111E+02  0.18196127875E+02  0.36820772124E+02  0.00000000000E+00 0. -1.
         11    1    4    4    0    0 -0.30455031559E+01  0.10140836960E+02  0.60874051603E+01  0.12213442003E+02  0.51100000000E-03 0. -1.
        -11    1    4    4    0    0  0.82532008074E+01  0.22554164763E+02 -0.28782432909E+02  0.37486452435E+02  0.51100000000E-03 0.  1.
        -12    1    4    4    0    0  0.39387689864E+00 -0.11784576107E+01  0.44988998738E+01  0.46673334385E+01  0.00000000000E+00 0.  1.
</event>
<event>
 8    1  0.2558382E-006  0.9118800E+02  0.7816164E-02  0.1184000E+00
        -11   -1    0    0    0    0  0.00000000000E+00  0.00000000000E+00  0.45593999997E+02  0.45594000000E+02  0.51100000000E-03 0.  1.
         11   -1    0    0    0    0 -0.00000000000E+00 -0.00000000000E+00 -0.45593999997E+02  0.45594000000E+02  0.51100000000E-03 0. -1.
         23    2    1    2    0    0  0.00000000000E+00  0.17763568394E-14  0.00000000000E+00  0.91188000000E+02  0.91188000000E+02 0.  0.
    9900012    2    3    3    0    0  0.25729472025E+02 -0.13486752543E+02 -0.22624817813E+02  0.54367073804E+02  0.39999976351E+02 0.  0.
        -12    1    3    3    0    0 -0.25729472025E+02  0.13486752543E+02  0.22624817813E+02  0.36820926196E+02  0.00000000000E+00 0.  1.
         11    1    4    4    0    0  0.16066793185E+02 -0.41277007968E+01 -0.31748376088E+02  0.35820931613E+02  0.51100000000E-03 0. -1.
        -11    1    4    4    0    0  0.10186189227E+02 -0.48022130553E+01  0.47962931570E+01  0.12240266726E+02  0.51100000000E-03 0.  1.
         12    1    4    4    0    0 -0.52351038757E+00 -0.45568386913E+01  0.43272651179E+01  0.63058754654E+01  0.00000000000E+00 0. -1.
</event>
<event>
 8    1  0.2558382E-006  0.9118800E+02  0.7816164E-02  0.1184000E+00
        -11   -1    0    0    0    0  0.00000000000E+00  0.00000000000E+00  0.45593999997E+02  0.45594000000E+02  0.51100000000E-03 0. -1.
         11   -1    0    0    0    0 -0.00000000000E+00 -0.00000000000E+00 -0.45593999997E+02  0.45594000000E+02  0.51100000000E-03 0.  1.
         23    2    1    2    0    0  0.35527136788E-14  0.00000000000E+00  0.00000000000E+00  0.91188000000E+02  0.91188000000E+02 0.  0.
    9900012    2    3    3    0    0  0.17080980835E+02  0.23665607512E+02 -0.22449036746E+02  0.54367080185E+02  0.39999990898E+02 0.  0.
         12    1    3    3    0    0 -0.17080980835E+02 -0.23665607512E+02  0.22449036746E+02  0.36820919815E+02  0.00000000000E+00 0. -1.
         11    1    4    4    0    0 -0.11541658562E+02  0.48283873266E+01 -0.54254003022E+01  0.13636648240E+02  0.51100000000E-03 0. -1.
        -11    1    4    4    0    0  0.27352239066E+02  0.11801467441E+02 -0.14651269884E+02  0.33197580110E+02  0.51100000000E-03 0.  1.
        -12    1    4    4    0    0  0.12704003314E+01  0.70357527444E+01 -0.23723665595E+01  0.75328518354E+01  0.00000000000E+00 0.  1.
</event>
<event>
 8    1  0.2558382E-006  0.9118800E+02  0.7816164E-02  0.1184000E+00
        -11   -1    0    0    0    0  0.00000000000E+00  0.00000000000E+00  0.45593999997E+02  0.45594000000E+02  0.51100000000E-03 0. -1.
         11   -1    0    0    0    0 -0.00000000000E+00 -0.00000000000E+00 -0.45593999997E+02  0.45594000000E+02  0.51100000000E-03 0.  1.
         23    2    1    2    0    0  0.71054273576E-14  0.35527136788E-14  0.00000000000E+00  0.91188000000E+02  0.91188000000E+02 0.  0.
    9900012    2    3    3    0    0  0.18647297216E+02  0.27036189595E+02 -0.16646408152E+02  0.54367080054E+02  0.39999990600E+02 0.  0.
         12    1    3    3    0    0 -0.18647297216E+02 -0.27036189595E+02  0.16646408152E+02  0.36820919946E+02  0.00000000000E+00 0. -1.
         11    1    4    4    0    0 -0.25236642508E+01  0.14238361206E+02 -0.79987432650E+01  0.16525123454E+02  0.51100000000E-03 0. -1.
        -11    1    4    4    0    0  0.21452408291E+01 -0.61456171084E+01 -0.88583994514E+01  0.10992811695E+02  0.51100000000E-03 0.  1.
         12    1    4    4    0    0  0.19025720638E+02  0.18943445498E+02  0.21073456439E+00  0.26849144906E+02  0.00000000000E+00 0. -1.
</event>
<event>
 8    1  0.2558382E-006  0.9118800E+02  0.7816164E-02  0.1184000E+00
        -11   -1    0    0    0    0  0.00000000000E+00  0.00000000000E+00  0.45593999997E+02  0.45594000000E+02  0.51100000000E-03 0.  1.
         11   -1    0    0    0    0 -0.00000000000E+00 -0.00000000000E+00 -0.45593999997E+02  0.45594000000E+02  0.51100000000E-03 0. -1.
         23    2    1    2    0    0 -0.71054273576E-14  0.53290705182E-14  0.22204460493E-15  0.91188000000E+02  0.91188000000E+02 0.  0.
    9900012    2    3    3    0    0  0.33440982535E+02 -0.15336377668E+02  0.15086539154E+01  0.54367084348E+02  0.40000000387E+02 0.  0.
         12    1    3    3    0    0 -0.33440982535E+02  0.15336377668E+02 -0.15086539154E+01  0.36820915652E+02  0.00000000000E+00 0. -1.
         11    1    4    4    0    0  0.48828917130E+01  0.29586987128E+00 -0.49005010293E+01  0.69242386629E+01  0.51100000000E-03 0. -1.
        -11    1    4    4    0    0  0.18891241546E+02  0.85231112066E+01  0.53457443745E+01  0.21403257111E+02  0.51100000000E-03 0.  1.
        -12    1    4    4    0    0  0.96668492759E+01 -0.24155358745E+02  0.10634105702E+01  0.26039588574E+02  0.00000000000E+00 0.  1.
</event>
<event>
 8    1  0.2558382E-006  0.9118800E+02  0.7816164E-02  0.1184000E+00
        -11   -1    0    0    0    0  0.00000000000E+00  0.00000000000E+00  0.45593999997E+02  0.45594000000E+02  0.51100000000E-03 0.  1.
         11   -1    0    0    0    0 -0.00000000000E+00 -0.00000000000E+00 -0.45593999997E+02  0.45594000000E+02  0.51100000000E-03 0. -1.
         23    2    1    2    0    0  0.00000000000E+00  0.00000000000E+00  0.00000000000E+00  0.91188000000E+02  0.91188000000E+02 0.  0.
    9900012    2    3    3    0    0 -0.34404412562E+02 -0.77952886552E+01  0.10552223593E+02  0.54367088119E+02  0.40000008985E+02 0.  0.
         12    1    3    3    0    0  0.34404412562E+02  0.77952886552E+01 -0.10552223593E+02  0.36820911881E+02  0.00000000000E+00 0. -1.
         11    1    4    4    0    0 -0.18395797318E+02 -0.91308492263E+01  0.19708252113E+01  0.20631575772E+02  0.51100000000E-03 0. -1.
        -11    1    4    4    0    0  0.49946982450E+00 -0.36570237537E+00  0.15675209885E+02  0.15687428518E+02  0.51100000000E-03 0.  1.
         12    1    4    4    0    0 -0.16508085069E+02  0.17012629464E+01 -0.70938115025E+01  0.18048083829E+02  0.00000000000E+00 0. -1.
</event>
<event>
 8    1  0.2558382E-006  0.9118800E+02  0.7816164E-02  0.1184000E+00
        -11   -1    0    0    0    0  0.00000000000E+00  0.00000000000E+00  0.45593999997E+02  0.45594000000E+02  0.51100000000E-03 0.  1.
         11   -1    0    0    0    0 -0.00000000000E+00 -0.00000000000E+00 -0.45593999997E+02  0.45594000000E+02  0.51100000000E-03 0. -1.
         23    2    1    2    0    0  0.00000000000E+00  0.71054273576E-14  0.00000000000E+00  0.91188000000E+02  0.91188000000E+02 0.  0.
    9900012    2    3    3    0    0 -0.51028316901E+01 -0.29323137022E+02 -0.21676997695E+02  0.54367116182E+02  0.40000072960E+02 0.  0.
        -12    1    3    3    0    0  0.51028316901E+01  0.29323137022E+02  0.21676997695E+02  0.36820883818E+02  0.00000000000E+00 0.  1.
         11    1    4    4    0    0  0.22040444704E+01  0.80340377471E+01 -0.74924803167E+01  0.11204500708E+02  0.51100000000E-03 0. -1.
        -11    1    4    4    0    0 -0.11097851157E+02 -0.33757310067E+02 -0.12530963278E+02  0.37679481475E+02  0.51100000000E-03 0.  1.
        -12    1    4    4    0    0  0.37909749964E+01 -0.35998647018E+01 -0.16535541004E+01  0.54831339996E+01  0.00000000000E+00 0.  1.
</event>
<event>
 8    1  0.2558382E-006  0.9118800E+02  0.7816164E-02  0.1184000E+00
        -11   -1    0    0    0    0  0.00000000000E+00  0.00000000000E+00  0.45593999997E+02  0.45594000000E+02  0.51100000000E-03 0. -1.
         11   -1    0    0    0    0 -0.00000000000E+00 -0.00000000000E+00 -0.45593999997E+02  0.45594000000E+02  0.51100000000E-03 0.  1.
         23    2    1    2    0    0  0.00000000000E+00  0.26645352591E-14  0.00000000000E+00  0.91188000000E+02  0.91188000000E+02 0.  0.
    9900012    2    3    3    0    0 -0.34264486114E+01 -0.52359610266E+01  0.36285319627E+02  0.54367078523E+02  0.39999987109E+02 0.  0.
        -12    1    3    3    0    0  0.34264486114E+01  0.52359610266E+01 -0.36285319627E+02  0.36820921477E+02  0.00000000000E+00 0.  1.
         11    1    4    4    0    0  0.26532892241E+01 -0.14302188424E+02  0.17312956552E+02  0.22612629265E+02  0.51100000000E-03 0. -1.
        -11    1    4    4    0    0  0.44745652124E+01 -0.35833725122E+01 -0.10476420554E+01  0.58275077468E+01  0.51100000000E-03 0.  1.
         12    1    4    4    0    0 -0.10554303048E+02  0.12649599910E+02  0.20020005130E+02  0.25926941511E+02  0.00000000000E+00 0. -1.
</event>
<event>
 8    1  0.2558382E-006  0.9118800E+02  0.7816164E-02  0.1184000E+00
        -11   -1    0    0    0    0  0.00000000000E+00  0.00000000000E+00  0.45593999997E+02  0.45594000000E+02  0.51100000000E-03 0.  1.
         11   -1    0    0    0    0 -0.00000000000E+00 -0.00000000000E+00 -0.45593999997E+02  0.45594000000E+02  0.51100000000E-03 0. -1.
         23    2    1    2    0    0  0.17763568394E-14 -0.35527136788E-14  0.35527136788E-14  0.91188000000E+02  0.91188000000E+02 0.  0.
    9900012    2    3    3    0    0 -0.12000841552E+02  0.27002235413E+02 -0.21969052513E+02  0.54367079539E+02  0.39999989426E+02 0.  0.
        -12    1    3    3    0    0  0.12000841552E+02 -0.27002235413E+02  0.21969052513E+02  0.36820920461E+02  0.00000000000E+00 0.  1.
         11    1    4    4    0    0 -0.19077286953E+02  0.28959827007E+01 -0.12065254685E+01  0.19333527801E+02  0.51100000000E-03 0. -1.
        -11    1    4    4    0    0  0.10055505856E+01  0.17562184979E+02 -0.19076950944E+02  0.25949403284E+02  0.51100000000E-03 0.  1.
        -12    1    4    4    0    0  0.60708948147E+01  0.65440677326E+01 -0.16855761009E+01  0.90841484538E+01  0.00000000000E+00 0.  1.
</event>
<event>
 8    1  0.2558382E-006  0.9118800E+02  0.7816164E-02  0.1184000E+00
        -11   -1    0    0    0    0  0.00000000000E+00  0.00000000000E+00  0.45593999997E+02  0.45594000000E+02  0.51100000000E-03 0. -1.
         11   -1    0    0    0    0 -0.00000000000E+00 -0.00000000000E+00 -0.45593999997E+02  0.45594000000E+02  0.51100000000E-03 0.  1.
         23    2    1    2    0    0  0.00000000000E+00  0.00000000000E+00 -0.88817841970E-15  0.91188000000E+02  0.91188000000E+02 0.  0.
    9900012    2    3    3    0    0  0.12682361213E+02  0.34005141649E+02 -0.62120274000E+01  0.54367065344E+02  0.39999957065E+02 0.  0.
         12    1    3    3    0    0 -0.12682361213E+02 -0.34005141649E+02  0.62120274000E+01  0.36820934656E+02  0.00000000000E+00 0. -1.
         11    1    4    4    0    0 -0.38243903786E+01  0.25796838039E+01 -0.13638992743E+01  0.48105043174E+01  0.51100000000E-03 0. -1.
        -11    1    4    4    0    0  0.12625001553E+02  0.30908573444E+02  0.94764177216E+01  0.34706383702E+02  0.51100000000E-03 0.  1.
        -12    1    4    4    0    0  0.38817500381E+01  0.51688440141E+00 -0.14324545847E+02  0.14850177325E+02  0.00000000000E+00 0.  1.
</event>
<event>
 8    1  0.2558382E-006  0.9118800E+02  0.7816164E-02  0.1184000E+00
        -11   -1    0    0    0    0  0.00000000000E+00  0.00000000000E+00  0.45593999997E+02  0.45594000000E+02  0.51100000000E-03 0. -1.
         11   -1    0    0    0    0 -0.00000000000E+00 -0.00000000000E+00 -0.45593999997E+02  0.45594000000E+02  0.51100000000E-03 0.  1.
         23    2    1    2    0    0 -0.55511151231E-16 -0.35527136788E-14 -0.35527136788E-14  0.91188000000E+02  0.91188000000E+02 0.  0.
    9900012    2    3    3    0    0  0.48909517642E+00  0.25540859169E+02  0.26518022511E+02  0.54367079057E+02  0.39999988326E+02 0.  0.
        -12    1    3    3    0    0 -0.48909517642E+00 -0.25540859169E+02 -0.26518022511E+02  0.36820920943E+02  0.00000000000E+00 0.  1.
         11    1    4    4    0    0 -0.24545040763E+01  0.13853617555E+02 -0.35709353491E+01  0.14515470683E+02  0.51100000000E-03 0.  1.
        -11    1    4    4    0    0 -0.75845700309E+01  0.10973910736E+02  0.84890469210E+01  0.15811904923E+02  0.51100000000E-03 0. -1.
         12    1    4    4    0    0  0.10528169284E+02  0.71333087788E+00  0.21599910940E+02  0.24039703451E+02  0.00000000000E+00 0. -1.
</event>
<event>
 8    1  0.2558382E-006  0.9118800E+02  0.7816164E-02  0.1184000E+00
        -11   -1    0    0    0    0  0.00000000000E+00  0.00000000000E+00  0.45593999997E+02  0.45594000000E+02  0.51100000000E-03 0. -1.
         11   -1    0    0    0    0 -0.00000000000E+00 -0.00000000000E+00 -0.45593999997E+02  0.45594000000E+02  0.51100000000E-03 0.  1.
         23    2    1    2    0    0  0.00000000000E+00  0.35527136788E-14 -0.35527136788E-14  0.91188000000E+02  0.91188000000E+02 0.  0.
    9900012    2    3    3    0    0 -0.84263845252E+01  0.21039612278E+02 -0.29019144962E+02  0.54367081825E+02  0.39999994636E+02 0.  0.
         12    1    3    3    0    0  0.84263845252E+01 -0.21039612278E+02  0.29019144962E+02  0.36820918175E+02  0.00000000000E+00 0. -1.
         11    1    4    4    0    0  0.84308324762E+01 -0.36192505166E+00  0.32037591124E+01  0.90262948488E+01  0.51100000000E-03 0. -1.
        -11    1    4    4    0    0 -0.73026200109E+00  0.14190603578E+02 -0.13515597914E+02  0.19610657810E+02  0.51100000000E-03 0.  1.
         12    1    4    4    0    0 -0.16126955000E+02  0.72109337514E+01 -0.18707306160E+02  0.25730129166E+02  0.00000000000E+00 0. -1.
</event>
<event>
 8    1  0.2558382E-006  0.9118800E+02  0.7816164E-02  0.1184000E+00
        -11   -1    0    0    0    0  0.00000000000E+00  0.00000000000E+00  0.45593999997E+02  0.45594000000E+02  0.51100000000E-03 0.  1.
         11   -1    0    0    0    0 -0.00000000000E+00 -0.00000000000E+00 -0.45593999997E+02  0.45594000000E+02  0.51100000000E-03 0. -1.
         23    2    1    2    0    0  0.49960036108E-15  0.00000000000E+00 -0.17763568394E-14  0.91188000000E+02  0.91188000000E+02 0.  0.
    9900012    2    3    3    0    0 -0.19105379631E+00 -0.35053154622E+02 -0.11270353873E+02  0.54367068087E+02  0.39999963318E+02 0.  0.
        -12    1    3    3    0    0  0.19105379631E+00  0.35053154622E+02  0.11270353873E+02  0.36820931913E+02  0.00000000000E+00 0.  1.
         11    1    4    4    0    0 -0.13401896340E+02 -0.19071260446E+02 -0.76072285163E+01  0.24519252159E+02  0.51100000000E-03 0. -1.
        -11    1    4    4    0    0  0.71254147810E+01 -0.82689526540E+01 -0.12527148715E+02  0.16615552022E+02  0.51100000000E-03 0.  1.
        -12    1    4    4    0    0  0.60854277625E+01 -0.77129415226E+01  0.88640233584E+01  0.13232263906E+02  0.00000000000E+00 0.  1.
</event>
<event>
 8    1  0.2558382E-006  0.9118800E+02  0.7816164E-02  0.1184000E+00
        -11   -1    0    0    0    0  0.00000000000E+00  0.00000000000E+00  0.45593999997E+02  0.45594000000E+02  0.51100000000E-03 0. -1.
         11   -1    0    0    0    0 -0.00000000000E+00 -0.00000000000E+00 -0.45593999997E+02  0.45594000000E+02  0.51100000000E-03 0.  1.
         23    2    1    2    0    0 -0.35527136788E-14  0.00000000000E+00  0.00000000000E+00  0.91188000000E+02  0.91188000000E+02 0.  0.
    9900012    2    3    3    0    0 -0.29590820606E+02 -0.12566601462E+02 -0.17951261173E+02  0.54367028881E+02  0.39999873941E+02 0.  0.
         12    1    3    3    0    0  0.29590820606E+02  0.12566601462E+02  0.17951261173E+02  0.36820971119E+02  0.00000000000E+00 0. -1.
         11    1    4    4    0    0 -0.12557599837E+00 -0.90337185180E+01 -0.15990117809E+02  0.18365938783E+02  0.51100000000E-03 0. -1.
        -11    1    4    4    0    0 -0.10278265173E+02  0.27483470984E+01 -0.96828105183E+01  0.14385859951E+02  0.51100000000E-03 0.  1.
        -12    1    4    4    0    0 -0.19186979435E+02 -0.62812300420E+01  0.77216671544E+01  0.21615230147E+02  0.00000000000E+00 0.  1.
</event>
<event>
 8    1  0.2558382E-006  0.9118800E+02  0.7816164E-02  0.1184000E+00
        -11   -1    0    0    0    0  0.00000000000E+00  0.00000000000E+00  0.45593999997E+02  0.45594000000E+02  0.51100000000E-03 0. -1.
         11   -1    0    0    0    0 -0.00000000000E+00 -0.00000000000E+00 -0.45593999997E+02  0.45594000000E+02  0.51100000000E-03 0.  1.
         23    2    1    2    0    0  0.00000000000E+00 -0.11102230246E-15  0.35527136788E-14  0.91188000000E+02  0.91188000000E+02 0.  0.
    9900012    2    3    3    0    0  0.24256465886E+02 -0.96441153332E+00 -0.27685267833E+02  0.54367078205E+02  0.39999986384E+02 0.  0.
         12    1    3    3    0    0 -0.24256465886E+02  0.96441153332E+00  0.27685267833E+02  0.36820921795E+02  0.00000000000E+00 0. -1.
         11    1    4    4    0    0  0.12450103910E+02 -0.16517886523E+01  0.79275110347E+00  0.12584194360E+02  0.51100000000E-03 0. -1.
        -11    1    4    4    0    0  0.17651369884E+02  0.38087811339E-01 -0.61480343515E+01  0.18691458908E+02  0.51100000000E-03 0.  1.
         12    1    4    4    0    0 -0.58450079081E+01  0.64928930769E+00 -0.22329984585E+02  0.23091424937E+02  0.00000000000E+00 0. -1.
</event>
<event>
 8    1  0.2558382E-006  0.9118800E+02  0.7816164E-02  0.1184000E+00
        -11   -1    0    0    0    0  0.00000000000E+00  0.00000000000E+00  0.45593999997E+02  0.45594000000E+02  0.51100000000E-03 0.  1.
         11   -1    0    0    0    0 -0.00000000000E+00 -0.00000000000E+00 -0.45593999997E+02  0.45594000000E+02  0.51100000000E-03 0. -1.
         23    2    1    2    0    0  0.00000000000E+00  0.00000000000E+00  0.17763568394E-14  0.91188000000E+02  0.91188000000E+02 0.  0.
    9900012    2    3    3    0    0  0.33884158357E+02  0.11186874721E+02  0.90827881130E+01  0.54367090268E+02  0.40000013883E+02 0.  0.
         12    1    3    3    0    0 -0.33884158357E+02 -0.11186874721E+02 -0.90827881130E+01  0.36820909732E+02  0.00000000000E+00 0. -1.
         11    1    4    4    0    0 -0.43758445791E+00  0.32078552184E+01 -0.12149985768E+02  0.12573940102E+02  0.51100000000E-03 0. -1.
        -11    1    4    4    0    0  0.16225950154E+02  0.83746946704E-01  0.87542082562E+01  0.18437045165E+02  0.51100000000E-03 0.  1.
         12    1    4    4    0    0  0.18095792661E+02  0.78952725561E+01  0.12478565625E+02  0.23356105001E+02  0.00000000000E+00 0. -1.
</event>
<event>
 8    1  0.2558382E-006  0.9118800E+02  0.7816164E-02  0.1184000E+00
        -11   -1    0    0    0    0  0.00000000000E+00  0.00000000000E+00  0.45593999997E+02  0.45594000000E+02  0.51100000000E-03 0. -1.
         11   -1    0    0    0    0 -0.00000000000E+00 -0.00000000000E+00 -0.45593999997E+02  0.45594000000E+02  0.51100000000E-03 0.  1.
         23    2    1    2    0    0  0.35527136788E-14  0.35527136788E-14 -0.71054273576E-14  0.91188000000E+02  0.91188000000E+02 0.  0.
    9900012    2    3    3    0    0  0.19899617723E+02  0.19385788941E+02 -0.24165604475E+02  0.54367081516E+02  0.39999993931E+02 0.  0.
         12    1    3    3    0    0 -0.19899617723E+02 -0.19385788941E+02  0.24165604475E+02  0.36820918484E+02  0.00000000000E+00 0. -1.
         11    1    4    4    0    0  0.74247337114E+00  0.15135315567E+02 -0.93926835952E+01  0.17828391666E+02  0.51100000000E-03 0. -1.
        -11    1    4    4    0    0  0.82809202089E+01  0.11797458197E+02  0.26518198402E+01  0.14655572597E+02  0.51100000000E-03 0.  1.
         12    1    4    4    0    0  0.10876224143E+02 -0.75469848231E+01 -0.17424740720E+02  0.21883117253E+02  0.00000000000E+00 0. -1.
</event>
<event>
 8    1  0.2558382E-006  0.9118800E+02  0.7816164E-02  0.1184000E+00
        -11   -1    0    0    0    0  0.00000000000E+00  0.00000000000E+00  0.45593999997E+02  0.45594000000E+02  0.51100000000E-03 0. -1.
         11   -1    0    0    0    0 -0.00000000000E+00 -0.00000000000E+00 -0.45593999997E+02  0.45594000000E+02  0.51100000000E-03 0.  1.
         23    2    1    2    0    0 -0.88817841970E-15  0.71054273576E-14 -0.88817841970E-15  0.91188000000E+02  0.91188000000E+02 0.  0.
    9900012    2    3    3    0    0  0.46782179343E+01 -0.36211443880E+02  0.47572322095E+01  0.54367005320E+02  0.39999820227E+02 0.  0.
        -12    1    3    3    0    0 -0.46782179343E+01  0.36211443880E+02 -0.47572322095E+01  0.36820994680E+02  0.00000000000E+00 0.  1.
         11    1    4    4    0    0  0.35492835659E-01 -0.20717540352E+02  0.54061254902E+01  0.21411303815E+02  0.51100000000E-03 0. -1.
        -11    1    4    4    0    0  0.31954700889E+01 -0.22051166368E+02 -0.73564253315E+01  0.23464482973E+02  0.51100000000E-03 0.  1.
         12    1    4    4    0    0  0.14472550098E+01  0.65572628395E+01  0.67075320507E+01  0.94912185319E+01  0.00000000000E+00 0. -1.
</event>
<event>
 8    1  0.2558382E-006  0.9118800E+02  0.7816164E-02  0.1184000E+00
        -11   -1    0    0    0    0  0.00000000000E+00  0.00000000000E+00  0.45593999997E+02  0.45594000000E+02  0.51100000000E-03 0. -1.
         11   -1    0    0    0    0 -0.00000000000E+00 -0.00000000000E+00 -0.45593999997E+02  0.45594000000E+02  0.51100000000E-03 0.  1.
         23    2    1    2    0    0 -0.17763568394E-14  0.00000000000E+00 -0.71054273576E-14  0.91188000000E+02  0.91188000000E+02 0.  0.
    9900012    2    3    3    0    0  0.15885741398E+02 -0.27792328300E+02  0.18193691596E+02  0.54367072445E+02  0.39999973253E+02 0.  0.
        -12    1    3    3    0    0 -0.15885741398E+02  0.27792328300E+02 -0.18193691596E+02  0.36820927555E+02  0.00000000000E+00 0.  1.
         11    1    4    4    0    0  0.40874616278E-02 -0.12353478881E+02  0.15632610998E+02  0.19924532216E+02  0.51100000000E-03 0. -1.
        -11    1    4    4    0    0  0.10155345694E+02 -0.14056773629E+02 -0.10389276886E+02  0.20215365579E+02  0.51100000000E-03 0.  1.
        -12    1    4    4    0    0  0.57263082417E+01 -0.13820757910E+01  0.12950357483E+02  0.14227174650E+02  0.00000000000E+00 0.  1.
</event>
<event>
 8    1  0.2558382E-006  0.9118800E+02  0.7816164E-02  0.1184000E+00
        -11   -1    0    0    0    0  0.00000000000E+00  0.00000000000E+00  0.45593999997E+02  0.45594000000E+02  0.51100000000E-03 0. -1.
         11   -1    0    0    0    0 -0.00000000000E+00 -0.00000000000E+00 -0.45593999997E+02  0.45594000000E+02  0.51100000000E-03 0.  1.
         23    2    1    2    0    0  0.22204460493E-15  0.00000000000E+00 -0.17763568394E-14  0.91188000000E+02  0.91188000000E+02 0.  0.
    9900012    2    3    3    0    0  0.19510380926E+01  0.34092289192E+02  0.13772787595E+02  0.54367076463E+02  0.39999982412E+02 0.  0.
         12    1    3    3    0    0 -0.19510380926E+01 -0.34092289192E+02 -0.13772787595E+02  0.36820923537E+02  0.00000000000E+00 0. -1.
         11    1    4    4    0    0  0.11343901803E+02  0.22693974323E+02 -0.42031983059E+01  0.25717065443E+02  0.51100000000E-03 0.  1.
        -11    1    4    4    0    0 -0.18290521936E+01  0.14065739258E+02  0.12789829721E+02  0.19098958017E+02  0.51100000000E-03 0. -1.
        -12    1    4    4    0    0 -0.75638115173E+01 -0.26674243889E+01  0.51861561799E+01  0.95510530028E+01  0.00000000000E+00 0.  1.
</event>
<event>
 8    1  0.2558382E-006  0.9118800E+02  0.7816164E-02  0.1184000E+00
        -11   -1    0    0    0    0  0.00000000000E+00  0.00000000000E+00  0.45593999997E+02  0.45594000000E+02  0.51100000000E-03 0.  1.
         11   -1    0    0    0    0 -0.00000000000E+00 -0.00000000000E+00 -0.45593999997E+02  0.45594000000E+02  0.51100000000E-03 0. -1.
         23    2    1    2    0    0  0.00000000000E+00  0.88817841970E-15  0.00000000000E+00  0.91188000000E+02  0.91188000000E+02 0.  0.
    9900012    2    3    3    0    0 -0.30983474391E+02  0.72267090929E+01  0.18535861145E+02  0.54367093466E+02  0.40000021173E+02 0.  0.
         12    1    3    3    0    0  0.30983474391E+02 -0.72267090929E+01 -0.18535861145E+02  0.36820906534E+02  0.00000000000E+00 0. -1.
         11    1    4    4    0    0 -0.77629293557E+01  0.19309701427E+02 -0.80249593272E+00  0.20827185152E+02  0.51100000000E-03 0. -1.
        -11    1    4    4    0    0 -0.17924113921E+02 -0.61610756891E+01  0.10546596625E+02  0.21690168606E+02  0.51100000000E-03 0.  1.
         12    1    4    4    0    0 -0.52964311138E+01 -0.59219166448E+01  0.87917604523E+01  0.11849739708E+02  0.00000000000E+00 0. -1.
</event>
<event>
 8    1  0.2558382E-006  0.9118800E+02  0.7816164E-02  0.1184000E+00
        -11   -1    0    0    0    0  0.00000000000E+00  0.00000000000E+00  0.45593999997E+02  0.45594000000E+02  0.51100000000E-03 0.  1.
         11   -1    0    0    0    0 -0.00000000000E+00 -0.00000000000E+00 -0.45593999997E+02  0.45594000000E+02  0.51100000000E-03 0. -1.
         23    2    1    2    0    0 -0.17763568394E-14 -0.71054273576E-14 -0.88817841970E-15  0.91188000000E+02  0.91188000000E+02 0.  0.
    9900012    2    3    3    0    0  0.13053671597E+02  0.33727413218E+02 -0.69168955875E+01  0.54367079464E+02  0.39999989254E+02 0.  0.
         12    1    3    3    0    0 -0.13053671597E+02 -0.33727413218E+02  0.69168955875E+01  0.36820920536E+02  0.00000000000E+00 0. -1.
         11    1    4    4    0    0  0.23383867882E+01  0.19812254573E+02  0.59841327577E+01  0.20827945870E+02  0.51100000000E-03 0. -1.
        -11    1    4    4    0    0 -0.61620187446E+01  0.12002714323E+02 -0.28073976846E+01  0.13781041621E+02  0.51100000000E-03 0.  1.
         12    1    4    4    0    0  0.16877303554E+02  0.19124443219E+01 -0.10093630661E+02  0.19758091974E+02  0.00000000000E+00 0. -1.
</event>
<event>
 8    1  0.2558382E-006  0.9118800E+02  0.7816164E-02  0.1184000E+00
        -11   -1    0    0    0    0  0.00000000000E+00  0.00000000000E+00  0.45593999997E+02  0.45594000000E+02  0.51100000000E-03 0.  1.
         11   -1    0    0    0    0 -0.00000000000E+00 -0.00000000000E+00 -0.45593999997E+02  0.45594000000E+02  0.51100000000E-03 0. -1.
         23    2    1    2    0    0  0.44408920985E-15  0.00000000000E+00  0.88817841970E-15  0.91188000000E+02  0.91188000000E+02 0.  0.
    9900012    2    3    3    0    0 -0.23113507561E+01  0.36726242111E+02 -0.12730990969E+01  0.54367082260E+02  0.39999995628E+02 0.  0.
         12    1    3    3    0    0  0.23113507561E+01 -0.36726242111E+02  0.12730990969E+01  0.36820917740E+02  0.00000000000E+00 0. -1.
         11    1    4    4    0    0  0.62120157470E+01  0.19208834550E+02 -0.15469193792E+01  0.20247504148E+02  0.51100000000E-03 0.  1.
        -11    1    4    4    0    0 -0.29356662600E+01  0.10811824078E+02 -0.13666778667E+02  0.17671856600E+02  0.51100000000E-03 0. -1.
        -12    1    4    4    0    0 -0.55877002431E+01  0.67055834838E+01  0.13940598950E+02  0.16447721512E+02  0.00000000000E+00 0.  1.
</event>
<event>
 8    1  0.2558382E-006  0.9118800E+02  0.7816164E-02  0.1184000E+00
        -11   -1    0    0    0    0  0.00000000000E+00  0.00000000000E+00  0.45593999997E+02  0.45594000000E+02  0.51100000000E-03 0.  1.
         11   -1    0    0    0    0 -0.00000000000E+00 -0.00000000000E+00 -0.45593999997E+02  0.45594000000E+02  0.51100000000E-03 0. -1.
         23    2    1    2    0    0  0.71054273576E-14  0.00000000000E+00  0.00000000000E+00  0.91188000000E+02  0.91188000000E+02 0.  0.
    9900012    2    3    3    0    0  0.32834266926E+02  0.11484413578E+01 -0.16624404064E+02  0.54367098156E+02  0.40000031866E+02 0.  0.
        -12    1    3    3    0    0 -0.32834266926E+02 -0.11484413578E+01  0.16624404064E+02  0.36820901844E+02  0.00000000000E+00 0.  1.
         11    1    4    4    0    0  0.14808175609E+02 -0.21958281804E+01 -0.99447942323E+01  0.17972274726E+02  0.51100000000E-03 0. -1.
        -11    1    4    4    0    0  0.63469088333E+01 -0.10998662669E+02  0.59239656279E+01  0.14012394559E+02  0.51100000000E-03 0.  1.
         12    1    4    4    0    0  0.11679182484E+02  0.14342932207E+02 -0.12603575459E+02  0.22382428871E+02  0.00000000000E+00 0. -1.
</event>
<event>
 8    1  0.2558382E-006  0.9118800E+02  0.7816164E-02  0.1184000E+00
        -11   -1    0    0    0    0  0.00000000000E+00  0.00000000000E+00  0.45593999997E+02  0.45594000000E+02  0.51100000000E-03 0.  1.
         11   -1    0    0    0    0 -0.00000000000E+00 -0.00000000000E+00 -0.45593999997E+02  0.45594000000E+02  0.51100000000E-03 0. -1.
         23    2    1    2    0    0  0.00000000000E+00 -0.17763568394E-14 -0.17763568394E-14  0.91188000000E+02  0.91188000000E+02 0.  0.
    9900012    2    3    3    0    0 -0.32564460906E+02  0.89185260863E+01 -0.14690010480E+02  0.54367073484E+02  0.39999975621E+02 0.  0.
        -12    1    3    3    0    0  0.32564460906E+02 -0.89185260863E+01  0.14690010480E+02  0.36820926516E+02  0.00000000000E+00 0.  1.
         11    1    4    4    0    0 -0.11715990764E+02  0.14029864056E+02 -0.13323059258E+02  0.22618696542E+02  0.51100000000E-03 0. -1.
        -11    1    4    4    0    0 -0.19996006676E+01 -0.11597595979E+02 -0.12239933260E-01  0.11768720636E+02  0.51100000000E-03 0.  1.
         12    1    4    4    0    0 -0.18848869474E+02  0.64862580097E+01 -0.13547112880E+01  0.19979656306E+02  0.00000000000E+00 0. -1.
</event>
<event>
 8    1  0.2558382E-006  0.9118800E+02  0.7816164E-02  0.1184000E+00
        -11   -1    0    0    0    0  0.00000000000E+00  0.00000000000E+00  0.45593999997E+02  0.45594000000E+02  0.51100000000E-03 0. -1.
         11   -1    0    0    0    0 -0.00000000000E+00 -0.00000000000E+00 -0.45593999997E+02  0.45594000000E+02  0.51100000000E-03 0.  1.
         23    2    1    2    0    0  0.00000000000E+00  0.00000000000E+00 -0.35527136788E-14  0.91188000000E+02  0.91188000000E+02 0.  0.
    9900012    2    3    3    0    0  0.92768410496E+01 -0.23971914996E+02  0.26364125681E+02  0.54367087309E+02  0.40000007139E+02 0.  0.
        -12    1    3    3    0    0 -0.92768410496E+01  0.23971914996E+02 -0.26364125681E+02  0.36820912691E+02  0.00000000000E+00 0.  1.
         11    1    4    4    0    0  0.61328747999E+01 -0.11091263158E+02  0.96735069174E+00  0.12710784373E+02  0.51100000000E-03 0. -1.
        -11    1    4    4    0    0  0.13591508546E+02 -0.11126551821E+02  0.25616594238E+02  0.31060250492E+02  0.51100000000E-03 0.  1.
        -12    1    4    4    0    0 -0.10447542296E+02 -0.17541000171E+01 -0.21981924891E+00  0.10596052445E+02  0.00000000000E+00 0.  1.
</event>
<event>
 8    1  0.2558382E-006  0.9118800E+02  0.7816164E-02  0.1184000E+00
        -11   -1    0    0    0    0  0.00000000000E+00  0.00000000000E+00  0.45593999997E+02  0.45594000000E+02  0.51100000000E-03 0.  1.
         11   -1    0    0    0    0 -0.00000000000E+00 -0.00000000000E+00 -0.45593999997E+02  0.45594000000E+02  0.51100000000E-03 0. -1.
         23    2    1    2    0    0  0.00000000000E+00  0.00000000000E+00  0.00000000000E+00  0.91188000000E+02  0.91188000000E+02 0.  0.
    9900012    2    3    3    0    0 -0.53594290154E+01  0.34900743501E+02 -0.10440022330E+02  0.54367089602E+02  0.40000012365E+02 0.  0.
         12    1    3    3    0    0  0.53594290154E+01 -0.34900743501E+02  0.10440022330E+02  0.36820910398E+02  0.00000000000E+00 0. -1.
         11    1    4    4    0    0  0.35620100966E+01  0.11252229727E+02 -0.26504660817E+01  0.12096510260E+02  0.51100000000E-03 0. -1.
        -11    1    4    4    0    0 -0.14107989993E+02  0.11904109983E+02 -0.18063648890E+02  0.25827090963E+02  0.51100000000E-03 0.  1.
        -12    1    4    4    0    0  0.51865508809E+01  0.11744403791E+02  0.10274092642E+02  0.16443488379E+02  0.00000000000E+00 0.  1.
</event>
<event>
 8    1  0.2558382E-006  0.9118800E+02  0.7816164E-02  0.1184000E+00
        -11   -1    0    0    0    0  0.00000000000E+00  0.00000000000E+00  0.45593999997E+02  0.45594000000E+02  0.51100000000E-03 0. -1.
         11   -1    0    0    0    0 -0.00000000000E+00 -0.00000000000E+00 -0.45593999997E+02  0.45594000000E+02  0.51100000000E-03 0.  1.
         23    2    1    2    0    0  0.35527136788E-14  0.00000000000E+00  0.00000000000E+00  0.91188000000E+02  0.91188000000E+02 0.  0.
    9900012    2    3    3    0    0 -0.12729537886E+02 -0.43763550327E+01 -0.34272231779E+02  0.54367088968E+02  0.40000010920E+02 0.  0.
         12    1    3    3    0    0  0.12729537886E+02  0.43763550327E+01  0.34272231779E+02  0.36820911032E+02  0.00000000000E+00 0. -1.
         11    1    4    4    0    0  0.11674102108E+02 -0.47826624179E+01 -0.24280196452E+02  0.27362135513E+02  0.51100000000E-03 0. -1.
        -11    1    4    4    0    0 -0.10877878308E+02 -0.16646489657E+01 -0.20818744303E+01  0.11199709553E+02  0.51100000000E-03 0.  1.
         12    1    4    4    0    0 -0.13525761686E+02  0.20709563509E+01 -0.79101608966E+01  0.15805243902E+02  0.00000000000E+00 0. -1.
</event>
<event>
 8    1  0.2558382E-006  0.9118800E+02  0.7816164E-02  0.1184000E+00
        -11   -1    0    0    0    0  0.00000000000E+00  0.00000000000E+00  0.45593999997E+02  0.45594000000E+02  0.51100000000E-03 0. -1.
         11   -1    0    0    0    0 -0.00000000000E+00 -0.00000000000E+00 -0.45593999997E+02  0.45594000000E+02  0.51100000000E-03 0.  1.
         23    2    1    2    0    0  0.35527136788E-14  0.66613381478E-15 -0.35527136788E-14  0.91188000000E+02  0.91188000000E+02 0.  0.
    9900012    2    3    3    0    0 -0.29408662706E+02 -0.12302869096E+01  0.22122299962E+02  0.54367092846E+02  0.40000019761E+02 0.  0.
        -12    1    3    3    0    0  0.29408662706E+02  0.12302869096E+01 -0.22122299962E+02  0.36820907154E+02  0.00000000000E+00 0.  1.
         11    1    4    4    0    0  0.50895007870E-01  0.19143862099E+01  0.25036040747E+01  0.31520625765E+01  0.51100000000E-03 0. -1.
        -11    1    4    4    0    0 -0.60278355952E+01  0.78649128652E+01 -0.84550677927E+01  0.13026120987E+02  0.51100000000E-03 0.  1.
         12    1    4    4    0    0 -0.23431722119E+02 -0.11009585985E+02  0.28073763680E+02  0.38188909282E+02  0.00000000000E+00 0. -1.
</event>
<event>
 8    1  0.2558382E-006  0.9118800E+02  0.7816164E-02  0.1184000E+00
        -11   -1    0    0    0    0  0.00000000000E+00  0.00000000000E+00  0.45593999997E+02  0.45594000000E+02  0.51100000000E-03 0. -1.
         11   -1    0    0    0    0 -0.00000000000E+00 -0.00000000000E+00 -0.45593999997E+02  0.45594000000E+02  0.51100000000E-03 0.  1.
         23    2    1    2    0    0  0.88817841970E-15 -0.35527136788E-14  0.00000000000E+00  0.91188000000E+02  0.91188000000E+02 0.  0.
    9900012    2    3    3    0    0  0.64130469202E+01 -0.19663620628E+02 -0.30463003741E+02  0.54367085509E+02  0.40000003035E+02 0.  0.
         12    1    3    3    0    0 -0.64130469202E+01  0.19663620628E+02  0.30463003741E+02  0.36820914491E+02  0.00000000000E+00 0. -1.
         11    1    4    4    0    0  0.12198945058E+02 -0.18666051533E+01  0.49742380049E+00  0.12350947576E+02  0.51100000000E-03 0. -1.
        -11    1    4    4    0    0  0.74059754732E+01 -0.11746755565E+02 -0.15521993621E+02  0.20827074333E+02  0.51100000000E-03 0.  1.
        -12    1    4    4    0    0 -0.13191873611E+02 -0.60502599094E+01 -0.15438433921E+02  0.21189063601E+02  0.00000000000E+00 0.  1.
</event>
<event>
 8    1  0.2558382E-006  0.9118800E+02  0.7816164E-02  0.1184000E+00
        -11   -1    0    0    0    0  0.00000000000E+00  0.00000000000E+00  0.45593999997E+02  0.45594000000E+02  0.51100000000E-03 0. -1.
         11   -1    0    0    0    0 -0.00000000000E+00 -0.00000000000E+00 -0.45593999997E+02  0.45594000000E+02  0.51100000000E-03 0.  1.
         23    2    1    2    0    0  0.00000000000E+00  0.00000000000E+00  0.11102230246E-14  0.91188000000E+02  0.91188000000E+02 0.  0.
    9900012    2    3    3    0    0 -0.11121996287E+02 -0.35045004404E+02  0.19828834863E+01  0.54367041811E+02  0.39999903416E+02 0.  0.
         12    1    3    3    0    0  0.11121996287E+02  0.35045004404E+02 -0.19828834863E+01  0.36820958189E+02  0.00000000000E+00 0. -1.
         11    1    4    4    0    0 -0.76277005807E+01 -0.14862179731E+02 -0.64741214057E+01  0.17915927292E+02  0.51100000000E-03 0. -1.
        -11    1    4    4    0    0 -0.36561113378E+01  0.11443431927E+01 -0.84219451557E+01  0.92523419697E+01  0.51100000000E-03 0.  1.
         12    1    4    4    0    0  0.16181563187E+00 -0.21327167865E+02  0.16878950048E+02  0.27198772549E+02  0.00000000000E+00 0. -1.
</event>
<event>
 8    1  0.2558382E-006  0.9118800E+02  0.7816164E-02  0.1184000E+00
        -11   -1    0    0    0    0  0.00000000000E+00  0.00000000000E+00  0.45593999997E+02  0.45594000000E+02  0.51100000000E-03 0. -1.
         11   -1    0    0    0    0 -0.00000000000E+00 -0.00000000000E+00 -0.45593999997E+02  0.45594000000E+02  0.51100000000E-03 0.  1.
         23    2    1    2    0    0  0.00000000000E+00  0.00000000000E+00  0.17763568394E-14  0.91188000000E+02  0.91188000000E+02 0.  0.
    9900012    2    3    3    0    0 -0.17491721133E+02 -0.30269969915E+02  0.11556307179E+02  0.54367087159E+02  0.40000006797E+02 0.  0.
         12    1    3    3    0    0  0.17491721133E+02  0.30269969915E+02 -0.11556307179E+02  0.36820912841E+02  0.00000000000E+00 0. -1.
         11    1    4    4    0    0  0.21867396400E+01 -0.12309814737E+02 -0.52794763370E+01  0.13571523119E+02  0.51100000000E-03 0.  1.
        -11    1    4    4    0    0 -0.95463149442E+01 -0.19464463733E+02  0.20577529854E+02  0.29890336442E+02  0.51100000000E-03 0. -1.
         12    1    4    4    0    0 -0.10132145828E+02  0.15043085555E+01 -0.37417463387E+01  0.10905227599E+02  0.00000000000E+00 0. -1.
</event>
<event>
 8    1  0.2558382E-006  0.9118800E+02  0.7816164E-02  0.1184000E+00
        -11   -1    0    0    0    0  0.00000000000E+00  0.00000000000E+00  0.45593999997E+02  0.45594000000E+02  0.51100000000E-03 0.  1.
         11   -1    0    0    0    0 -0.00000000000E+00 -0.00000000000E+00 -0.45593999997E+02  0.45594000000E+02  0.51100000000E-03 0. -1.
         23    2    1    2    0    0 -0.17763568394E-14  0.00000000000E+00  0.00000000000E+00  0.91188000000E+02  0.91188000000E+02 0.  0.
    9900012    2    3    3    0    0  0.79804070957E+01  0.99673417654E+01 -0.34536164340E+02  0.54367062388E+02  0.39999950327E+02 0.  0.
        -12    1    3    3    0    0 -0.79804070957E+01 -0.99673417654E+01  0.34536164340E+02  0.36820937612E+02  0.00000000000E+00 0.  1.
         11    1    4    4    0    0 -0.86768370851E+01 -0.57199604444E+01 -0.10678167228E+02  0.14900627668E+02  0.51100000000E-03 0. -1.
        -11    1    4    4    0    0  0.19675897845E+02  0.10589157452E+02 -0.24894585640E+02  0.33451630842E+02  0.51100000000E-03 0.  1.
        -12    1    4    4    0    0 -0.30186536639E+01  0.50981447575E+01  0.10365885286E+01  0.60148038778E+01  0.00000000000E+00 0.  1.
</event>
<event>
 8    1  0.2558382E-006  0.9118800E+02  0.7816164E-02  0.1184000E+00
        -11   -1    0    0    0    0  0.00000000000E+00  0.00000000000E+00  0.45593999997E+02  0.45594000000E+02  0.51100000000E-03 0. -1.
         11   -1    0    0    0    0 -0.00000000000E+00 -0.00000000000E+00 -0.45593999997E+02  0.45594000000E+02  0.51100000000E-03 0.  1.
         23    2    1    2    0    0  0.00000000000E+00  0.00000000000E+00  0.00000000000E+00  0.91188000000E+02  0.91188000000E+02 0.  0.
    9900012    2    3    3    0    0  0.10898784946E+02 -0.87219266990E+01 -0.34072338955E+02  0.54367084741E+02  0.40000001284E+02 0.  0.
         12    1    3    3    0    0 -0.10898784946E+02  0.87219266990E+01  0.34072338955E+02  0.36820915259E+02  0.00000000000E+00 0. -1.
         11    1    4    4    0    0  0.20760394636E+01 -0.10684391271E+02  0.15808876297E+01  0.10998425462E+02  0.51100000000E-03 0. -1.
        -11    1    4    4    0    0  0.11856535966E+02 -0.55752096388E+01 -0.31764989546E+02  0.34360951220E+02  0.51100000000E-03 0.  1.
         12    1    4    4    0    0 -0.30337904836E+01  0.75376742106E+01 -0.38882370392E+01  0.90077080590E+01  0.00000000000E+00 0. -1.
</event>
<event>
 8    1  0.2558382E-006  0.9118800E+02  0.7816164E-02  0.1184000E+00
        -11   -1    0    0    0    0  0.00000000000E+00  0.00000000000E+00  0.45593999997E+02  0.45594000000E+02  0.51100000000E-03 0. -1.
         11   -1    0    0    0    0 -0.00000000000E+00 -0.00000000000E+00 -0.45593999997E+02  0.45594000000E+02  0.51100000000E-03 0.  1.
         23    2    1    2    0    0  0.00000000000E+00  0.00000000000E+00  0.00000000000E+00  0.91188000000E+02  0.91188000000E+02 0.  0.
    9900012    2    3    3    0    0 -0.39420014029E+01  0.34030750081E+02 -0.13496195386E+02  0.54367100825E+02  0.40000037951E+02 0.  0.
         12    1    3    3    0    0  0.39420014029E+01 -0.34030750081E+02  0.13496195386E+02  0.36820899175E+02  0.00000000000E+00 0. -1.
         11    1    4    4    0    0 -0.43602220532E+01  0.11484387502E+02 -0.16030494854E+01  0.12388400242E+02  0.51100000000E-03 0. -1.
        -11    1    4    4    0    0 -0.33957428940E+01  0.24282415251E+02 -0.20788688245E+02  0.32145548983E+02  0.51100000000E-03 0.  1.
         12    1    4    4    0    0  0.38139635443E+01 -0.17360526710E+01  0.88955423441E+01  0.98331516001E+01  0.00000000000E+00 0. -1.
</event>
<event>
 8    1  0.2558382E-006  0.9118800E+02  0.7816164E-02  0.1184000E+00
        -11   -1    0    0    0    0  0.00000000000E+00  0.00000000000E+00  0.45593999997E+02  0.45594000000E+02  0.51100000000E-03 0.  1.
         11   -1    0    0    0    0 -0.00000000000E+00 -0.00000000000E+00 -0.45593999997E+02  0.45594000000E+02  0.51100000000E-03 0. -1.
         23    2    1    2    0    0  0.00000000000E+00  0.00000000000E+00  0.35527136788E-14  0.91188000000E+02  0.91188000000E+02 0.  0.
    9900012    2    3    3    0    0 -0.11291890282E+02 -0.21576957501E+02 -0.27617207411E+02  0.54367054516E+02  0.39999932380E+02 0.  0.
        -12    1    3    3    0    0  0.11291890282E+02  0.21576957501E+02  0.27617207411E+02  0.36820945484E+02  0.00000000000E+00 0.  1.
         11    1    4    4    0    0  0.50554205451E+01 -0.54441646218E+01  0.21970011066E+00  0.74326626264E+01  0.51100000000E-03 0. -1.
        -11    1    4    4    0    0 -0.16281240693E+02 -0.23031759927E+02 -0.14035400673E+02  0.31504495491E+02  0.51100000000E-03 0.  1.
        -12    1    4    4    0    0 -0.66070134418E-01  0.68989670473E+01 -0.13801506849E+02  0.15429896399E+02  0.00000000000E+00 0.  1.
</event>
<event>
 8    1  0.2558382E-006  0.9118800E+02  0.7816164E-02  0.1184000E+00
        -11   -1    0    0    0    0  0.00000000000E+00  0.00000000000E+00  0.45593999997E+02  0.45594000000E+02  0.51100000000E-03 0.  1.
         11   -1    0    0    0    0 -0.00000000000E+00 -0.00000000000E+00 -0.45593999997E+02  0.45594000000E+02  0.51100000000E-03 0. -1.
         23    2    1    2    0    0 -0.17763568394E-14 -0.17763568394E-14  0.00000000000E+00  0.91188000000E+02  0.91188000000E+02 0.  0.
    9900012    2    3    3    0    0 -0.15406418080E+02 -0.45580727637E+01  0.33130743742E+02  0.54367083033E+02  0.39999997391E+02 0.  0.
         12    1    3    3    0    0  0.15406418080E+02  0.45580727637E+01 -0.33130743742E+02  0.36820916967E+02  0.00000000000E+00 0. -1.
         11    1    4    4    0    0 -0.14030862016E+02 -0.11645104309E+01  0.56425434036E+01  0.15167711422E+02  0.51100000000E-03 0. -1.
        -11    1    4    4    0    0  0.10769042909E+02  0.56630038092E+01  0.16422556165E+02  0.20438743811E+02  0.51100000000E-03 0.  1.
        -12    1    4    4    0    0 -0.12144598973E+02 -0.90565661420E+01  0.11065644173E+02  0.18760627801E+02  0.00000000000E+00 0.  1.
</event>
<event>
 8    1  0.2558382E-006  0.9118800E+02  0.7816164E-02  0.1184000E+00
        -11   -1    0    0    0    0  0.00000000000E+00  0.00000000000E+00  0.45593999997E+02  0.45594000000E+02  0.51100000000E-03 0.  1.
         11   -1    0    0    0    0 -0.00000000000E+00 -0.00000000000E+00 -0.45593999997E+02  0.45594000000E+02  0.51100000000E-03 0. -1.
         23    2    1    2    0    0  0.00000000000E+00 -0.35527136788E-14  0.00000000000E+00  0.91188000000E+02  0.91188000000E+02 0.  0.
    9900012    2    3    3    0    0  0.26879707233E+02 -0.16295492875E+02  0.19175939293E+02  0.54367103803E+02  0.40000044741E+02 0.  0.
         12    1    3    3    0    0 -0.26879707233E+02  0.16295492875E+02 -0.19175939293E+02  0.36820896197E+02  0.00000000000E+00 0. -1.
         11    1    4    4    0    0  0.51989721778E+01  0.96976683454E+01  0.62842062179E+01  0.12671437610E+02  0.51100000000E-03 0. -1.
        -11    1    4    4    0    0  0.69380450453E+01 -0.86148331847E+01  0.15190126890E+02  0.18790736415E+02  0.51100000000E-03 0.  1.
         12    1    4    4    0    0  0.14742690009E+02 -0.17378328036E+02 -0.22983938144E+01  0.22904929778E+02  0.00000000000E+00 0. -1.
</event>
<event>
 8    1  0.2558382E-006  0.9118800E+02  0.7816164E-02  0.1184000E+00
        -11   -1    0    0    0    0  0.00000000000E+00  0.00000000000E+00  0.45593999997E+02  0.45594000000E+02  0.51100000000E-03 0.  1.
         11   -1    0    0    0    0 -0.00000000000E+00 -0.00000000000E+00 -0.45593999997E+02  0.45594000000E+02  0.51100000000E-03 0. -1.
         23    2    1    2    0    0  0.00000000000E+00 -0.35527136788E-14  0.00000000000E+00  0.91188000000E+02  0.91188000000E+02 0.  0.
    9900012    2    3    3    0    0 -0.16892719086E+02  0.19826095227E+02 -0.26025806715E+02  0.54367073542E+02  0.39999975754E+02 0.  0.
        -12    1    3    3    0    0  0.16892719086E+02 -0.19826095227E+02  0.26025806715E+02  0.36820926458E+02  0.00000000000E+00 0.  1.
         11    1    4    4    0    0 -0.52352095961E+01 -0.59832374138E+01 -0.25340839891E+00  0.79542922716E+01  0.51100000000E-03 0. -1.
        -11    1    4    4    0    0 -0.14306626285E+02  0.49716495869E+01 -0.30150104299E+01  0.15443028959E+02  0.51100000000E-03 0.  1.
        -12    1    4    4    0    0  0.26491167949E+01  0.20837683054E+02 -0.22757387886E+02  0.30969752311E+02  0.00000000000E+00 0.  1.
</event>
<event>
 8    1  0.2558382E-006  0.9118800E+02  0.7816164E-02  0.1184000E+00
        -11   -1    0    0    0    0  0.00000000000E+00  0.00000000000E+00  0.45593999997E+02  0.45594000000E+02  0.51100000000E-03 0. -1.
         11   -1    0    0    0    0 -0.00000000000E+00 -0.00000000000E+00 -0.45593999997E+02  0.45594000000E+02  0.51100000000E-03 0.  1.
         23    2    1    2    0    0 -0.88817841970E-15  0.17763568394E-14  0.71054273576E-14  0.91188000000E+02  0.91188000000E+02 0.  0.
    9900012    2    3    3    0    0  0.40892103246E+01 -0.14815467622E+02 -0.33459863133E+02  0.54367052663E+02  0.39999928156E+02 0.  0.
         12    1    3    3    0    0 -0.40892103246E+01  0.14815467622E+02  0.33459863133E+02  0.36820947337E+02  0.00000000000E+00 0. -1.
         11    1    4    4    0    0 -0.24819617283E+01 -0.23153324419E+02 -0.30531871593E+02  0.38398330028E+02  0.51100000000E-03 0. -1.
        -11    1    4    4    0    0  0.58408824635E+01  0.23831594143E+00 -0.48690180085E+01  0.76078932083E+01  0.51100000000E-03 0.  1.
         12    1    4    4    0    0  0.73028958938E+00  0.80995408559E+01  0.19410264687E+01  0.83608294273E+01  0.00000000000E+00 0. -1.
</event>
<event>
 8    1  0.2558382E-006  0.9118800E+02  0.7816164E-02  0.1184000E+00
        -11   -1    0    0    0    0  0.00000000000E+00  0.00000000000E+00  0.45593999997E+02  0.45594000000E+02  0.51100000000E-03 0. -1.
         11   -1    0    0    0    0 -0.00000000000E+00 -0.00000000000E+00 -0.45593999997E+02  0.45594000000E+02  0.51100000000E-03 0.  1.
         23    2    1    2    0    0  0.00000000000E+00  0.00000000000E+00  0.00000000000E+00  0.91188000000E+02  0.91188000000E+02 0.  0.
    9900012    2    3    3    0    0  0.11652079807E+02 -0.10538395106E+02 -0.33300929243E+02  0.54367073563E+02  0.39999975801E+02 0.  0.
         12    1    3    3    0    0 -0.11652079807E+02  0.10538395106E+02  0.33300929243E+02  0.36820926437E+02  0.00000000000E+00 0. -1.
         11    1    4    4    0    0  0.84635792958E+01  0.71094162500E+01 -0.27161672688E+01  0.11382158794E+02  0.51100000000E-03 0. -1.
        -11    1    4    4    0    0  0.11786916423E+02 -0.16240871293E+02 -0.14727543403E+02  0.24891722200E+02  0.51100000000E-03 0.  1.
        -12    1    4    4    0    0 -0.85984159122E+01 -0.14069400628E+01 -0.15857218571E+02  0.18093192570E+02  0.00000000000E+00 0.  1.
</event>
<event>
 8    1  0.2558382E-006  0.9118800E+02  0.7816164E-02  0.1184000E+00
        -11   -1    0    0    0    0  0.00000000000E+00  0.00000000000E+00  0.45593999997E+02  0.45594000000E+02  0.51100000000E-03 0. -1.
         11   -1    0    0    0    0 -0.00000000000E+00 -0.00000000000E+00 -0.45593999997E+02  0.45594000000E+02  0.51100000000E-03 0.  1.
         23    2    1    2    0    0  0.88817841970E-15  0.00000000000E+00  0.00000000000E+00  0.91188000000E+02  0.91188000000E+02 0.  0.
    9900012    2    3    3    0    0  0.72606044951E+01  0.34941267065E+02 -0.90648472174E+01  0.54367082347E+02  0.39999995827E+02 0.  0.
         12    1    3    3    0    0 -0.72606044951E+01 -0.34941267065E+02  0.90648472174E+01  0.36820917653E+02  0.00000000000E+00 0. -1.
         11    1    4    4    0    0 -0.11769049279E+01  0.14938920517E+02  0.88844283951E+01  0.17420950594E+02  0.51100000000E-03 0. -1.
        -11    1    4    4    0    0 -0.77821981857E+00  0.22658508857E+02 -0.11875211846E+02  0.25593638005E+02  0.51100000000E-03 0.  1.
         12    1    4    4    0    0  0.92157292415E+01 -0.26561623088E+01 -0.60740637664E+01  0.11352493748E+02  0.00000000000E+00 0. -1.
</event>
<event>
 8    1  0.2558382E-006  0.9118800E+02  0.7816164E-02  0.1184000E+00
        -11   -1    0    0    0    0  0.00000000000E+00  0.00000000000E+00  0.45593999997E+02  0.45594000000E+02  0.51100000000E-03 0.  1.
         11   -1    0    0    0    0 -0.00000000000E+00 -0.00000000000E+00 -0.45593999997E+02  0.45594000000E+02  0.51100000000E-03 0. -1.
         23    2    1    2    0    0  0.17763568394E-14  0.00000000000E+00  0.00000000000E+00  0.91188000000E+02  0.91188000000E+02 0.  0.
    9900012    2    3    3    0    0  0.12800840331E+02 -0.33173631345E+02  0.95617763225E+01  0.54367097021E+02  0.40000029278E+02 0.  0.
         12    1    3    3    0    0 -0.12800840331E+02  0.33173631345E+02 -0.95617763225E+01  0.36820902979E+02  0.00000000000E+00 0. -1.
         11    1    4    4    0    0  0.11645275219E+02 -0.21297025546E+02  0.10048696664E+02  0.26270744888E+02  0.51100000000E-03 0. -1.
        -11    1    4    4    0    0  0.12660629999E+02 -0.67706598072E+01  0.37081941611E+01  0.14828489147E+02  0.51100000000E-03 0.  1.
         12    1    4    4    0    0 -0.11505064887E+02 -0.51059459912E+01 -0.41951145023E+01  0.13267862986E+02  0.00000000000E+00 0. -1.
</event>
<event>
 8    1  0.2558382E-006  0.9118800E+02  0.7816164E-02  0.1184000E+00
        -11   -1    0    0    0    0  0.00000000000E+00  0.00000000000E+00  0.45593999997E+02  0.45594000000E+02  0.51100000000E-03 0.  1.
         11   -1    0    0    0    0 -0.00000000000E+00 -0.00000000000E+00 -0.45593999997E+02  0.45594000000E+02  0.51100000000E-03 0. -1.
         23    2    1    2    0    0  0.00000000000E+00  0.17763568394E-14  0.00000000000E+00  0.91188000000E+02  0.91188000000E+02 0.  0.
    9900012    2    3    3    0    0  0.18579437477E+02 -0.14031054137E+02  0.28525651607E+02  0.54367098643E+02  0.40000032976E+02 0.  0.
         12    1    3    3    0    0 -0.18579437477E+02  0.14031054137E+02 -0.28525651607E+02  0.36820901357E+02  0.00000000000E+00 0. -1.
         11    1    4    4    0    0  0.94229211697E+01  0.64088372639E+01  0.11140910400E+02  0.15936891894E+02  0.51100000000E-03 0.  1.
        -11    1    4    4    0    0 -0.40506995963E+01 -0.90283725448E+01 -0.41326062739E+01  0.10723717308E+02  0.51100000000E-03 0. -1.
         12    1    4    4    0    0  0.13207215904E+02 -0.11411518856E+02  0.21517347481E+02  0.27706489441E+02  0.00000000000E+00 0. -1.
</event>
<event>
 8    1  0.2558382E-006  0.9118800E+02  0.7816164E-02  0.1184000E+00
        -11   -1    0    0    0    0  0.00000000000E+00  0.00000000000E+00  0.45593999997E+02  0.45594000000E+02  0.51100000000E-03 0.  1.
         11   -1    0    0    0    0 -0.00000000000E+00 -0.00000000000E+00 -0.45593999997E+02  0.45594000000E+02  0.51100000000E-03 0. -1.
         23    2    1    2    0    0  0.88817841970E-15 -0.71054273576E-14  0.44408920985E-15  0.91188000000E+02  0.91188000000E+02 0.  0.
    9900012    2    3    3    0    0 -0.36733400499E+01  0.36494395238E+02 -0.32319700797E+01  0.54367082826E+02  0.39999996919E+02 0.  0.
        -12    1    3    3    0    0  0.36733400499E+01 -0.36494395238E+02  0.32319700797E+01  0.36820917174E+02  0.00000000000E+00 0.  1.
         11    1    4    4    0    0  0.39561176439E+01  0.16522583367E+02 -0.26674413414E+01  0.17197728672E+02  0.51100000000E-03 0. -1.
        -11    1    4    4    0    0 -0.65473010622E+01  0.23991220823E+02  0.92306463741E+01  0.26526414392E+02  0.51100000000E-03 0.  1.
        -12    1    4    4    0    0 -0.10821566316E+01 -0.40194089512E+01 -0.97951751123E+01  0.10642939762E+02  0.00000000000E+00 0.  1.
</event>
<event>
 8    1  0.2558382E-006  0.9118800E+02  0.7816164E-02  0.1184000E+00
        -11   -1    0    0    0    0  0.00000000000E+00  0.00000000000E+00  0.45593999997E+02  0.45594000000E+02  0.51100000000E-03 0. -1.
         11   -1    0    0    0    0 -0.00000000000E+00 -0.00000000000E+00 -0.45593999997E+02  0.45594000000E+02  0.51100000000E-03 0.  1.
         23    2    1    2    0    0  0.00000000000E+00  0.00000000000E+00  0.35527136788E-14  0.91188000000E+02  0.91188000000E+02 0.  0.
    9900012    2    3    3    0    0  0.10944041061E+02 -0.28692600756E+02  0.20316057555E+02  0.54367087905E+02  0.40000008497E+02 0.  0.
         12    1    3    3    0    0 -0.10944041061E+02  0.28692600756E+02 -0.20316057555E+02  0.36820912095E+02  0.00000000000E+00 0. -1.
         11    1    4    4    0    0 -0.94420362870E+01 -0.88142237450E+01  0.24120422128E+01  0.13140035668E+02  0.51100000000E-03 0. -1.
        -11    1    4    4    0    0  0.20911949713E+02 -0.23604187086E+02  0.19567800851E+02  0.37112883466E+02  0.51100000000E-03 0.  1.
        -12    1    4    4    0    0 -0.52587236459E+00  0.37258100744E+01 -0.16637855080E+01  0.41141687704E+01  0.00000000000E+00 0.  1.
</event>
<event>
 8    1  0.2558382E-006  0.9118800E+02  0.7816164E-02  0.1184000E+00
        -11   -1    0    0    0    0  0.00000000000E+00  0.00000000000E+00  0.45593999997E+02  0.45594000000E+02  0.51100000000E-03 0. -1.
         11   -1    0    0    0    0 -0.00000000000E+00 -0.00000000000E+00 -0.45593999997E+02  0.45594000000E+02  0.51100000000E-03 0.  1.
         23    2    1    2    0    0 -0.35527136788E-14  0.35527136788E-14 -0.88817841970E-15  0.91188000000E+02  0.91188000000E+02 0.  0.
    9900012    2    3    3    0    0  0.21356550736E+02 -0.29268293044E+02 -0.65608007495E+01  0.54367090946E+02  0.40000015431E+02 0.  0.
         12    1    3    3    0    0 -0.21356550736E+02  0.29268293044E+02  0.65608007495E+01  0.36820909054E+02  0.00000000000E+00 0. -1.
         11    1    4    4    0    0  0.13385414580E+00 -0.17425550241E+02  0.92578669096E+01  0.19732607991E+02  0.51100000000E-03 0. -1.
        -11    1    4    4    0    0  0.75451619396E+01 -0.99047756948E+01  0.14331175301E+01  0.12533470245E+02  0.51100000000E-03 0.  1.
         12    1    4    4    0    0  0.13677534651E+02 -0.19379671078E+01 -0.17251785189E+02  0.22101012711E+02  0.00000000000E+00 0. -1.
</event>
<event>
 8    1  0.2558382E-006  0.9118800E+02  0.7816164E-02  0.1184000E+00
        -11   -1    0    0    0    0  0.00000000000E+00  0.00000000000E+00  0.45593999997E+02  0.45594000000E+02  0.51100000000E-03 0.  1.
         11   -1    0    0    0    0 -0.00000000000E+00 -0.00000000000E+00 -0.45593999997E+02  0.45594000000E+02  0.51100000000E-03 0. -1.
         23    2    1    2    0    0 -0.35527136788E-14 -0.35527136788E-14  0.17763568394E-14  0.91188000000E+02  0.91188000000E+02 0.  0.
    9900012    2    3    3    0    0  0.31471249130E+02  0.15523929677E+02 -0.11150840958E+02  0.54367174799E+02  0.40000206589E+02 0.  0.
        -12    1    3    3    0    0 -0.31471249130E+02 -0.15523929677E+02  0.11150840958E+02  0.36820825201E+02  0.00000000000E+00 0.  1.
         11    1    4    4    0    0  0.93955342302E+01 -0.16691993038E+01 -0.89224128588E+01  0.13064139515E+02  0.51100000000E-03 0. -1.
        -11    1    4    4    0    0  0.10744199671E+02 -0.29298534399E+01 -0.11870692649E+02  0.16276830527E+02  0.51100000000E-03 0.  1.
         12    1    4    4    0    0  0.11331515229E+02  0.20122982421E+02  0.96422645505E+01  0.25026204757E+02  0.00000000000E+00 0. -1.
</event>
<event>
 8    1  0.2558382E-006  0.9118800E+02  0.7816164E-02  0.1184000E+00
        -11   -1    0    0    0    0  0.00000000000E+00  0.00000000000E+00  0.45593999997E+02  0.45594000000E+02  0.51100000000E-03 0. -1.
         11   -1    0    0    0    0 -0.00000000000E+00 -0.00000000000E+00 -0.45593999997E+02  0.45594000000E+02  0.51100000000E-03 0.  1.
         23    2    1    2    0    0  0.00000000000E+00  0.00000000000E+00  0.00000000000E+00  0.91188000000E+02  0.91188000000E+02 0.  0.
    9900012    2    3    3    0    0 -0.99681842443E+01 -0.33478866037E+02 -0.11643901914E+02  0.54367087192E+02  0.40000006872E+02 0.  0.
         12    1    3    3    0    0  0.99681842443E+01  0.33478866037E+02  0.11643901914E+02  0.36820912808E+02  0.00000000000E+00 0. -1.
         11    1    4    4    0    0  0.74376964909E+01 -0.19751653451E+02  0.62679361481E+01  0.22016679290E+02  0.51100000000E-03 0. -1.
        -11    1    4    4    0    0 -0.10040097819E+02  0.13092727631E+01 -0.78934526324E+01  0.12838393751E+02  0.51100000000E-03 0.  1.
         12    1    4    4    0    0 -0.73657829159E+01 -0.15036485349E+02 -0.10018385430E+02  0.19512014151E+02  0.00000000000E+00 0. -1.
</event>
<event>
 8    1  0.2558382E-006  0.9118800E+02  0.7816164E-02  0.1184000E+00
        -11   -1    0    0    0    0  0.00000000000E+00  0.00000000000E+00  0.45593999997E+02  0.45594000000E+02  0.51100000000E-03 0. -1.
         11   -1    0    0    0    0 -0.00000000000E+00 -0.00000000000E+00 -0.45593999997E+02  0.45594000000E+02  0.51100000000E-03 0.  1.
         23    2    1    2    0    0 -0.88817841970E-15 -0.17763568394E-14  0.00000000000E+00  0.91188000000E+02  0.91188000000E+02 0.  0.
    9900012    2    3    3    0    0  0.39841773613E+01  0.15052214257E+02  0.33366726896E+02  0.54367064555E+02  0.39999955266E+02 0.  0.
        -12    1    3    3    0    0 -0.39841773613E+01 -0.15052214257E+02 -0.33366726896E+02  0.36820935445E+02  0.00000000000E+00 0.  1.
         11    1    4    4    0    0 -0.40188583979E+01 -0.79685776719E+01  0.11542079311E+02  0.14590032489E+02  0.51100000000E-03 0. -1.
        -11    1    4    4    0    0  0.14124227651E+02  0.23163311337E+02  0.17984677154E+02  0.32549676057E+02  0.51100000000E-03 0.  1.
        -12    1    4    4    0    0 -0.61211918922E+01 -0.14251940831E+00  0.38399704316E+01  0.72273560088E+01  0.00000000000E+00 0.  1.
</event>
<event>
 8    1  0.2558382E-006  0.9118800E+02  0.7816164E-02  0.1184000E+00
        -11   -1    0    0    0    0  0.00000000000E+00  0.00000000000E+00  0.45593999997E+02  0.45594000000E+02  0.51100000000E-03 0.  1.
         11   -1    0    0    0    0 -0.00000000000E+00 -0.00000000000E+00 -0.45593999997E+02  0.45594000000E+02  0.51100000000E-03 0. -1.
         23    2    1    2    0    0  0.15820678101E-14  0.00000000000E+00  0.00000000000E+00  0.91188000000E+02  0.91188000000E+02 0.  0.
    9900012    2    3    3    0    0 -0.21704596616E+00 -0.36446080159E+02 -0.52359621257E+01  0.54367093340E+02  0.40000020887E+02 0.  0.
         12    1    3    3    0    0  0.21704596616E+00  0.36446080159E+02  0.52359621257E+01  0.36820906660E+02  0.00000000000E+00 0. -1.
         11    1    4    4    0    0  0.12319050474E+02 -0.97870110794E+01 -0.22818491703E+01  0.15898157955E+02  0.51100000000E-03 0. -1.
        -11    1    4    4    0    0 -0.83501366602E+01 -0.14694351547E+02  0.10569075688E+02  0.19933743020E+02  0.51100000000E-03 0.  1.
        -12    1    4    4    0    0 -0.41859597804E+01 -0.11964717532E+02 -0.13523188644E+02  0.18535192365E+02  0.00000000000E+00 0.  1.
</event>
<event>
 8    1  0.2558382E-006  0.9118800E+02  0.7816164E-02  0.1184000E+00
        -11   -1    0    0    0    0  0.00000000000E+00  0.00000000000E+00  0.45593999997E+02  0.45594000000E+02  0.51100000000E-03 0.  1.
         11   -1    0    0    0    0 -0.00000000000E+00 -0.00000000000E+00 -0.45593999997E+02  0.45594000000E+02  0.51100000000E-03 0. -1.
         23    2    1    2    0    0  0.00000000000E+00 -0.14432899320E-14  0.71054273576E-14  0.91188000000E+02  0.91188000000E+02 0.  0.
    9900012    2    3    3    0    0  0.15989397410E+02 -0.77866544611E+00 -0.33158906248E+02  0.54367079140E+02  0.39999988515E+02 0.  0.
        -12    1    3    3    0    0 -0.15989397410E+02  0.77866544611E+00  0.33158906248E+02  0.36820920860E+02  0.00000000000E+00 0.  1.
         11    1    4    4    0    0  0.27494431283E+00 -0.77158262130E+01 -0.31220821654E+01  0.83280829627E+01  0.51100000000E-03 0. -1.
        -11    1    4    4    0    0 -0.49456519338E+00 -0.10515292890E+02 -0.56376426150E+01  0.11941482061E+02  0.51100000000E-03 0.  1.
         12    1    4    4    0    0  0.16209018291E+02  0.17452453657E+02 -0.24399181468E+02  0.34097514116E+02  0.00000000000E+00 0. -1.
</event>
<event>
 8    1  0.2558382E-006  0.9118800E+02  0.7816164E-02  0.1184000E+00
        -11   -1    0    0    0    0  0.00000000000E+00  0.00000000000E+00  0.45593999997E+02  0.45594000000E+02  0.51100000000E-03 0.  1.
         11   -1    0    0    0    0 -0.00000000000E+00 -0.00000000000E+00 -0.45593999997E+02  0.45594000000E+02  0.51100000000E-03 0. -1.
         23    2    1    2    0    0  0.44408920985E-15 -0.17763568394E-14 -0.71054273576E-14  0.91188000000E+02  0.91188000000E+02 0.  0.
    9900012    2    3    3    0    0  0.25496910267E+01 -0.95163443875E+01 -0.35478399744E+02  0.54367101271E+02  0.40000038967E+02 0.  0.
        -12    1    3    3    0    0 -0.25496910267E+01  0.95163443875E+01  0.35478399744E+02  0.36820898729E+02  0.00000000000E+00 0.  1.
         11    1    4    4    0    0  0.27790437561E+01 -0.49684665642E+01 -0.38111293363E+02  0.38534133262E+02  0.51100000000E-03 0. -1.
        -11    1    4    4    0    0  0.18805526608E+01 -0.76196222779E+00 -0.59126683832E+01  0.62511368900E+01  0.51100000000E-03 0.  1.
        -12    1    4    4    0    0 -0.21099053902E+01 -0.37859155955E+01  0.85455620024E+01  0.95818311188E+01  0.00000000000E+00 0.  1.
</event>
